Title
44434
    1GLY      N    1   4.154   3.785   4.445  0.2635 -0.6490 -0.2148
    1GLY    HT1    2   4.254   3.803   4.466  0.3333 -2.0144  0.7849
    1GLY    HT2    3   4.100   3.874   4.448  1.6549  0.1973  0.4071
    1GLY    HT3    4   4.142   3.743   4.350  1.6367 -1.1973 -0.1765
    1GLY     CA    5   4.105   3.687   4.545 -0.3170  0.6961 -0.0049
    1GLY    HA1    6   4.119   3.734   4.641 -2.9168  0.4395  0.5786
    1GLY    HA2    7   4.168   3.600   4.540 -0.3185  0.7271 -0.8172
    1GLY      C    8   3.962   3.649   4.543  0.6167  0.2860  0.1778
    1GLY      O    9   3.895   3.691   4.450  0.6949  0.3934  0.8950
    2PRO      N   10   3.910   3.573   4.637 -0.6513  0.2901 -0.4789
    2PRO     CD   11   3.984   3.500   4.742  0.4939  0.0731  0.0297
    2PRO    HD1   12   3.994   3.577   4.822 -0.4154  2.0841 -1.6845
    2PRO    HD2   13   4.084   3.459   4.715 -0.5106 -2.1658 -0.5404
    2PRO     CA   14   3.767   3.540   4.648  0.3059 -0.1284  0.1059
    2PRO     HA   15   3.750   3.492   4.553  0.1059  0.2855 -0.0690
    2PRO     CB   16   3.746   3.448   4.770  0.0148  0.5644  0.0382
    2PRO    HB1   17   3.668   3.369   4.765 -0.0006  0.6044 -0.5164
    2PRO    HB2   18   3.718   3.516   4.853 -1.9276  2.9044 -2.3483
    2PRO     CG   19   3.887   3.391   4.796  0.3904  0.2793  0.5094
    2PRO    HG1   20   3.912   3.374   4.903 -0.0710  0.1878  0.6091
    2PRO    HG2   21   3.914   3.305   4.731  0.3504 -0.0275  0.8963
    2PRO      C   22   3.668   3.646   4.644  0.4899  0.1082  0.0178
    2PRO      O   23   3.704   3.760   4.670  0.1345 -0.0904 -0.2372
    3GLY      N   24   3.542   3.613   4.611  0.3703  0.0709  0.2495
    3GLY     HN   25   3.522   3.519   4.582  0.7853  0.0753 -0.0616
    3GLY     CA   26   3.427   3.702   4.589 -0.2977 -0.1039 -0.1859
    3GLY    HA1   27   3.414   3.764   4.676 -0.4192 -0.5371  0.1081
    3GLY    HA2   28   3.345   3.635   4.567 -0.7630 -0.0642  1.3486
    3GLY      C   29   3.435   3.802   4.474  0.0593  0.3662 -0.6345
    3GLY      O   30   3.482   3.765   4.370 -0.4002  0.0789 -0.0210
    4ASP      N   31   3.380   3.928   4.483 -0.1261  0.4403  0.8064
    4ASP     HN   32   3.332   3.957   4.565 -0.9826  1.1530  0.0693
    4ASP     CA   33   3.392   4.028   4.380  0.2251  0.1424  0.1735
    4ASP     HA   34   3.343   3.984   4.296  0.0152  0.9481 -0.1365
    4ASP     CB   35   3.332   4.170   4.431 -0.1936  0.3020 -0.1821
    4ASP    HB1   36   3.349   4.242   4.349 -2.7787  0.8331 -0.3579
    4ASP    HB2   37   3.378   4.202   4.527  2.8253  0.1946 -1.5004
    4ASP     CG   38   3.182   4.160   4.440  0.3367  0.4226 -0.4090
    4ASP    OD1   39   3.122   4.257   4.492  0.3615 -0.0893 -0.3663
    4ASP    OD2   40   3.113   4.065   4.397 -0.2597  0.2310 -0.3476
    4ASP      C   41   3.531   4.074   4.337 -0.5814  0.6015  0.0417
    4ASP      O   42   3.627   4.085   4.414 -0.0272 -0.2266  0.3469
    5PRO      N   43   3.561   4.095   4.206  0.1307  0.1382 -0.1545
    5PRO     CD   44   3.461   4.102   4.100  0.0831 -0.1662  0.0364
    5PRO    HD1   45   3.382   4.176   4.123  0.6837  0.1427  1.2254
    5PRO    HD2   46   3.416   4.001   4.103  0.1926 -0.2117  0.1972
    5PRO     CA   47   3.695   4.094   4.152 -1.1243 -0.6203 -0.2059
    5PRO     HA   48   3.744   4.021   4.215 -0.7876 -0.8926 -0.7705
    5PRO     CB   49   3.659   4.042   4.011  0.5279  0.0613  0.7768
    5PRO    HB1   50   3.632   3.935   4.011 -0.8750  0.3719 -0.9776
    5PRO    HB2   51   3.737   4.056   3.933  0.5122  0.0150  0.7528
    5PRO     CG   52   3.536   4.132   3.981  0.3825  0.2265  0.6509
    5PRO    HG1   53   3.553   4.241   3.973  4.2377 -0.2625  0.3964
    5PRO    HG2   54   3.483   4.102   3.887  1.2033 -0.0900  0.2775
    5PRO      C   55   3.773   4.227   4.148 -0.3816 -0.1250  0.0880
    5PRO      O   56   3.720   4.330   4.188 -0.5564 -0.1646 -0.1992
    6GLY      N   57   3.902   4.229   4.112  0.0005  0.2583  0.0058
    6GLY     HN   58   3.956   4.145   4.107 -1.4595 -0.7930  1.0292
    6GLY     CA   59   3.967   4.352   4.068 -0.6686 -0.0172  0.2811
    6GLY    HA1   60   4.068   4.329   4.038  0.1851  0.8434  2.3185
    6GLY    HA2   61   3.964   4.431   4.141  1.8809  1.7799 -1.3718
    6GLY      C   62   3.917   4.404   3.935  0.3479 -0.4358  0.5781
    6GLY      O   63   3.837   4.349   3.860  0.4239 -0.0083  0.0997
    7SER      N   64   3.968   4.519   3.897  0.2539 -0.3116  0.3227
    7SER     HN   65   4.030   4.569   3.958  0.3630  2.4888 -1.8607
    7SER     CA   66   3.942   4.582   3.763 -0.0190 -0.5170 -0.0234
    7SER     HA   67   3.873   4.523   3.704  0.1660 -1.2974  0.5193
    7SER     CB   68   3.885   4.727   3.766 -0.1337 -0.0963  0.3316
    7SER    HB1   69   3.961   4.801   3.800  0.5277 -0.5298 -0.1940
    7SER    HB2   70   3.817   4.720   3.854  1.9011 -1.2070  1.9072
    7SER     OG   71   3.815   4.774   3.647 -0.1365 -0.1649  0.4330
    7SER    HG1   72   3.726   4.743   3.669  0.4532 -0.8384  2.0154
    7SER      C   73   4.082   4.589   3.700 -0.2604  0.1363 -0.1793
    7SER      O   74   4.178   4.617   3.776 -0.1179  0.1558  0.3823
    8GLY      N   75   4.094   4.554   3.572 -0.0862  0.1798  0.1170
    8GLY     HN   76   4.006   4.550   3.525 -0.0528  0.1508  0.0579
    8GLY     CA   77   4.221   4.548   3.500 -0.3277 -0.6783  0.2694
    8GLY    HA1   78   4.194   4.500   3.408  0.4082 -2.7239  1.0594
    8GLY    HA2   79   4.298   4.499   3.559  0.5361  0.9081  0.5317
    8GLY      C   80   4.279   4.686   3.494 -0.2111 -0.3798 -0.4111
    8GLY      O   81   4.223   4.791   3.523 -0.4590 -0.1404 -0.2908
    9ASN      N   82   4.404   4.683   3.454  0.0357  0.4143 -0.5978
    9ASN     HN   83   4.443   4.593   3.440 -0.5156 -0.2618  1.7973
    9ASN     CA   84   4.489   4.796   3.426  0.5943 -0.2149 -0.4983
    9ASN     HA   85   4.448   4.871   3.493  0.2656 -0.9461  0.1271
    9ASN     CB   86   4.636   4.777   3.457  0.2982 -0.3208 -0.2991
    9ASN    HB1   87   4.678   4.703   3.385 -2.0267  0.8140 -3.0347
    9ASN    HB2   88   4.639   4.751   3.565  0.0485  0.2680 -0.1498
    9ASN     CG   89   4.710   4.910   3.453  0.1108 -0.3128 -0.0811
    9ASN    OD1   90   4.669   5.005   3.516  0.1445 -0.3551  0.1108
    9ASN    ND2   91   4.815   4.912   3.359  0.4779 -0.5243 -0.1314
    9ASN   HD21   92   4.848   5.005   3.342 -3.0632  0.8753 -0.2779
    9ASN   HD22   93   4.830   4.833   3.300 -0.5014  0.7594 -2.2103
    9ASN      C   94   4.462   4.824   3.276  0.3231  0.2364 -0.3551
    9ASN      O   95   4.477   4.718   3.214  0.0610  0.0112  0.4496
   10PRO      N   96   4.424   4.935   3.224  0.5825 -0.5546  0.0560
   10PRO     CD   97   4.364   5.051   3.293 -0.2299 -0.1177  0.5579
   10PRO    HD1   98   4.450   5.114   3.327  0.4689 -1.1122  0.6908
   10PRO    HD2   99   4.301   5.027   3.381 -0.4062 -0.1601  0.4186
   10PRO     CA  100   4.410   4.958   3.080 -0.6373 -0.3439  0.1990
   10PRO     HA  101   4.343   4.887   3.034 -1.8324  1.2678 -0.6526
   10PRO     CB  102   4.362   5.107   3.064 -0.6197  0.5817 -0.0787
   10PRO    HB1  103   4.297   5.117   2.975  0.9210 -1.1562 -1.4851
   10PRO    HB2  104   4.456   5.165   3.053  0.6718 -1.4437 -0.3829
   10PRO     CG  105   4.285   5.133   3.195 -0.2512  0.4559 -0.1886
   10PRO    HG1  106   4.289   5.241   3.218 -1.9423  0.3224  0.8952
   10PRO    HG2  107   4.176   5.111   3.183 -0.6359  1.5893  1.0154
   10PRO      C  108   4.535   4.922   2.996  0.3001 -0.6218 -0.4564
   10PRO      O  109   4.648   4.941   3.031 -0.2987 -0.5054  0.3422
   11GLY      N  110   4.506   4.875   2.866  0.2275  0.3787 -0.4884
   11GLY     HN  111   4.413   4.864   2.832  0.3044 -1.6658 -0.1384
   11GLY     CA  112   4.611   4.842   2.782 -0.5809 -0.1531 -0.0914
   11GLY    HA1  113   4.566   4.787   2.700  1.0468  0.5356 -1.5217
   11GLY    HA2  114   4.688   4.786   2.834 -0.0702  1.8091  1.3548
   11GLY      C  115   4.681   4.957   2.710  0.5837 -0.2657 -0.4270
   11GLY      O  116   4.651   5.072   2.737  0.2538 -0.5598  0.2553
   12SER      N  117   4.773   4.925   2.616 -0.1441  0.2705 -0.2244
   12SER     HN  118   4.807   4.833   2.596 -1.2634 -0.4011  0.8079
   12SER     CA  119   4.836   5.026   2.529  0.1415 -0.0672 -0.5627
   12SER     HA  120   4.844   5.114   2.592  2.3719  0.6354 -1.7180
   12SER     CB  121   4.984   5.002   2.501  0.2605  0.1847  0.4196
   12SER    HB1  122   4.988   4.920   2.426  1.6033 -0.1655  0.8336
   12SER    HB2  123   5.035   4.957   2.589 -1.2098 -1.8988  0.2766
   12SER     OG  124   5.042   5.125   2.455 -0.0867  0.1461  0.1539
   12SER    HG1  125   5.009   5.196   2.512  3.0466  1.8483  0.0781
   12SER      C  126   4.752   5.059   2.404  0.0509 -0.5252  0.5388
   12SER      O  127   4.676   4.979   2.357 -0.0730  0.3143  0.3886
   13GLY      N  128   4.765   5.181   2.347  0.3892 -0.0869 -0.6646
   13GLY     HN  129   4.817   5.249   2.398 -1.0335  2.2988 -2.1690
   13GLY     CA  130   4.715   5.215   2.218 -0.1138 -0.4180 -0.5345
   13GLY    HA1  131   4.751   5.315   2.196 -0.1811 -0.3940 -0.5339
   13GLY    HA2  132   4.609   5.233   2.231 -0.0768  0.9690 -1.8743
   13GLY      C  133   4.756   5.112   2.105  0.6749 -0.5602  0.0615
   13GLY      O  134   4.859   5.043   2.103 -0.3884  0.3285  0.1839
   14ASP      N  135   4.664   5.096   2.007 -0.2479  0.3184 -0.0178
   14ASP     HN  136   4.567   5.122   2.009 -0.5082 -0.2833 -2.1059
   14ASP     CA  137   4.679   5.010   1.890 -0.0646 -0.2289  0.5993
   14ASP     HA  138   4.713   4.912   1.923  2.6318  0.7523  1.0011
   14ASP     CB  139   4.545   5.001   1.806  0.4998 -0.0974 -0.5627
   14ASP    HB1  140   4.560   4.989   1.697  1.8147  0.3968 -0.4506
   14ASP    HB2  141   4.481   5.089   1.830  1.0695  0.1740 -0.0178
   14ASP     CG  142   4.468   4.877   1.838 -0.5848  0.3945 -0.1541
   14ASP    OD1  143   4.387   4.835   1.755 -0.5923 -0.1046  0.7364
   14ASP    OD2  144   4.484   4.816   1.951 -0.2539  0.4889  0.1044
   14ASP      C  145   4.793   5.053   1.801  0.8182  0.2936 -0.4860
   14ASP      O  146   4.830   5.173   1.806  0.5966 -0.3015  0.2828
   15PRO      N  147   4.863   4.962   1.730 -0.4622  0.5424  0.3565
   15PRO     CD  148   4.835   4.823   1.714  0.1974  0.0377  0.2091
   15PRO    HD1  149   4.726   4.805   1.701 -0.3550  2.1782  1.4661
   15PRO    HD2  150   4.865   4.777   1.811 -1.2541  1.2114  1.2640
   15PRO     CA  151   4.970   5.002   1.641  0.4002  0.1110  0.2507
   15PRO     HA  152   5.041   5.060   1.697 -0.4853  0.5582  0.9511
   15PRO     CB  153   5.026   4.869   1.589  0.7596 -0.2755 -0.7520
   15PRO    HB1  154   5.106   4.839   1.660  0.0337 -0.2359  0.0991
   15PRO    HB2  155   5.071   4.874   1.487  3.9702  1.1194  0.5937
   15PRO     CG  156   4.916   4.774   1.596 -0.6048  0.2607  0.0027
   15PRO    HG1  157   4.845   4.773   1.511 -0.7671 -0.1592  0.1430
   15PRO    HG2  158   4.953   4.672   1.619 -1.6539 -0.6637 -2.1179
   15PRO      C  159   4.927   5.083   1.523 -0.3686  0.0416 -0.5948
   15PRO    OT1  160   4.972   5.195   1.501 -0.7472  0.0630 -0.1497
   15PRO    OT2  161   4.841   5.037   1.442 -0.1208 -0.2228 -0.3570
   16LIT    LIT  162   2.961   4.204   4.420 -0.3900 -0.9525 -0.7974
   17LIT    LIT  163   7.321   4.303   0.500 -0.2766  0.6103  0.9134
   18LIT    LIT  164   5.494   1.150   3.417 -0.4173  0.0504  0.3691
   19LIT    LIT  165   4.340   4.837   4.355 -0.4312  0.6578 -0.4919
   20LIT    LIT  166   7.497   1.811   6.489 -0.3609  0.4685 -0.8399
   21LIT    LIT  167   0.046   1.721   0.386 -0.0606  0.2779  0.8301
   22LIT    LIT  168   6.980   1.023   4.854 -0.7799  0.1169 -0.9495
   23LIT    LIT  169   7.396   3.052   5.010  0.8567 -0.2351 -0.8651
   24LIT    LIT  170   7.500   6.782   2.676  1.1006  0.3908  0.7267
   25LIT    LIT  171   1.041   7.611   4.045 -0.4322 -0.4578 -0.9665
   26LIT    LIT  172   3.567   5.508   0.560 -0.2696 -0.2886 -0.1088
   27LIT    LIT  173   4.737   3.770   4.724 -0.2455 -0.1227  0.1585
   28LIT    LIT  174   4.209   4.024   2.744 -0.8044 -0.0955 -0.6256
   29LIT    LIT  175   5.477   6.792   5.739  0.2687 -0.0924  0.5618
   30LIT    LIT  176   4.817   0.620   0.047  0.2995  0.4569 -0.1830
   31LIT    LIT  177   1.145   0.456   2.665 -0.0294 -0.4945  0.1578
   32LIT    LIT  178   3.297   0.973   3.459 -0.0158 -1.2181 -0.0053
   33LIT    LIT  179   4.536   6.866   2.157  0.3795 -0.4984  0.9523
   34LIT    LIT  180   6.534   5.811   4.672 -0.3439 -0.0308 -0.1625
   35LIT    LIT  181   3.424   7.591   0.896  0.1000 -0.1263 -0.3495
   36LIT    LIT  182   1.084   6.554   4.278  0.0075 -0.1282  0.0759
   37LIT    LIT  183   1.158   3.533   3.113  0.5124 -0.3105 -0.7583
   38LIT    LIT  184   3.583   5.816   4.686 -0.6167 -0.3518 -0.0939
   39LIT    LIT  185   2.406   4.504   0.189 -0.7649  1.2050  1.2623
   40LIT    LIT  186   7.366   3.942   2.261  0.0349 -0.2107  0.9411
   41LIT    LIT  187   4.903   5.199   1.311 -1.6186 -0.1139  1.0241
   42LIT    LIT  188   4.646   0.449   2.948 -0.3456 -0.5599  0.0322
   43LIT    LIT  189   2.131   0.443   4.906 -0.7107  0.7394  1.0200
   44LIT    LIT  190   0.365   7.673   2.811 -0.3725  0.2968  0.3285
   45LIT    LIT  191   5.505   7.660   1.690 -0.6293  0.5307  0.4391
   46LIT    LIT  192   7.207   7.096   0.518  0.6062 -0.9819 -0.3452
   47LIT    LIT  193   4.235   2.738   6.480 -0.8434 -0.3494 -0.6495
   48LIT    LIT  194   1.298   7.450   2.966 -0.3983 -0.2244  0.0935
   49LIT    LIT  195   4.475   4.666   2.055 -0.7280  0.7748  0.4653
   50LIT    LIT  196   7.198   4.598   6.014  0.0353 -0.8598  0.3368
   51LIT    LIT  197   4.186   1.205   4.723  0.0123  0.0484  1.0017
   52LIT    LIT  198   4.951   1.544   4.184 -0.7073  0.0825  0.2079
   53LIT    LIT  199   1.362   4.209   2.471  0.8004 -1.0768 -0.2649
   54LIT    LIT  200   5.269   1.676   5.820 -1.0884 -1.2204 -0.2683
   55LIT    LIT  201   5.910   1.608   0.387 -0.1093 -0.9626 -0.2198
   56LIT    LIT  202   0.512   4.316   4.135 -0.4844 -0.9768 -0.2116
   57LIT    LIT  203   0.054   1.625   3.224 -0.1402 -1.2919  0.6409
   58LIT    LIT  204   0.115   1.356   1.710 -0.1303 -0.2539 -0.1434
   59LIT    LIT  205   0.999   1.926   6.016 -0.4956  1.1735  0.5910
   60CLA    CLA  206   0.880   6.286   3.611 -0.1180  0.0734 -0.1736
   61CLA    CLA  207   6.415   3.159   1.200  0.1616 -0.1482 -0.1527
   62CLA    CLA  208   8.037   0.050   1.434 -0.2192 -0.4964 -0.2856
   63CLA    CLA  209   2.921   4.837   0.603 -0.1887 -0.1114 -0.2524
   64CLA    CLA  210   6.299   5.747   5.700 -0.3026 -0.2242 -0.1505
   65CLA    CLA  211   5.208   1.733   6.430 -0.0937 -0.1099  0.2401
   66CLA    CLA  212   5.094   1.649   4.948 -0.2230 -0.3710  0.0174
   67CLA    CLA  213   2.574   2.510   5.439  0.3050 -0.1609 -0.0024
   68CLA    CLA  214   7.517   6.552   1.377  0.1086 -0.0216  0.0741
   69CLA    CLA  215   6.648   0.520   2.273 -0.1254 -0.5857  0.1814
   70CLA    CLA  216   5.956   1.095   2.667 -0.0867 -0.3203  0.2796
   71CLA    CLA  217   5.676   3.591   5.969 -0.5808 -0.1602  0.1762
   72CLA    CLA  218   6.905   3.318   2.658 -0.0372 -0.0716 -0.2587
   73CLA    CLA  219   5.521   6.342   5.274  0.3376 -0.3093 -0.1881
   74CLA    CLA  220   4.599   3.508   2.776 -0.1126  0.1579  0.0172
   75CLA    CLA  221   0.498   1.676   4.252 -0.1527  0.0447  0.2511
   76CLA    CLA  222   3.799   1.544   0.270 -0.4050 -0.1892 -0.0549
   77CLA    CLA  223   3.106   3.861   1.328  0.1307  0.0926  0.3833
   78CLA    CLA  224   3.247   5.217   0.638 -0.3372  0.0392  0.3739
   79CLA    CLA  225   8.212   3.537   3.588  0.1032 -0.0548 -0.1801
   80CLA    CLA  226   5.638   0.067   3.585 -0.1156  0.3115  0.0611
   81CLA    CLA  227   8.201   1.796   3.247  0.0977  0.1793  0.4269
   82CLA    CLA  228   5.078   0.617   3.986 -0.3180 -0.5112  0.1846
   83CLA    CLA  229   0.286   1.372   2.898 -0.2848 -0.4373  0.1792
   84CLA    CLA  230   3.843   1.812   1.162  0.1268  0.5490  0.0442
   85CLA    CLA  231   7.915   6.110   4.679 -0.0967 -0.2669  0.1458
   86CLA    CLA  232   7.038   4.070   0.780  0.2603 -0.5180 -0.0867
   87CLA    CLA  233   1.252   7.435   0.403  0.1143 -0.3665  0.0837
   88CLA    CLA  234   5.075   5.423   4.365 -0.4480 -0.1242 -0.1440
   89CLA    CLA  235   0.875   6.305   1.082 -0.1547  0.0304 -0.1766
   90CLA    CLA  236   0.276   7.761   1.834  0.0106 -0.0165 -0.0318
   91CLA    CLA  237   8.300   0.017   3.118  0.2097  0.4037 -0.3414
   92CLA    CLA  238   5.530   3.553   1.501 -0.4652  0.2271 -0.2364
   93CLA    CLA  239   3.231   1.002   4.804 -0.3747 -0.0579 -0.4708
   94CLA    CLA  240   4.249   4.895   6.087 -0.0082  0.1886 -0.0183
   95CLA    CLA  241   0.090   1.512   1.541  0.2093  0.2272 -0.1699
   96CLA    CLA  242   1.011   7.580   4.277 -0.3683 -0.0277 -0.0095
   97CLA    CLA  243   1.555   3.106   4.491  0.0854  0.2232  0.5427
   98CLA    CLA  244   5.594   0.475   6.422  0.3194 -0.0866 -0.3890
   99CLA    CLA  245   1.165   2.212   1.498 -0.1881 -0.1327  0.1735
  100CLA    CLA  246   3.343   0.293   2.694 -0.0546  0.2753  0.1957
  101CLA    CLA  247   4.259   2.958   5.567  0.4691 -0.4717 -0.5873
  102TIP3   OH2  248   2.221   6.065   4.470 -0.2650  0.1838  0.7242
  102TIP3    H1  249   2.140   6.082   4.519  0.4780  1.4796  1.5683
  102TIP3    H2  250   2.288   6.112   4.519  0.7088  0.5784 -0.9309
  103TIP3   OH2  251   5.702   4.375   0.094  0.3791 -0.0538 -0.0463
  103TIP3    H1  252   5.775   4.418   0.050  1.6075 -1.4167  0.5995
  103TIP3    H2  253   5.738   4.343   0.176 -1.0543 -0.4358  0.4753
  104TIP3   OH2  254   3.968   2.748   2.178 -0.6056  0.5545  0.1228
  104TIP3    H1  255   4.023   2.680   2.217 -0.9404  0.3864  0.3101
  104TIP3    H2  256   3.986   2.827   2.229  1.8078  1.3420 -1.7490
  105TIP3   OH2  257   3.306   4.930   6.247 -0.2882  0.0930 -0.6663
  105TIP3    H1  258   3.362   4.862   6.210  1.9223  0.7629  1.2576
  105TIP3    H2  259   3.240   4.882   6.298 -0.0008 -0.6476 -0.9817
  106TIP3   OH2  260   3.387   1.107   4.290 -0.4967  0.3382  0.3476
  106TIP3    H1  261   3.423   1.067   4.369 -1.4151 -1.1589  0.0431
  106TIP3    H2  262   3.332   1.179   4.322 -1.3137 -0.6090  1.1160
  107TIP3   OH2  263   2.856   4.525   1.987  0.4671  0.2442 -0.0990
  107TIP3    H1  264   2.915   4.535   1.913 -0.9352 -0.5302 -1.3795
  107TIP3    H2  265   2.909   4.484   2.055  1.2932 -0.9372 -1.3960
  108TIP3   OH2  266   1.041   4.386   5.986  0.0453  0.4323 -0.0091
  108TIP3    H1  267   0.989   4.463   5.963  1.4957  2.4144  2.7394
  108TIP3    H2  268   1.097   4.371   5.910 -0.4206  1.9726 -0.6896
  109TIP3   OH2  269   2.712   3.208   0.020 -0.1015  0.3581  0.1444
  109TIP3    H1  270   2.641   3.247   0.072 -0.6925 -0.4773 -0.0165
  109TIP3    H2  271   2.791   3.253   0.051 -0.5667  0.5840  1.0647
  110TIP3   OH2  272   5.994   0.900   4.830 -0.3795 -0.3718 -0.4476
  110TIP3    H1  273   6.052   0.914   4.904 -1.0792  0.1855  0.0011
  110TIP3    H2  274   6.041   0.937   4.755  1.9130 -3.9204 -1.0306
  111TIP3   OH2  275   3.287   0.874   4.177 -0.4308  0.0416 -0.4762
  111TIP3    H1  276   3.208   0.927   4.171 -1.3270 -0.1427  4.6560
  111TIP3    H2  277   3.346   0.926   4.232  0.8388 -1.9380  0.1500
  112TIP3   OH2  278   1.285   5.162   3.773  0.4553 -0.5609  0.0042
  112TIP3    H1  279   1.342   5.106   3.824 -2.1700 -1.8716  1.7197
  112TIP3    H2  280   1.218   5.104   3.737 -1.1122  1.1277 -0.0134
  113TIP3   OH2  281   5.380   5.653   0.073 -0.8433 -0.3788 -0.2665
  113TIP3    H1  282   5.431   5.575   0.052 -1.2160 -0.7502  0.1896
  113TIP3    H2  283   5.326   5.667  -0.005 -1.7727 -1.3965  0.1645
  114TIP3   OH2  284   0.832   1.301   1.970 -0.0014 -0.1091 -0.6107
  114TIP3    H1  285   0.745   1.292   2.009  0.2631 -0.1450 -0.0162
  114TIP3    H2  286   0.860   1.390   1.995  0.2005 -0.1585 -0.6578
  115TIP3   OH2  287   0.523   3.652   2.772  0.6043 -0.0421 -0.0393
  115TIP3    H1  288   0.490   3.594   2.840 -0.7525  0.8025  0.0554
  115TIP3    H2  289   0.537   3.595   2.697  0.1413 -0.6424  0.3227
  116TIP3   OH2  290   5.193   7.596   1.999 -0.4277 -0.2189  0.2793
  116TIP3    H1  291   5.171   7.649   2.076 -0.1691  0.0775  0.1505
  116TIP3    H2  292   5.274   7.635   1.966 -0.4881 -0.4081 -0.0892
  117TIP3   OH2  293   1.615   6.060   0.555 -0.2946 -0.0810 -0.0885
  117TIP3    H1  294   1.641   5.982   0.506 -0.8745 -0.5746  0.3752
  117TIP3    H2  295   1.535   6.090   0.512  0.8189  1.2660 -1.3293
  118TIP3   OH2  296   5.240   2.593   4.362 -0.5149 -0.1352  0.3188
  118TIP3    H1  297   5.284   2.675   4.382  2.0561 -1.2286 -0.4826
  118TIP3    H2  298   5.215   2.601   4.270 -1.7063  0.3253  0.6644
  119TIP3   OH2  299   2.982   3.406   3.156  0.1296  0.2532  0.1476
  119TIP3    H1  300   2.967   3.347   3.230  0.0573 -2.1855 -1.6705
  119TIP3    H2  301   2.940   3.488   3.182 -0.5049 -0.7118  2.4823
  120TIP3   OH2  302   1.785   1.667   4.501 -0.3984  0.2046  0.4349
  120TIP3    H1  303   1.753   1.733   4.439  1.3025  0.6850  0.0130
  120TIP3    H2  304   1.872   1.645   4.469 -0.4609 -1.3652  1.2871
  121TIP3   OH2  305   0.927   4.241   0.730 -0.2248 -0.0457  0.1495
  121TIP3    H1  306   0.845   4.237   0.682  0.5519 -1.2035 -1.1944
  121TIP3    H2  307   0.989   4.280   0.668  0.8812 -1.8796  0.0291
  122TIP3   OH2  308   8.103   6.814   3.050 -0.5599  0.3242  0.6641
  122TIP3    H1  309   8.094   6.847   3.139  1.7299  1.6445  0.4796
  122TIP3    H2  310   8.195   6.787   3.043 -0.9414 -0.7595 -0.9897
  123TIP3   OH2  311   2.321   4.046   2.063  0.1031  0.0996 -0.0176
  123TIP3    H1  312   2.310   4.111   2.133  3.1967  0.5461  0.2018
  123TIP3    H2  313   2.250   4.065   2.002 -2.2600  0.2020  2.5443
  124TIP3   OH2  314   8.241   3.652   1.548 -0.2858 -0.0357 -0.4182
  124TIP3    H1  315   8.207   3.654   1.638 -1.1302 -0.2804 -0.7172
  124TIP3    H2  316   8.224   3.563   1.518  0.2953 -0.0492 -0.7166
  125TIP3   OH2  317   0.464   7.288   2.053  0.6652  0.2012  0.4204
  125TIP3    H1  318   0.451   7.380   2.078  0.3379  0.2240  0.1734
  125TIP3    H2  319   0.472   7.290   1.957 -2.2652 -0.3246  0.0564
  126TIP3   OH2  320   1.373   1.489   4.576 -0.3336 -0.0592  0.2724
  126TIP3    H1  321   1.348   1.580   4.596 -3.3643 -0.5681 -0.6937
  126TIP3    H2  322   1.417   1.459   4.656  0.1318  2.0255  0.8783
  127TIP3   OH2  323   6.973   7.661   3.269 -0.1151  0.4501  0.1191
  127TIP3    H1  324   6.892   7.652   3.219 -0.9509 -0.6955  1.5951
  127TIP3    H2  325   6.948   7.715   3.344  0.3077 -0.4669  0.9354
  128TIP3   OH2  326   4.106   1.448   1.793 -0.6090 -0.0047 -0.0638
  128TIP3    H1  327   4.066   1.525   1.753  0.0908  0.0858 -0.6050
  128TIP3    H2  328   4.141   1.480   1.876 -1.3374 -0.0102  0.2576
  129TIP3   OH2  329   5.943   6.629   6.602  0.3327 -0.0147  0.4216
  129TIP3    H1  330   5.940   6.576   6.681  2.2008  0.1825  0.6691
  129TIP3    H2  331   5.994   6.706   6.627 -0.5293  0.8893 -0.5136
  130TIP3   OH2  332   7.756   1.872   0.485 -0.0305 -0.3111  0.9146
  130TIP3    H1  333   7.732   1.944   0.543 -1.0540  1.7589 -1.8909
  130TIP3    H2  334   7.835   1.902   0.440  0.9212 -2.0029  1.3299
  131TIP3   OH2  335   6.134   2.908   2.836  0.3112  0.2001  0.4497
  131TIP3    H1  336   6.165   2.968   2.768 -1.9385 -0.2656 -1.0913
  131TIP3    H2  337   6.099   2.965   2.904  1.5805  0.6536  0.7573
  132TIP3   OH2  338   5.443   6.330   4.951 -0.2029 -0.0113 -0.0092
  132TIP3    H1  339   5.462   6.417   4.917 -1.6727  0.6606  0.7785
  132TIP3    H2  340   5.471   6.334   5.043 -0.1748 -0.4154  0.0029
  133TIP3   OH2  341   3.881   3.465   1.126  0.1416 -0.4809 -0.5102
  133TIP3    H1  342   3.822   3.495   1.195 -1.6798 -1.1344 -1.6863
  133TIP3    H2  343   3.948   3.533   1.119 -0.2737  0.1272  1.1137
  134TIP3   OH2  344   1.192   6.625   2.131 -0.3982  0.0438  0.3054
  134TIP3    H1  345   1.108   6.604   2.091 -0.4870 -0.5797  0.8011
  134TIP3    H2  346   1.172   6.642   2.223  0.3156 -2.7385  1.0637
  135TIP3   OH2  347   0.766   3.666   4.792 -0.6922 -0.4413 -0.5875
  135TIP3    H1  348   0.690   3.681   4.848 -0.6789 -0.3107 -0.6056
  135TIP3    H2  349   0.815   3.748   4.795  0.2775 -1.0507  0.6993
  136TIP3   OH2  350   4.749   4.394   0.627  0.4214  0.0804 -0.0403
  136TIP3    H1  351   4.720   4.469   0.678  0.7445 -0.6800  1.3044
  136TIP3    H2  352   4.701   4.319   0.663 -0.3227 -0.3087 -1.7280
  137TIP3   OH2  353   4.241   3.077   3.933  0.0454  0.3358  0.4005
  137TIP3    H1  354   4.333   3.063   3.909 -0.4876 -2.1915 -0.3911
  137TIP3    H2  355   4.191   3.025   3.871 -1.8949  0.8821  1.4211
  138TIP3   OH2  356   0.562   2.291   3.622 -0.0071 -0.3089 -0.2934
  138TIP3    H1  357   0.484   2.345   3.633  0.7994  0.7940  0.1730
  138TIP3    H2  358   0.550   2.219   3.684  1.1224  1.9771  2.8165
  139TIP3   OH2  359   0.617   2.409   4.324 -0.1151  0.0525  0.0700
  139TIP3    H1  360   0.689   2.462   4.359 -0.6695 -0.6280  2.4174
  139TIP3    H2  361   0.570   2.467   4.265  0.9587  1.2710  0.3832
  140TIP3   OH2  362   0.646   4.669   4.019 -0.0333 -0.1222 -0.0961
  140TIP3    H1  363   0.577   4.728   3.986  1.0829  0.3997 -1.5907
  140TIP3    H2  364   0.719   4.682   3.959  0.6313 -2.2646  0.1908
  141TIP3   OH2  365   3.333   7.482   6.365 -0.4148 -0.7939 -0.0139
  141TIP3    H1  366   3.306   7.436   6.444  1.3803 -1.3404  0.3346
  141TIP3    H2  367   3.251   7.504   6.320 -1.5082 -0.0487  2.2048
  142TIP3   OH2  368   4.282   7.602   1.631 -0.3776  0.2759  0.6653
  142TIP3    H1  369   4.190   7.623   1.652 -0.2437  0.8782  0.6731
  142TIP3    H2  370   4.290   7.619   1.537 -0.8815 -2.0777  0.1474
  143TIP3   OH2  371   0.134   1.307   5.533  0.2670  0.2369  0.2949
  143TIP3    H1  372   0.113   1.228   5.582 -3.1315  0.7062 -0.1792
  143TIP3    H2  373   0.202   1.351   5.585  1.8078 -2.5974  0.8651
  144TIP3   OH2  374   7.566   5.850   4.271  0.6474 -0.6294  0.0664
  144TIP3    H1  375   7.657   5.879   4.271  0.5097 -0.0853 -1.6937
  144TIP3    H2  376   7.515   5.929   4.290  0.4974 -0.7029 -0.0261
  145TIP3   OH2  377   5.155   4.158   1.525 -0.1696 -0.1261 -0.2624
  145TIP3    H1  378   5.223   4.155   1.591 -1.1828  1.4367  0.9360
  145TIP3    H2  379   5.134   4.066   1.507  0.9319 -0.5902  0.7180
  146TIP3   OH2  380   2.467   5.140   4.865 -0.3858  0.4637  0.2533
  146TIP3    H1  381   2.555   5.174   4.846 -0.5182  1.0832  0.7154
  146TIP3    H2  382   2.481   5.075   4.933 -0.4200  1.5760  1.3677
  147TIP3   OH2  383   7.729   0.326   6.643  0.3285 -0.0655 -0.0289
  147TIP3    H1  384   7.754   0.240   6.677 -0.6289  0.3108  1.7039
  147TIP3    H2  385   7.811   0.363   6.608  1.1922 -0.8159  1.1379
  148TIP3   OH2  386   4.161   5.707   3.405 -0.6215  0.0466  0.5568
  148TIP3    H1  387   4.199   5.767   3.341  0.9610 -0.9639  0.4996
  148TIP3    H2  388   4.150   5.759   3.485 -0.7357  0.7887  0.0658
  149TIP3   OH2  389   6.175   2.216   4.911 -0.1991  0.2436  0.1087
  149TIP3    H1  390   6.086   2.199   4.942  0.1002 -0.7149  0.4994
  149TIP3    H2  391   6.167   2.224   4.816 -0.7122  0.2011  0.1458
  150TIP3   OH2  392   5.733   3.577   6.549  0.0601 -0.4673 -0.2441
  150TIP3    H1  393   5.671   3.650   6.559  0.1964 -0.4674  0.7142
  150TIP3    H2  394   5.787   3.602   6.475  0.2587  0.5372  0.2185
  151TIP3   OH2  395   0.385   7.678   6.557 -0.6184  0.2278 -0.6268
  151TIP3    H1  396   0.314   7.614   6.548 -1.5770  0.8620  1.6760
  151TIP3    H2  397   0.457   7.629   6.596  0.1070 -0.3108 -2.5484
  152TIP3   OH2  398   5.963   0.947   1.080  0.3776 -0.6354  0.0996
  152TIP3    H1  399   5.989   0.999   1.157  1.3097 -0.6178 -0.2135
  152TIP3    H2  400   5.881   0.905   1.106 -0.3249  0.8688  0.4172
  153TIP3   OH2  401   7.298   0.744   0.096  0.8687  0.2933  0.0886
  153TIP3    H1  402   7.320   0.819   0.042  0.3676  0.7668  0.5268
  153TIP3    H2  403   7.337   0.764   0.181  1.0527 -0.1167  0.1015
  154TIP3   OH2  404   7.256   0.772   1.784  0.8417  0.3260  0.7794
  154TIP3    H1  405   7.185   0.708   1.782  0.9204  0.1195 -3.3825
  154TIP3    H2  406   7.213   0.857   1.794  0.0595  0.1156 -0.6286
  155TIP3   OH2  407   2.865   1.229   0.688  0.5688 -0.1389 -0.4467
  155TIP3    H1  408   2.884   1.260   0.599 -0.7403 -0.6260 -0.9299
  155TIP3    H2  409   2.770   1.220   0.690  0.7395 -3.2301 -0.0918
  156TIP3   OH2  410   1.726   7.114   6.192  0.4105 -0.1959  0.5754
  156TIP3    H1  411   1.711   7.120   6.286  1.1524  1.1419  0.6388
  156TIP3    H2  412   1.774   7.033   6.180 -0.6966 -0.9743  1.1883
  157TIP3   OH2  413   3.324   7.573   3.734 -0.7150  0.4494 -0.4800
  157TIP3    H1  414   3.249   7.619   3.695 -1.6374 -0.2926  0.3599
  157TIP3    H2  415   3.360   7.521   3.662 -2.1068 -0.5516 -0.4969
  158TIP3   OH2  416   1.773   6.034   2.572  0.4048 -0.3559  0.4408
  158TIP3    H1  417   1.857   6.057   2.532 -0.6587  0.0968 -1.6486
  158TIP3    H2  418   1.715   6.108   2.551 -0.7207 -0.9926  1.2049
  159TIP3   OH2  419   6.338   5.781   5.382  0.1078  0.2456 -0.1825
  159TIP3    H1  420   6.424   5.818   5.361  0.7039 -0.5403  0.7724
  159TIP3    H2  421   6.333   5.786   5.477 -1.2510  1.0012 -0.2804
  160TIP3   OH2  422   4.030   4.500   4.380  0.0681  1.0939 -0.4689
  160TIP3    H1  423   4.053   4.555   4.455  2.5698 -0.2979 -0.0866
  160TIP3    H2  424   3.981   4.427   4.418  0.2548  1.0262 -0.3546
  161TIP3   OH2  425   2.834   0.718   4.927 -0.2106 -0.4992 -0.2616
  161TIP3    H1  426   2.904   0.743   4.987 -0.3633 -1.1821  0.2127
  161TIP3    H2  427   2.843   0.779   4.854  0.3008  0.0163  0.2106
  162TIP3   OH2  428   4.605   4.111   0.892  0.5181  0.1473 -0.1166
  162TIP3    H1  429   4.532   4.098   0.953  0.4080 -0.4352 -0.3603
  162TIP3    H2  430   4.569   4.167   0.823  0.3974  0.1411 -0.0594
  163TIP3   OH2  431   1.933   2.768   0.550 -0.7859  0.2834 -0.3497
  163TIP3    H1  432   1.977   2.760   0.465  0.2439 -1.0995  0.2750
  163TIP3    H2  433   2.000   2.744   0.614 -1.2160  2.3335  0.9771
  164TIP3   OH2  434   5.521   6.616   5.122 -0.6180 -0.3392 -0.2354
  164TIP3    H1  435   5.545   6.550   5.187  0.2675  0.4089  0.2137
  164TIP3    H2  436   5.467   6.679   5.171 -2.6652 -1.4121 -0.9754
  165TIP3   OH2  437   5.966   3.716   4.609  0.0418  0.2901 -0.0105
  165TIP3    H1  438   5.945   3.639   4.556  2.7867 -1.6845  1.4742
  165TIP3    H2  439   6.007   3.777   4.549 -0.1731 -0.3617 -0.8312
  166TIP3   OH2  440   1.434   0.606   5.721 -0.4782 -0.1486  0.3355
  166TIP3    H1  441   1.524   0.598   5.692 -0.0968  0.0144  1.4160
  166TIP3    H2  442   1.438   0.668   5.794 -1.4768 -0.0611  0.3337
  167TIP3   OH2  443   6.638   4.803   5.204  0.6825  0.1696  0.0929
  167TIP3    H1  444   6.703   4.752   5.156 -0.2922 -0.1134 -0.9939
  167TIP3    H2  445   6.554   4.779   5.163 -0.1221  0.4126  1.5374
  168TIP3   OH2  446   7.344   3.971   1.091 -0.5971  0.5105 -0.1951
  168TIP3    H1  447   7.274   4.004   1.034  0.2023  0.5320 -1.2000
  168TIP3    H2  448   7.351   3.878   1.068 -0.2066  0.5390 -0.1905
  169TIP3   OH2  449   7.049   5.449   4.517 -0.3914 -0.7615 -0.0235
  169TIP3    H1  450   6.961   5.444   4.555 -0.2911  1.3243  0.5710
  169TIP3    H2  451   7.034   5.457   4.423 -0.8531  0.0094  0.1156
  170TIP3   OH2  452   6.755   3.669   2.232  0.1534  0.4671 -0.4545
  170TIP3    H1  453   6.723   3.584   2.261  0.4657  0.3617 -0.4188
  170TIP3    H2  454   6.677   3.714   2.198 -0.3886  0.9419  1.3384
  171TIP3   OH2  455   8.248   4.133   0.621 -0.1336  0.6159  0.5630
  171TIP3    H1  456   8.335   4.095   0.634  0.1969  0.6876 -1.2835
  171TIP3    H2  457   8.187   4.064   0.648  0.4808  0.1632  0.8157
  172TIP3   OH2  458   1.996   1.212   4.053 -0.4766 -0.2190 -0.3276
  172TIP3    H1  459   1.914   1.163   4.052 -1.1097  0.7949 -1.3673
  172TIP3    H2  460   1.975   1.295   4.011  0.7322  0.6678  0.7050
  173TIP3   OH2  461   5.473   5.185   3.179 -0.0106  0.5413 -0.0745
  173TIP3    H1  462   5.462   5.126   3.104  1.2855  1.1813 -0.8006
  173TIP3    H2  463   5.567   5.203   3.181 -0.3120  2.1629  0.4664
  174TIP3   OH2  464   6.706   7.595   2.351  0.2309 -0.4819 -0.2119
  174TIP3    H1  465   6.760   7.528   2.393 -0.1547 -1.4564 -1.2052
  174TIP3    H2  466   6.668   7.550   2.275 -1.0399  0.5214 -0.1906
  175TIP3   OH2  467   0.843   7.594   2.148 -0.3703 -0.3264 -0.3222
  175TIP3    H1  468   0.862   7.688   2.144  0.0463 -0.3682  0.4158
  175TIP3    H2  469   0.750   7.588   2.167 -0.4250 -0.0611 -0.5160
  176TIP3   OH2  470   3.105   1.622   4.354 -0.1430  0.1262 -0.6486
  176TIP3    H1  471   3.144   1.676   4.423 -1.0532 -1.6144  1.3411
  176TIP3    H2  472   3.033   1.675   4.320 -0.0394  0.7950  0.1415
  177TIP3   OH2  473   4.797   2.282   6.665 -0.0099 -0.2411  0.1430
  177TIP3    H1  474   4.812   2.241   6.750  1.1257  1.2304  0.6906
  177TIP3    H2  475   4.703   2.299   6.662 -0.1168 -0.6399  0.9429
  178TIP3   OH2  476   4.373   3.943   6.134 -0.0365 -0.4192 -0.4707
  178TIP3    H1  477   4.347   3.871   6.191  0.9093  0.0013  0.4996
  178TIP3    H2  478   4.447   3.984   6.178 -0.4827  1.0847 -1.0574
  179TIP3   OH2  479   6.055   0.253   1.202 -0.0188  0.3483  0.3776
  179TIP3    H1  480   5.988   0.194   1.166  0.4545  0.3868 -0.6116
  179TIP3    H2  481   6.016   0.288   1.282 -0.4322 -1.0672  0.8220
  180TIP3   OH2  482   2.932   5.167   4.511  0.4022  0.2542  0.0424
  180TIP3    H1  483   2.967   5.255   4.499  1.9480 -0.5482 -1.8706
  180TIP3    H2  484   2.945   5.149   4.604 -0.1474  2.0914  0.5315
  181TIP3   OH2  485   1.006   6.875   4.061  0.3723 -0.2723  0.1091
  181TIP3    H1  486   1.071   6.811   4.031 -1.1852 -1.6211 -0.5343
  181TIP3    H2  487   0.954   6.895   3.983  0.7520  1.7426  0.3241
  182TIP3   OH2  488   7.976   5.723   3.993 -0.5251 -0.5414  0.1003
  182TIP3    H1  489   7.993   5.698   3.901  1.9790  1.3517 -0.0452
  182TIP3    H2  490   7.934   5.808   3.987  1.0951  0.3277  0.6898
  183TIP3   OH2  491   4.816   3.679   2.024  0.0953  0.5509  0.3991
  183TIP3    H1  492   4.831   3.774   2.031  2.2616  0.1560  2.5291
  183TIP3    H2  493   4.857   3.655   1.941 -0.2666  1.4342 -0.0503
  184TIP3   OH2  494   1.348   7.002   2.517  0.4535 -0.3317 -0.2657
  184TIP3    H1  495   1.411   6.980   2.586 -0.1447 -1.2797 -0.0117
  184TIP3    H2  496   1.401   7.048   2.451  1.4087 -1.0987 -0.0606
  185TIP3   OH2  497   4.752   2.088   4.472 -0.1922  0.0031  0.2045
  185TIP3    H1  498   4.689   2.030   4.429 -2.6667  2.7974 -0.3247
  185TIP3    H2  499   4.794   2.135   4.400  0.1934  0.3660  0.6607
  186TIP3   OH2  500   5.915   6.910   5.333 -0.1845  0.0639  0.2443
  186TIP3    H1  501   5.931   6.830   5.383 -0.6599 -0.7491 -0.8601
  186TIP3    H2  502   5.971   6.976   5.374  1.8859 -1.3669 -0.1879
  187TIP3   OH2  503   4.159   2.471   4.363  0.4753  0.3119  0.4036
  187TIP3    H1  504   4.180   2.549   4.414 -0.3979 -0.1375  1.4834
  187TIP3    H2  505   4.236   2.414   4.375 -0.4085 -0.5361  2.7755
  188TIP3   OH2  506   7.839   4.588   5.803  0.7220 -0.3373 -0.2890
  188TIP3    H1  507   7.914   4.603   5.861 -0.9262  1.6848  1.4883
  188TIP3    H2  508   7.797   4.674   5.796 -0.1124 -0.8812 -3.1960
  189TIP3   OH2  509   7.497  -0.007   3.665  0.3709  0.2586 -0.3451
  189TIP3    H1  510   7.463   0.032   3.746 -0.0369 -0.5455 -0.1139
  189TIP3    H2  511   7.524   0.068   3.612  0.3627  0.8116  0.4134
  190TIP3   OH2  512   7.476   4.911   5.527 -0.2166  0.6597  0.3152
  190TIP3    H1  513   7.441   4.975   5.589  0.7222  0.9658  0.5319
  190TIP3    H2  514   7.566   4.896   5.555 -0.5057 -1.0001  0.4573
  191TIP3   OH2  515   6.250   5.091   6.150 -0.2115 -0.2065  0.4645
  191TIP3    H1  516   6.236   5.181   6.122 -1.0301 -0.1164  1.1525
  191TIP3    H2  517   6.344   5.076   6.135 -0.6963 -0.4564 -3.1550
  192TIP3   OH2  518   2.265   3.959   2.480 -0.1804 -0.2765  0.1229
  192TIP3    H1  519   2.290   3.885   2.425  0.2583  0.5943 -0.8952
  192TIP3    H2  520   2.345   3.984   2.525 -0.0682  0.2523 -0.3653
  193TIP3   OH2  521   5.003   1.827   1.300  0.0398 -0.0175  0.5712
  193TIP3    H1  522   4.909   1.812   1.307  0.4047 -3.3916 -0.0694
  193TIP3    H2  523   5.027   1.788   1.216  2.2637 -0.9410  1.5590
  194TIP3   OH2  524   2.350   6.170   2.896 -0.4084 -0.4009 -0.3030
  194TIP3    H1  525   2.416   6.194   2.831  2.1232 -2.5521  1.2496
  194TIP3    H2  526   2.382   6.206   2.979 -0.5825 -2.3420  0.6715
  195TIP3   OH2  527   4.187   5.760   2.244 -0.0106  0.6105 -0.3670
  195TIP3    H1  528   4.277   5.749   2.213 -0.3643  1.1987 -1.6760
  195TIP3    H2  529   4.169   5.853   2.232 -0.8707  0.4523 -0.3331
  196TIP3   OH2  530   3.257   7.238   0.934 -0.2570  0.1045  0.1943
  196TIP3    H1  531   3.329   7.246   0.871  0.1798  0.8000  0.7643
  196TIP3    H2  532   3.192   7.183   0.890 -0.7626  2.0209 -1.6117
  197TIP3   OH2  533   6.554   7.788   5.773  0.3035  0.2613  0.2725
  197TIP3    H1  534   6.487   7.720   5.766 -1.3910  1.9462 -1.0184
  197TIP3    H2  535   6.565   7.821   5.684  2.1408  0.7355  0.6336
  198TIP3   OH2  536   3.258   7.115   3.237  0.5766  0.5077 -0.4087
  198TIP3    H1  537   3.273   7.151   3.149 -2.5452  0.6188 -0.9940
  198TIP3    H2  538   3.283   7.023   3.229  0.4161  0.5351 -1.3833
  199TIP3   OH2  539   7.388   7.667   5.763 -0.1066  0.2701  0.4856
  199TIP3    H1  540   7.458   7.623   5.714 -0.7061 -1.6762  1.2796
  199TIP3    H2  541   7.412   7.657   5.855 -1.5938 -0.7739  0.7909
  200TIP3   OH2  542   4.340   0.820   5.403  0.0065 -1.0211 -0.3529
  200TIP3    H1  543   4.343   0.728   5.427 -2.5280 -1.2793 -0.7791
  200TIP3    H2  544   4.265   0.855   5.451 -0.0305  0.4399 -1.4103
  201TIP3   OH2  545   5.184   0.346   0.873  0.1658  0.3909  0.1222
  201TIP3    H1  546   5.271   0.311   0.892 -0.1695  0.6452  2.4849
  201TIP3    H2  547   5.151   0.290   0.802  2.0596  0.0377 -0.5432
  202TIP3   OH2  548   3.520   5.458   0.982  0.0104  0.1399  0.1932
  202TIP3    H1  549   3.509   5.499   1.068 -0.6475  0.1670  0.1012
  202TIP3    H2  550   3.484   5.370   0.992 -0.8831  0.4360 -0.2845
  203TIP3   OH2  551   4.006   1.500   6.331  0.4555  0.1855  0.1381
  203TIP3    H1  552   3.979   1.426   6.276 -1.4445  0.5052  0.6048
  203TIP3    H2  553   4.056   1.556   6.271  0.3612 -0.5684 -0.6753
  204TIP3   OH2  554   6.871   2.143   1.400 -0.3567 -0.2294 -0.5720
  204TIP3    H1  555   6.966   2.151   1.402 -0.4466  0.8976 -0.1045
  204TIP3    H2  556   6.839   2.231   1.378 -1.2893 -0.5457 -0.5439
  205TIP3   OH2  557   8.264   2.295   6.388 -0.2313 -0.0813 -0.8392
  205TIP3    H1  558   8.246   2.217   6.441 -0.5713 -0.2670 -1.2217
  205TIP3    H2  559   8.190   2.353   6.405  0.5598  0.6357  0.3012
  206TIP3   OH2  560   6.118   3.931   1.157 -0.4052 -0.0655 -0.8329
  206TIP3    H1  561   6.120   3.886   1.073 -0.1470 -0.8199 -0.4379
  206TIP3    H2  562   6.029   3.966   1.164 -0.3615  0.1857 -1.5099
  207TIP3   OH2  563   0.098   3.424   6.046 -0.4201  0.0551  0.0373
  207TIP3    H1  564   0.081   3.515   6.024  0.5169  0.2380  0.0329
  207TIP3    H2  565   0.109   3.423   6.141  0.9554  0.1920 -0.1100
  208TIP3   OH2  566   0.672   2.170   2.165 -0.4512  0.2189 -0.3147
  208TIP3    H1  567   0.670   2.156   2.260 -0.6968  0.6731 -0.2500
  208TIP3    H2  568   0.664   2.082   2.128 -1.1373  0.1016  0.0834
  209TIP3   OH2  569   4.673   4.243   4.131 -0.4515 -0.0810 -0.0601
  209TIP3    H1  570   4.690   4.211   4.043 -2.1703  1.5886 -1.0815
  209TIP3    H2  571   4.741   4.309   4.146  0.2149 -0.7950  0.1438
  210TIP3   OH2  572   0.643   0.275   2.247  0.0511  0.5006 -0.7809
  210TIP3    H1  573   0.637   0.266   2.342  0.7946 -0.1862 -0.7831
  210TIP3    H2  574   0.664   0.367   2.233 -0.8050  0.7696 -0.3235
  211TIP3   OH2  575   0.827   0.415   0.319  0.3950 -0.9392  0.0178
  211TIP3    H1  576   0.817   0.429   0.225 -0.2543 -0.0268  0.2073
  211TIP3    H2  577   0.744   0.445   0.356  0.4883 -1.6786  0.8461
  212TIP3   OH2  578   1.738   6.603   4.887  0.4774  0.4081  0.4057
  212TIP3    H1  579   1.778   6.654   4.958  2.1027 -2.7199  1.9154
  212TIP3    H2  580   1.781   6.634   4.808  1.1255  1.6197  1.2016
  213TIP3   OH2  581   4.647   3.861   6.276  0.1259  0.3229 -0.1506
  213TIP3    H1  582   4.644   3.949   6.313 -0.1029  0.6694 -0.9700
  213TIP3    H2  583   4.614   3.804   6.346 -0.0874  0.9336  0.2501
  214TIP3   OH2  584   3.953   5.253   3.389  0.0355  0.1207  0.1395
  214TIP3    H1  585   3.895   5.299   3.451 -0.0033  1.4407 -0.8326
  214TIP3    H2  586   4.017   5.319   3.363 -0.2562 -0.2413 -1.6124
  215TIP3   OH2  587   1.201   4.755   2.151  0.4352 -0.6829 -0.5403
  215TIP3    H1  588   1.193   4.836   2.201  2.2441 -0.3718 -0.6874
  215TIP3    H2  589   1.235   4.783   2.066  0.8894 -1.5692 -0.6603
  216TIP3   OH2  590   4.056   7.335   1.985 -0.2632 -0.4670 -0.1901
  216TIP3    H1  591   3.978   7.334   2.041 -1.0373  1.4335 -1.1258
  216TIP3    H2  592   4.034   7.277   1.912 -0.7205 -0.1324 -0.3229
  217TIP3   OH2  593   2.605   3.628   5.828  0.0891 -0.9549 -0.0699
  217TIP3    H1  594   2.689   3.626   5.782  0.4927 -2.1289  0.6683
  217TIP3    H2  595   2.613   3.700   5.890  0.1460 -0.4041 -0.6976
  218TIP3   OH2  596   5.828   3.031   6.435  0.4883 -0.1859 -0.2929
  218TIP3    H1  597   5.733   3.023   6.446  0.3682  0.2213 -0.9790
  218TIP3    H2  598   5.859   3.065   6.519 -0.3098  2.2192 -0.8882
  219TIP3   OH2  599   5.487   0.645   5.532 -0.3125  0.3548  0.3751
  219TIP3    H1  600   5.578   0.619   5.520 -0.3423  0.0332  0.8198
  219TIP3    H2  601   5.445   0.568   5.572 -1.6122 -0.8791 -3.0019
  220TIP3   OH2  602   1.161   2.898   4.594 -0.0358  0.2514  0.2806
  220TIP3    H1  603   1.216   2.925   4.520  1.2618 -0.5537  0.9077
  220TIP3    H2  604   1.217   2.911   4.671 -1.3998  1.2048  1.1645
  221TIP3   OH2  605   0.234   4.359   3.442 -0.5296  0.2899  0.3510
  221TIP3    H1  606   0.223   4.340   3.348  0.3587  1.2794  0.0344
  221TIP3    H2  607   0.295   4.292   3.473 -0.0963  0.5226  0.0112
  222TIP3   OH2  608   4.197   0.658   5.607 -0.4922 -0.0920  0.5653
  222TIP3    H1  609   4.214   0.571   5.642  1.0088 -1.0253 -2.1781
  222TIP3    H2  610   4.258   0.715   5.655  2.1491 -1.4733 -0.9150
  223TIP3   OH2  611   4.387   1.881   3.283  0.3292  0.1820  0.0956
  223TIP3    H1  612   4.304   1.912   3.246 -0.9583 -0.4182  2.3188
  223TIP3    H2  613   4.416   1.813   3.222 -0.1475  1.2390 -1.3636
  224TIP3   OH2  614   5.154   2.647   5.638  0.0960  0.1179 -0.6392
  224TIP3    H1  615   5.124   2.671   5.725 -0.8449 -1.6850 -0.4122
  224TIP3    H2  616   5.226   2.585   5.654 -0.7102 -0.9677 -1.0994
  225TIP3   OH2  617   7.483   2.235   2.646 -0.1654  0.2801  0.6617
  225TIP3    H1  618   7.439   2.308   2.690 -1.0788  0.8863 -1.1322
  225TIP3    H2  619   7.437   2.226   2.563  0.0325 -2.2653  0.7413
  226TIP3   OH2  620   8.077   0.108   2.042 -0.2702 -0.1367 -0.3800
  226TIP3    H1  621   8.164   0.072   2.058  0.6848  2.0332 -0.2787
  226TIP3    H2  622   8.059   0.162   2.119 -1.1303  0.4549 -0.9767
  227TIP3   OH2  623   0.391   4.325   1.748  0.4544 -0.6702 -0.0254
  227TIP3    H1  624   0.364   4.291   1.833  0.9862 -0.1489  0.3608
  227TIP3    H2  625   0.364   4.258   1.685  2.1349 -2.1967  0.7793
  228TIP3   OH2  626   0.667   1.094   6.602  0.5840 -0.4942  0.0597
  228TIP3    H1  627   0.723   1.141   6.539 -1.1986 -0.6510 -1.7548
  228TIP3    H2  628   0.626   1.164   6.653  1.9941 -0.3580  1.0451
  229TIP3   OH2  629   6.444   3.854   3.505 -0.8348 -0.4332  0.5790
  229TIP3    H1  630   6.468   3.808   3.586  1.9812 -0.1677  0.0184
  229TIP3    H2  631   6.393   3.929   3.534 -0.6073 -0.8086  2.0337
  230TIP3   OH2  632   0.725   4.190   6.499  0.1511 -0.6236  0.1398
  230TIP3    H1  633   0.684   4.271   6.528 -1.7223 -0.6090 -2.2140
  230TIP3    H2  634   0.805   4.218   6.454  0.1526 -0.1818  0.4169
  231TIP3   OH2  635   2.155   6.246   4.741  0.0806  0.0528  0.0492
  231TIP3    H1  636   2.213   6.321   4.753  0.8856 -0.2637 -1.6080
  231TIP3    H2  637   2.195   6.176   4.793 -0.2404  0.5351  0.9631
  232TIP3   OH2  638   1.307   3.968   5.964 -0.0540 -0.3903 -0.0315
  232TIP3    H1  639   1.315   3.876   5.938 -1.4469 -0.2919 -0.9134
  232TIP3    H2  640   1.334   4.017   5.886  2.3306  0.0257  0.9546
  233TIP3   OH2  641   1.394   2.333   2.952  0.0730  0.1671 -0.5850
  233TIP3    H1  642   1.442   2.303   2.875  3.3126 -0.0290  1.3207
  233TIP3    H2  643   1.462   2.351   3.017 -2.5036 -1.7511  2.9939
  234TIP3   OH2  644   7.493   6.879   6.592 -0.0302 -0.4462 -0.0027
  234TIP3    H1  645   7.579   6.911   6.618 -0.1201 -0.5236  0.3999
  234TIP3    H2  646   7.446   6.867   6.675  0.5403 -3.2379  0.0059
  235TIP3   OH2  647   5.257   0.317   5.809 -0.4071  0.1384 -0.0370
  235TIP3    H1  648   5.246   0.226   5.782 -0.2002 -0.2833  1.2407
  235TIP3    H2  649   5.347   0.323   5.842 -1.0010  0.2851  1.6863
  236TIP3   OH2  650   5.820   4.459   4.231 -0.0869 -0.4858 -0.2289
  236TIP3    H1  651   5.887   4.504   4.180 -2.4939 -0.9053 -4.2478
  236TIP3    H2  652   5.745   4.520   4.231 -1.1933 -1.7965  0.1154
  237TIP3   OH2  653   5.522   4.166   0.257  0.3100  0.2140  0.6741
  237TIP3    H1  654   5.433   4.199   0.274  0.1621  0.1155  0.1305
  237TIP3    H2  655   5.558   4.227   0.192 -0.8040 -1.8789 -2.1374
  238TIP3   OH2  656   7.628   4.159   3.035 -0.0388 -0.5189 -0.2739
  238TIP3    H1  657   7.675   4.087   3.078 -0.2697  0.0630  1.0053
  238TIP3    H2  658   7.541   4.124   3.018  0.4324 -1.1654 -1.4336
  239TIP3   OH2  659   5.788   2.731   5.756  0.7704  0.2144 -0.0748
  239TIP3    H1  660   5.838   2.695   5.683 -1.3988  0.1239 -1.6014
  239TIP3    H2  661   5.781   2.825   5.737  0.2138  0.1937  0.0052
  240TIP3   OH2  662   2.525   1.621   2.269 -0.8077 -0.6898  0.9234
  240TIP3    H1  663   2.491   1.655   2.186 -0.2031 -0.7355  0.6471
  240TIP3    H2  664   2.591   1.685   2.296 -0.5532 -0.9946  1.0392
  241TIP3   OH2  665   5.653   2.700   2.145  0.3672  0.0138  0.1542
  241TIP3    H1  666   5.654   2.645   2.222 -1.0062 -0.0656  0.1249
  241TIP3    H2  667   5.714   2.657   2.084  0.2354 -0.7972  0.5831
  242TIP3   OH2  668   2.719   5.949   4.338  0.3951  0.7555 -0.1554
  242TIP3    H1  669   2.725   5.854   4.342  0.5117  0.7909  0.6646
  242TIP3    H2  670   2.646   5.966   4.279 -1.0832  0.1201  1.3907
  243TIP3   OH2  671   4.954   6.707   1.330  0.7192  0.0829 -0.1515
  243TIP3    H1  672   5.021   6.650   1.293  0.9519  0.0054  0.3711
  243TIP3    H2  673   4.952   6.684   1.423  1.7705  1.8452  0.3527
  244TIP3   OH2  674   6.222   6.338   0.566  0.0706 -0.8154  0.1539
  244TIP3    H1  675   6.293   6.401   0.577  0.6454 -1.2579 -0.8393
  244TIP3    H2  676   6.201   6.309   0.655 -0.0481  0.5834  0.5982
  245TIP3   OH2  677   8.097   4.688   6.746  0.1857 -0.3543 -0.2260
  245TIP3    H1  678   8.142   4.659   6.826  0.5227 -0.4400 -0.4437
  245TIP3    H2  679   8.109   4.783   6.745 -2.3386  0.0756  1.3609
  246TIP3   OH2  680   7.350   7.204   2.197 -0.5803 -0.0913  0.0849
  246TIP3    H1  681   7.280   7.265   2.174 -1.3796 -0.3071  1.8027
  246TIP3    H2  682   7.427   7.259   2.209 -0.3024  0.1135 -2.1683
  247TIP3   OH2  683   5.954   7.658   3.647  0.6910  0.0364 -0.0886
  247TIP3    H1  684   5.863   7.655   3.679  0.6616 -2.4135 -0.2074
  247TIP3    H2  685   6.004   7.609   3.713  1.2088 -2.0473 -1.9023
  248TIP3   OH2  686   7.661   1.014   2.834  0.0478  0.2536 -0.0233
  248TIP3    H1  687   7.569   0.989   2.832  0.0243  0.2627  0.5409
  248TIP3    H2  688   7.674   1.045   2.924 -0.0066  2.5087 -0.7177
  249TIP3   OH2  689   6.451   6.836   5.162 -1.1750 -0.0742  0.1363
  249TIP3    H1  690   6.429   6.743   5.160 -1.4767  0.0083 -0.2964
  249TIP3    H2  691   6.454   6.858   5.256 -4.1458  0.2031  0.2431
  250TIP3   OH2  692   6.991   7.294   4.811 -0.1711 -0.3701  0.7231
  250TIP3    H1  693   7.083   7.270   4.817  0.0327  0.1474 -0.1288
  250TIP3    H2  694   6.979   7.319   4.719 -0.7147  1.3552  1.2262
  251TIP3   OH2  695   7.657   5.858   1.718 -0.2144 -0.4439  0.1710
  251TIP3    H1  696   7.641   5.765   1.705 -0.4702 -0.4418  0.4800
  251TIP3    H2  697   7.748   5.862   1.749 -0.4979 -0.6632  1.0513
  252TIP3   OH2  698   7.417   4.348   1.301  0.1639  0.1222  0.3696
  252TIP3    H1  699   7.430   4.323   1.210  0.5541 -0.8617  0.6802
  252TIP3    H2  700   7.369   4.431   1.297 -1.2996 -0.7169 -0.7276
  253TIP3   OH2  701   1.587   5.544   4.439 -0.5873  0.0199  0.5099
  253TIP3    H1  702   1.632   5.495   4.370 -1.1108  0.2529 -0.0071
  253TIP3    H2  703   1.579   5.482   4.511 -2.3874 -1.1177 -0.5832
  254TIP3   OH2  704   0.127   6.816   0.494  0.1815 -0.2678  0.0547
  254TIP3    H1  705   0.176   6.897   0.505  0.8426 -0.6170 -0.1963
  254TIP3    H2  706   0.035   6.841   0.499  0.2523  0.9614 -2.7713
  255TIP3   OH2  707   2.825   6.442   2.531 -0.1234 -0.8591  0.5054
  255TIP3    H1  708   2.868   6.526   2.548  0.5349 -0.6739 -1.7420
  255TIP3    H2  709   2.738   6.451   2.570  0.2778  0.4686  1.1764
  256TIP3   OH2  710   3.820   6.569   6.635 -0.2160 -0.4107  0.3230
  256TIP3    H1  711   3.804   6.504   6.704  2.1945 -2.2170 -0.7085
  256TIP3    H2  712   3.738   6.570   6.585 -0.5684 -2.1350  0.7880
  257TIP3   OH2  713   5.087   3.742   5.683  0.3700  0.1455 -0.1571
  257TIP3    H1  714   4.999   3.780   5.692  0.0882 -0.7341  1.1747
  257TIP3    H2  715   5.071   3.651   5.659  0.9218 -0.0021  0.0194
  258TIP3   OH2  716   7.685   1.448   6.345  0.2903 -0.1438 -0.2144
  258TIP3    H1  717   7.774   1.412   6.342  1.4714  2.2917  1.6909
  258TIP3    H2  718   7.693   1.536   6.307 -1.1055  0.4189  0.7121
  259TIP3   OH2  719   6.924   6.074   4.859 -0.1757 -0.4308 -0.0870
  259TIP3    H1  720   6.884   5.988   4.867 -2.1890  0.4602  0.0999
  259TIP3    H2  721   6.877   6.128   4.923 -1.4642  1.6228 -2.5817
  260TIP3   OH2  722   0.451   1.001   4.211 -0.0871 -0.0956  0.4006
  260TIP3    H1  723   0.454   0.967   4.301 -0.6396  0.7848  0.7627
  260TIP3    H2  724   0.507   1.078   4.213  2.6915 -1.9163 -0.8751
  261TIP3   OH2  725   3.174   6.167   6.188 -0.3639 -0.2092  0.3029
  261TIP3    H1  726   3.205   6.101   6.125  0.3923 -0.2923  0.7508
  261TIP3    H2  727   3.104   6.213   6.141  0.8592  0.4143 -1.0025
  262TIP3   OH2  728   5.091   3.651   4.889 -0.2188  0.1033 -0.1468
  262TIP3    H1  729   5.154   3.639   4.818 -2.7759 -0.3919 -2.5141
  262TIP3    H2  730   5.093   3.745   4.906  1.3965  0.0447  0.1172
  263TIP3   OH2  731   5.611   4.150   2.842  0.0387 -0.4029 -0.1668
  263TIP3    H1  732   5.588   4.104   2.761 -1.6710 -0.3054  0.2188
  263TIP3    H2  733   5.577   4.238   2.829 -0.9920 -0.6081  0.9513
  264TIP3   OH2  734   2.500   5.437   6.061 -0.3809  0.0646 -0.0087
  264TIP3    H1  735   2.513   5.370   5.993  1.8073  1.4677 -1.1130
  264TIP3    H2  736   2.469   5.514   6.013  1.8384  1.2898  0.3528
  265TIP3   OH2  737   5.437   2.139   6.061 -0.1765 -0.4407 -0.1181
  265TIP3    H1  738   5.483   2.079   6.002 -0.5952 -1.0831  0.1987
  265TIP3    H2  739   5.495   2.146   6.137  0.1035 -0.0466 -0.3625
  266TIP3   OH2  740   1.666   2.523   4.930  0.0079  0.2745  0.2122
  266TIP3    H1  741   1.727   2.522   4.856 -0.4998  1.9553 -0.2887
  266TIP3    H2  742   1.717   2.490   5.004  0.5954 -1.2251 -0.8152
  267TIP3   OH2  743   8.055   4.917   5.991 -0.3888 -0.1561 -0.1041
  267TIP3    H1  744   8.106   4.836   5.988 -1.0600 -0.5972  0.0771
  267TIP3    H2  745   8.117   4.984   6.020 -0.2757 -0.9762  1.6562
  268TIP3   OH2  746   7.556   3.245   1.584  0.8960 -0.5916  0.3727
  268TIP3    H1  747   7.520   3.157   1.596  0.8951 -0.5062  1.0821
  268TIP3    H2  748   7.522   3.294   1.659  1.0517 -0.0375  0.0819
  269TIP3   OH2  749   5.168   1.756   4.445 -0.1204 -0.3053  0.0332
  269TIP3    H1  750   5.161   1.848   4.421  1.7884  0.4546  2.1337
  269TIP3    H2  751   5.130   1.751   4.533  2.3901 -0.8707  1.1669
  270TIP3   OH2  752   3.260   2.260   5.652 -0.0691  0.4231  0.0138
  270TIP3    H1  753   3.341   2.244   5.605 -0.2901  0.1696 -0.2885
  270TIP3    H2  754   3.287   2.284   5.741  0.3193 -0.4653  0.1465
  271TIP3   OH2  755   4.549   3.660   5.703  0.5757  0.0925  0.1993
  271TIP3    H1  756   4.471   3.696   5.746  0.9080  0.5212  0.4521
  271TIP3    H2  757   4.559   3.572   5.740  0.2641  0.0719  0.2340
  272TIP3   OH2  758   3.361   7.793   6.629 -0.0934 -0.4923 -0.8270
  272TIP3    H1  759   3.392   7.709   6.661 -3.3139 -1.1069  1.2119
  272TIP3    H2  760   3.344   7.779   6.536  0.4722 -1.7534 -0.7532
  273TIP3   OH2  761   7.728   3.282   3.812 -0.1394 -0.8301 -0.0038
  273TIP3    H1  762   7.820   3.308   3.810 -0.3444 -0.1209 -0.7128
  273TIP3    H2  763   7.701   3.295   3.903 -0.0224  0.7142 -0.1749
  274TIP3   OH2  764   1.613   0.692   5.243 -0.8966 -0.1419 -0.2438
  274TIP3    H1  765   1.584   0.782   5.259  1.8734  0.5133  1.8633
  274TIP3    H2  766   1.565   0.640   5.306 -1.6397  0.0201 -0.6647
  275TIP3   OH2  767   5.672   4.972   6.302 -0.3782  0.1867 -0.4603
  275TIP3    H1  768   5.585   4.932   6.299 -0.7141  0.6360  1.8321
  275TIP3    H2  769   5.732   4.897   6.303 -0.9650 -0.3746  2.7771
  276TIP3   OH2  770   3.143   5.010   0.438  0.7376 -0.5186  0.2229
  276TIP3    H1  771   3.067   4.965   0.474  0.6979 -0.8412 -0.2552
  276TIP3    H2  772   3.171   5.070   0.507  0.5737 -1.0180  0.7294
  277TIP3   OH2  773   3.088   5.825   6.445 -0.0863 -0.1044 -0.5002
  277TIP3    H1  774   3.054   5.860   6.363  0.3122  0.0493 -0.6021
  277TIP3    H2  775   3.183   5.827   6.434 -0.0437 -1.7487 -0.7427
  278TIP3   OH2  776   0.599   3.926   4.076 -0.7246  0.1080 -0.2551
  278TIP3    H1  777   0.507   3.900   4.085 -0.2448 -1.7257 -0.2576
  278TIP3    H2  778   0.636   3.864   4.014  0.6007  0.6192 -0.0155
  279TIP3   OH2  779   5.078   1.928   0.501  0.4956  0.5070 -0.4298
  279TIP3    H1  780   5.039   1.894   0.421  1.9004  0.9787 -1.3504
  279TIP3    H2  781   5.003   1.958   0.553 -0.3713  1.7665 -2.3000
  280TIP3   OH2  782   4.869   6.213   4.120  0.1303 -0.1976 -0.2123
  280TIP3    H1  783   4.897   6.303   4.132  2.0872 -0.7526 -0.3565
  280TIP3    H2  784   4.950   6.162   4.113 -0.9088 -1.9615 -0.2385
  281TIP3   OH2  785   0.763   5.624   4.523 -0.2261  0.3803 -0.2636
  281TIP3    H1  786   0.688   5.633   4.582 -0.9848 -0.9223 -0.9731
  281TIP3    H2  787   0.817   5.700   4.541 -2.0821  1.7685 -0.2329
  282TIP3   OH2  788   5.041   6.971   3.055 -0.1121  0.7281 -0.8412
  282TIP3    H1  789   5.063   7.047   3.001 -0.8117  1.3402 -0.2858
  282TIP3    H2  790   4.948   6.984   3.076 -0.1014 -0.0307 -0.3376
  283TIP3   OH2  791   3.742   4.298   5.154  0.0668 -0.0060  0.2015
  283TIP3    H1  792   3.783   4.367   5.101  4.3611 -2.8334 -0.6337
  283TIP3    H2  793   3.724   4.341   5.238  0.5389  2.6116 -0.9148
  284TIP3   OH2  794   6.239   4.279   0.494  0.1119 -0.1141 -0.0093
  284TIP3    H1  795   6.303   4.304   0.427 -0.5844  0.4457 -0.4702
  284TIP3    H2  796   6.214   4.362   0.535  0.5273 -0.4524  0.9446
  285TIP3   OH2  797   3.961   2.751   0.121 -0.5796 -0.0288 -0.0394
  285TIP3    H1  798   3.912   2.812   0.176  1.2268  0.5531  1.0325
  285TIP3    H2  799   4.010   2.808   0.061 -1.8035 -0.6210 -1.6800
  286TIP3   OH2  800   1.061   5.353   2.291 -0.1695 -0.2016  0.5141
  286TIP3    H1  801   1.029   5.443   2.298  0.4381 -0.0307  1.1869
  286TIP3    H2  802   0.987   5.304   2.255 -0.5345  0.5481  0.2232
  287TIP3   OH2  803   6.650   3.418   3.186  0.5836  0.2602  0.2459
  287TIP3    H1  804   6.635   3.496   3.132 -0.4095 -0.3256 -0.3500
  287TIP3    H2  805   6.615   3.346   3.134  0.7772 -0.4938  1.1330
  288TIP3   OH2  806   4.232   2.353   6.307  0.5094  0.1482 -0.4396
  288TIP3    H1  807   4.204   2.438   6.271 -2.4664 -1.4873 -2.4241
  288TIP3    H2  808   4.242   2.369   6.401 -0.8069  2.5112 -0.6141
  289TIP3   OH2  809   4.104   4.757   3.233 -0.4286 -0.1868 -0.3604
  289TIP3    H1  810   4.193   4.784   3.258 -0.5278 -1.3362  1.3962
  289TIP3    H2  811   4.061   4.839   3.208  0.3150  0.8295  1.4541
  290TIP3   OH2  812   5.176   5.323   5.838 -0.2597  0.2301 -0.1714
  290TIP3    H1  813   5.245   5.289   5.781 -0.3672  1.6826 -1.2241
  290TIP3    H2  814   5.128   5.245   5.866  1.6978 -0.8078  0.4791
  291TIP3   OH2  815   2.205   0.249   4.940  0.1813 -0.4536 -0.3637
  291TIP3    H1  816   2.293   0.210   4.947 -0.1667 -1.2284 -0.1793
  291TIP3    H2  817   2.159   0.217   5.017  0.4449  1.8842  0.8333
  292TIP3   OH2  818   0.983   6.022   1.881  0.3714 -0.0726 -0.6169
  292TIP3    H1  819   0.994   6.026   1.786  0.1431 -3.3346 -0.8866
  292TIP3    H2  820   1.048   5.959   1.910  0.1594  0.5698  1.3757
  293TIP3   OH2  821   6.780   2.918   1.566 -0.1424 -0.3927  0.3170
  293TIP3    H1  822   6.688   2.941   1.555 -0.4166 -0.9339  1.3538
  293TIP3    H2  823   6.822   3.000   1.592 -0.5226 -0.3712  0.8677
  294TIP3   OH2  824   7.263   0.931   0.340  0.1887  0.1043  0.5363
  294TIP3    H1  825   7.256   1.004   0.279 -0.4347 -0.7884 -0.5088
  294TIP3    H2  826   7.217   0.960   0.418  1.0602  1.2988  0.6297
  295TIP3   OH2  827   7.599   2.201   6.681 -0.2040  0.2674 -0.3515
  295TIP3    H1  828   7.531   2.142   6.714 -0.1081  0.2015 -0.2748
  295TIP3    H2  829   7.556   2.248   6.609  0.1232 -0.8401 -1.3028
  296TIP3   OH2  830   6.097   7.745   1.439  0.2988 -0.9638  0.3862
  296TIP3    H1  831   6.061   7.678   1.497 -0.6931 -0.6125  0.1985
  296TIP3    H2  832   6.140   7.695   1.369  1.5666 -1.3885  1.4404
  297TIP3   OH2  833   6.131   4.805   5.644 -0.6590 -0.5313 -0.9138
  297TIP3    H1  834   6.190   4.878   5.660 -0.2330 -1.0362 -0.1265
  297TIP3    H2  835   6.151   4.742   5.713 -2.7690 -0.3172 -0.0262
  298TIP3   OH2  836   4.228   7.385   0.418 -0.0657  0.3967  0.2112
  298TIP3    H1  837   4.294   7.416   0.480  0.4923 -0.1645 -0.0856
  298TIP3    H2  838   4.150   7.437   0.437  1.3425  3.3424 -1.5537
  299TIP3   OH2  839   1.662   3.765   0.799  0.1148  0.5365 -0.4293
  299TIP3    H1  840   1.617   3.777   0.883 -0.0958  2.7200 -0.7931
  299TIP3    H2  841   1.713   3.845   0.787  1.6985 -0.5677 -1.4993
  300TIP3   OH2  842   5.435   1.005   1.519  0.0728 -0.0043 -0.2952
  300TIP3    H1  843   5.350   1.009   1.476  0.1863 -0.1154 -0.5362
  300TIP3    H2  844   5.464   0.914   1.507 -0.3071 -0.2838  0.8374
  301TIP3   OH2  845   6.926   4.146   6.552  0.3223  0.0801  0.9701
  301TIP3    H1  846   6.930   4.107   6.465 -0.6996  1.5171  0.2356
  301TIP3    H2  847   6.881   4.081   6.606  1.3563 -1.0100  0.5668
  302TIP3   OH2  848   0.923   5.988   3.558  0.3063  0.4314  0.4958
  302TIP3    H1  849   0.962   5.988   3.646  0.5466  0.9199  0.3970
  302TIP3    H2  850   0.900   6.080   3.543 -0.5906  0.1994  0.4162
  303TIP3   OH2  851   4.405   6.281   5.117  0.3048  0.6496 -0.0096
  303TIP3    H1  852   4.492   6.281   5.078  0.2888 -1.1523 -0.1607
  303TIP3    H2  853   4.363   6.203   5.080 -0.8293  0.6506  1.2122
  304TIP3   OH2  854   5.591   1.705   4.215 -0.5274 -0.2315  0.1919
  304TIP3    H1  855   5.543   1.689   4.296 -0.1795 -0.2297  0.3994
  304TIP3    H2  856   5.671   1.750   4.243 -0.3401 -0.3590 -0.1367
  305TIP3   OH2  857   6.256   4.084   0.924 -0.0134  0.0782 -0.0414
  305TIP3    H1  858   6.302   4.000   0.929 -2.7277 -1.4532  1.9258
  305TIP3    H2  859   6.196   4.074   0.850 -1.2014 -0.2783  0.9314
  306TIP3   OH2  860   1.489   1.173   0.214 -0.1831 -0.8589  0.2015
  306TIP3    H1  861   1.518   1.235   0.147 -0.1066  0.1555  1.1587
  306TIP3    H2  862   1.395   1.187   0.221 -0.1190 -0.6422  0.6313
  307TIP3   OH2  863   2.958   1.502   1.022  0.2887  0.1666 -0.0206
  307TIP3    H1  864   3.040   1.465   1.054  1.3803  0.5031 -2.2206
  307TIP3    H2  865   2.902   1.426   1.004 -0.4947 -0.0209  2.8058
  308TIP3   OH2  866   8.192   3.493   4.549  0.3507 -0.6462  0.2295
  308TIP3    H1  867   8.157   3.430   4.486 -0.8864  1.8661 -1.8003
  308TIP3    H2  868   8.114   3.538   4.583  1.2299  2.0509 -1.0162
  309TIP3   OH2  869   5.608   0.182   3.994 -0.6870  0.0310 -0.5176
  309TIP3    H1  870   5.519   0.207   3.968 -1.0105 -1.1693 -0.5980
  309TIP3    H2  871   5.610   0.196   4.089 -0.8563  0.3449 -0.5579
  310TIP3   OH2  872   4.400   5.614   3.282  0.1628 -0.1558 -0.1632
  310TIP3    H1  873   4.372   5.562   3.358 -0.2532  1.6489  0.9811
  310TIP3    H2  874   4.319   5.646   3.243  0.4309  0.7801  0.0130
  311TIP3   OH2  875   5.332   6.402   5.517  0.1983  0.4856  0.2539
  311TIP3    H1  876   5.346   6.310   5.537  2.3692  1.0883  1.9658
  311TIP3    H2  877   5.370   6.415   5.430 -2.5683 -0.6848 -1.2502
  312TIP3   OH2  878   7.449   2.625   0.383 -0.6875 -0.5422 -0.4657
  312TIP3    H1  879   7.492   2.541   0.371  1.5307  0.2592  1.1341
  312TIP3    H2  880   7.410   2.619   0.471  0.5553  0.4608  0.1910
  313TIP3   OH2  881   8.024   0.955   6.031  0.2557 -0.0227  0.5206
  313TIP3    H1  882   7.985   0.997   6.108  0.1042  0.1501  0.3492
  313TIP3    H2  883   7.984   0.999   5.956 -0.1116 -0.6601  0.3344
  314TIP3   OH2  884   8.216   3.916   2.643 -0.1531  0.1960 -0.6002
  314TIP3    H1  885   8.253   4.003   2.630  0.5269 -0.0413 -0.2796
  314TIP3    H2  886   8.265   3.860   2.583  0.4616 -0.2381  0.2894
  315TIP3   OH2  887   7.992   7.059   4.267  0.1708  0.0669 -0.0952
  315TIP3    H1  888   7.923   7.125   4.277  0.7175  0.7268 -0.5921
  315TIP3    H2  889   8.073   7.108   4.280  0.6519 -0.2370 -1.7650
  316TIP3   OH2  890   5.223   4.490   6.221  0.2133  0.1229  0.2211
  316TIP3    H1  891   5.263   4.485   6.308 -1.1745  1.1287  0.9625
  316TIP3    H2  892   5.230   4.402   6.186  1.7892 -0.0389  0.8913
  317TIP3   OH2  893   0.660   1.332   1.475 -0.3380 -0.0515  0.2301
  317TIP3    H1  894   0.727   1.302   1.413 -0.9099 -1.2020  0.1471
  317TIP3    H2  895   0.676   1.427   1.483  0.6159 -0.1209 -0.5994
  318TIP3   OH2  896   1.091   5.863   4.980 -0.5371 -0.1797 -0.5328
  318TIP3    H1  897   1.093   5.916   4.901 -2.6056 -1.1768 -1.3345
  318TIP3    H2  898   1.180   5.868   5.015 -0.2068  2.2734 -1.5525
  319TIP3   OH2  899   3.512   2.579   4.115 -0.0887 -0.5738  0.5972
  319TIP3    H1  900   3.417   2.591   4.108  0.2508  2.1816 -0.2070
  319TIP3    H2  901   3.534   2.518   4.045 -1.2574 -1.5242  1.0122
  320TIP3   OH2  902   4.796   4.178   5.300  0.4350 -0.3190  0.1912
  320TIP3    H1  903   4.748   4.102   5.332  0.8501  0.0187  1.6647
  320TIP3    H2  904   4.729   4.246   5.289  0.4837  0.0432  1.9022
  321TIP3   OH2  905   7.930   4.218   3.770  0.0281 -0.3250 -0.3155
  321TIP3    H1  906   7.896   4.296   3.814 -0.1820 -0.2735 -0.5666
  321TIP3    H2  907   7.992   4.180   3.833  1.4248  0.9634 -0.8625
  322TIP3   OH2  908   0.956   7.109   3.796 -0.0005  0.0989  0.0421
  322TIP3    H1  909   0.909   7.136   3.717  1.1368  1.3937 -0.2471
  322TIP3    H2  910   1.008   7.034   3.769 -0.5198 -0.2098 -0.1103
  323TIP3   OH2  911   4.109   4.041   3.700 -0.1254 -0.3920  0.5437
  323TIP3    H1  912   4.037   4.099   3.674 -0.4524 -1.1520 -0.3280
  323TIP3    H2  913   4.066   3.971   3.749  0.2133 -0.1296  1.2283
  324TIP3   OH2  914   0.910   4.134   5.774 -0.3942  0.3013 -0.5669
  324TIP3    H1  915   0.873   4.098   5.855  0.1934 -2.6276 -1.4710
  324TIP3    H2  916   0.963   4.209   5.803  0.2561 -0.9770  1.8514
  325TIP3   OH2  917   5.765   7.009   0.370  0.2296 -0.0712 -0.2470
  325TIP3    H1  918   5.858   7.007   0.348  0.2240  2.8919 -0.9397
  325TIP3    H2  919   5.721   7.034   0.288 -0.8333  1.4248  0.7091
  326TIP3   OH2  920   4.719   3.066   5.409  0.4799  0.3580  0.3010
  326TIP3    H1  921   4.658   2.998   5.438  0.1767  0.2052 -0.6518
  326TIP3    H2  922   4.667   3.146   5.408 -0.5556 -0.1898 -3.0332
  327TIP3   OH2  923   5.111   6.425   1.028 -0.1420 -0.8265  0.0271
  327TIP3    H1  924   5.152   6.431   1.115  0.3474  0.9154 -0.2778
  327TIP3    H2  925   5.076   6.513   1.012 -0.4907 -1.1980 -1.4251
  328TIP3   OH2  926   3.795   6.444   2.442 -0.2024  0.3163  0.5429
  328TIP3    H1  927   3.738   6.442   2.365 -0.3610  0.4081  0.6580
  328TIP3    H2  928   3.878   6.479   2.409 -0.6676  1.6089  0.6646
  329TIP3   OH2  929   7.521   1.657   5.483 -0.0719 -0.6899  0.2983
  329TIP3    H1  930   7.540   1.566   5.463 -1.1025 -0.4698 -1.9908
  329TIP3    H2  931   7.544   1.704   5.402  0.0062  1.0188  1.2721
  330TIP3   OH2  932   0.701   5.662   2.543  0.1254 -0.1345  0.4643
  330TIP3    H1  933   0.726   5.589   2.600 -0.9041 -1.4108 -0.6462
  330TIP3    H2  934   0.685   5.735   2.604 -0.2995 -1.2581  1.7601
  331TIP3   OH2  935   7.277   2.001   0.133  0.1971  0.1043 -0.2137
  331TIP3    H1  936   7.207   2.062   0.157  1.3482  1.3391  0.1571
  331TIP3    H2  937   7.338   2.055   0.081 -0.3838 -1.5667 -2.8076
  332TIP3   OH2  938   7.320   7.123   5.243  0.0093  0.2040  0.4865
  332TIP3    H1  939   7.245   7.065   5.256 -0.5286  0.8062  0.1516
  332TIP3    H2  940   7.379   7.103   5.316  0.1809 -1.2584 -0.0138
  333TIP3   OH2  941   3.836   6.511   2.762  0.3021 -0.2859  0.1155
  333TIP3    H1  942   3.777   6.512   2.687 -1.0864  1.9913  1.1371
  333TIP3    H2  943   3.870   6.600   2.768  1.4755 -0.7727  1.3824
  334TIP3   OH2  944   2.586   7.689   3.226 -0.4392 -0.1123  0.1749
  334TIP3    H1  945   2.672   7.675   3.265 -0.2121  1.1274  0.1405
  334TIP3    H2  946   2.527   7.636   3.279  0.3200 -0.8996  0.2594
  335TIP3   OH2  947   4.706   1.257   2.893  0.1416  0.4250  0.5717
  335TIP3    H1  948   4.740   1.228   2.808 -1.2061 -1.6961  0.6876
  335TIP3    H2  949   4.614   1.275   2.877 -0.1221  0.0189  1.5821
  336TIP3   OH2  950   4.010   0.225   5.884  0.0743  0.3638 -0.6155
  336TIP3    H1  951   4.022   0.136   5.916 -0.5727  0.5911  0.3055
  336TIP3    H2  952   4.084   0.240   5.826  0.7414 -0.4149  0.0182
  337TIP3   OH2  953   7.612   2.057   4.173  0.1955  0.0377 -0.2618
  337TIP3    H1  954   7.598   1.962   4.175 -0.0923  0.0830  0.3931
  337TIP3    H2  955   7.699   2.069   4.209  0.4813 -0.0165 -0.9327
  338TIP3   OH2  956   1.411   5.103   0.348  0.0753  0.1208  0.1331
  338TIP3    H1  957   1.320   5.118   0.323 -0.3871 -0.5249  1.3352
  338TIP3    H2  958   1.415   5.010   0.369  0.9032  0.2280  0.5033
  339TIP3   OH2  959   2.125   1.854   0.890  0.8871 -0.1365 -0.4874
  339TIP3    H1  960   2.072   1.829   0.965  0.1600  0.2839 -0.8558
  339TIP3    H2  961   2.064   1.896   0.830  1.9502  2.2249 -0.0574
  340TIP3   OH2  962   5.196   3.425   0.838 -0.3859 -0.5009  0.2677
  340TIP3    H1  963   5.186   3.337   0.801 -1.0425 -0.3178 -0.0099
  340TIP3    H2  964   5.277   3.459   0.799 -0.1984 -0.9345  0.2767
  341TIP3   OH2  965   4.483   5.248   6.556 -0.1565  0.7626 -0.0706
  341TIP3    H1  966   4.479   5.335   6.516  0.8601  0.2214 -1.4468
  341TIP3    H2  967   4.392   5.224   6.572 -0.4866  1.7683 -0.3886
  342TIP3   OH2  968   3.524   0.426   0.111 -0.7577  0.1102 -0.2578
  342TIP3    H1  969   3.474   0.370   0.052  0.0985  0.2335 -1.1319
  342TIP3    H2  970   3.583   0.475   0.054 -1.3541  1.7962  0.4916
  343TIP3   OH2  971   3.674   3.088   2.584 -0.4336 -0.3463 -0.1094
  343TIP3    H1  972   3.628   3.144   2.520 -0.3833 -0.8216 -0.5695
  343TIP3    H2  973   3.604   3.040   2.628 -0.5888  1.0432  1.2472
  344TIP3   OH2  974   4.158   5.152   4.479 -0.3223 -0.0434  0.0046
  344TIP3    H1  975   4.142   5.219   4.546 -0.2262 -0.2175  0.2052
  344TIP3    H2  976   4.250   5.165   4.454 -1.0751  1.8054 -2.0949
  345TIP3   OH2  977   6.623   7.687   1.062  0.5647 -0.0990  0.2126
  345TIP3    H1  978   6.711   7.704   1.027  1.8837 -0.8545  2.9224
  345TIP3    H2  979   6.574   7.767   1.045  2.1380  0.7852 -0.2956
  346TIP3   OH2  980   8.006   7.028   6.738  0.2590  0.2126 -0.1299
  346TIP3    H1  981   7.988   7.056   6.828  0.3073  2.8523 -0.8509
  346TIP3    H2  982   8.018   7.110   6.690  1.3406 -1.1538 -2.3305
  347TIP3   OH2  983   4.567   1.463   0.441  0.8635  0.3676  0.1262
  347TIP3    H1  984   4.543   1.482   0.532  0.7245 -0.0702  0.1844
  347TIP3    H2  985   4.586   1.549   0.403 -1.2419  0.8069 -0.0555
  348TIP3   OH2  986   4.047   3.139   5.361 -0.0441  0.1474 -0.0959
  348TIP3    H1  987   4.101   3.115   5.437  0.4637 -1.2555 -0.8559
  348TIP3    H2  988   3.972   3.184   5.399  1.1182  1.1802  1.0863
  349TIP3   OH2  989   1.574   3.894   1.847  0.0983 -0.1136  0.1124
  349TIP3    H1  990   1.621   3.895   1.930  0.3567  0.7957 -0.0295
  349TIP3    H2  991   1.625   3.951   1.790  0.9892 -2.2034 -1.3026
  350TIP3   OH2  992   8.281   6.391   5.466 -0.2183  0.0063 -0.0238
  350TIP3    H1  993   8.287   6.298   5.488  1.2479  0.3657  1.3474
  350TIP3    H2  994   8.322   6.435   5.541 -0.4553  1.7290 -0.8676
  351TIP3   OH2  995   1.172   3.613   6.427 -0.2369 -0.3683 -0.0239
  351TIP3    H1  996   1.089   3.635   6.385 -0.0688  0.6675  0.1609
  351TIP3    H2  997   1.148   3.587   6.516 -0.4613 -1.1922 -0.3179
  352TIP3   OH2  998   2.083   6.278   3.754  0.6205  0.2142 -0.5232
  352TIP3    H1  999   2.177   6.260   3.763  0.6490  0.4906 -0.2504
  352TIP3    H2 1000   2.077   6.340   3.682  0.7151  0.7500 -0.0773
  353TIP3   OH2 1001   7.749   7.537   4.384 -0.5262 -0.2533  0.0192
  353TIP3    H1 1002   7.786   7.596   4.318  0.6141  0.2962  1.1080
  353TIP3    H2 1003   7.660   7.522   4.354 -1.8848  4.2009  0.9721
  354TIP3   OH2 1004   5.630   6.037   3.957 -0.1049  0.0116  0.4959
  354TIP3    H1 1005   5.724   6.021   3.945  0.3721  1.6352  1.7573
  354TIP3    H2 1006   5.619   6.041   4.052 -1.2122  1.1003  0.3437
  355TIP3   OH2 1007   8.066   0.498   4.258  0.1479 -0.4111  0.6092
  355TIP3    H1 1008   7.998   0.473   4.195 -1.3402  1.4081  1.3771
  355TIP3    H2 1009   8.039   0.455   4.340  0.7725 -0.8854  0.5714
  356TIP3   OH2 1010   2.601   6.198   6.465 -0.2053 -0.2283 -0.5803
  356TIP3    H1 1011   2.616   6.118   6.515 -3.5328 -1.2454 -1.0142
  356TIP3    H2 1012   2.560   6.169   6.384 -0.7447  1.8494 -1.1073
  357TIP3   OH2 1013   4.787   7.048   0.942 -0.0790  0.4790  0.2098
  357TIP3    H1 1014   4.826   7.012   1.021 -1.4493  0.1014  0.7530
  357TIP3    H2 1015   4.860   7.061   0.882  0.9146  0.2953  1.3543
  358TIP3   OH2 1016   7.865   5.617   3.400 -0.2372  0.4523  0.0627
  358TIP3    H1 1017   7.796   5.554   3.379  0.6333 -0.3894 -0.3903
  358TIP3    H2 1018   7.819   5.699   3.415 -1.1412  0.5666 -2.7900
  359TIP3   OH2 1019   4.314   4.150   5.605  0.0181  0.2349  1.0215
  359TIP3    H1 1020   4.266   4.193   5.676 -1.1985  0.3094  0.1850
  359TIP3    H2 1021   4.375   4.217   5.572 -0.0538  0.4885  1.4001
  360TIP3   OH2 1022   1.012   0.766   1.353 -0.2845  0.4753  0.4472
  360TIP3    H1 1023   1.011   0.831   1.424  1.5786  1.7582 -0.5947
  360TIP3    H2 1024   1.084   0.794   1.296 -0.2064 -1.8328 -0.7266
  361TIP3   OH2 1025   0.493   0.900   1.697  0.3449 -0.0604 -0.2919
  361TIP3    H1 1026   0.402   0.873   1.682  0.1197 -0.0480  0.9559
  361TIP3    H2 1027   0.504   0.976   1.640 -1.0686  1.1426  0.9344
  362TIP3   OH2 1028   3.668   5.390   1.465 -0.2786 -0.7384  0.1534
  362TIP3    H1 1029   3.661   5.401   1.371 -0.9171  2.3834  0.4612
  362TIP3    H2 1030   3.580   5.411   1.498  0.4802  0.4296  1.5538
  363TIP3   OH2 1031   3.232   7.587   0.884  0.5386 -0.7321 -0.1552
  363TIP3    H1 1032   3.162   7.537   0.924  0.3463 -0.4576 -0.1441
  363TIP3    H2 1033   3.189   7.641   0.818  0.2553  1.6399  1.8151
  364TIP3   OH2 1034   8.215   3.324   5.412  0.7907  0.2587  0.3599
  364TIP3    H1 1035   8.142   3.382   5.391  1.1362  1.1087  1.4234
  364TIP3    H2 1036   8.276   3.334   5.339  1.1149  1.7114  0.7946
  365TIP3   OH2 1037   3.014   1.178   3.690  0.1717 -0.1789 -0.1851
  365TIP3    H1 1038   2.948   1.129   3.641  0.2130  0.7251 -1.2013
  365TIP3    H2 1039   2.974   1.196   3.774 -0.1573 -1.2281 -0.1129
  366TIP3   OH2 1040   7.877   3.486   3.326 -0.3508 -0.0760  0.1667
  366TIP3    H1 1041   7.803   3.505   3.384 -0.5654  0.7917 -0.3752
  366TIP3    H2 1042   7.941   3.554   3.345  0.2550 -0.7191  0.5049
  367TIP3   OH2 1043   1.102   0.890   1.924  0.1819 -0.0361  0.7763
  367TIP3    H1 1044   1.082   0.975   1.963  1.5743 -0.1070  1.6999
  367TIP3    H2 1045   1.175   0.856   1.976  0.9345 -0.9348 -0.7986
  368TIP3   OH2 1046   7.427   3.584   0.919 -0.1207 -0.5515  0.5296
  368TIP3    H1 1047   7.466   3.662   0.880 -0.8167 -0.1702  0.5743
  368TIP3    H2 1048   7.486   3.561   0.991 -0.6870  0.8385  1.4851
  369TIP3   OH2 1049   2.923   7.454   1.619  0.3366 -0.6576 -0.7183
  369TIP3    H1 1050   2.936   7.410   1.535  0.6143 -3.5006  0.6851
  369TIP3    H2 1051   2.946   7.545   1.602 -0.0123 -1.0286 -3.7889
  370TIP3   OH2 1052   0.821   0.543   3.302  0.3574 -0.8756 -0.1443
  370TIP3    H1 1053   0.810   0.573   3.393  1.2816  0.1212 -0.3383
  370TIP3    H2 1054   0.740   0.498   3.282 -0.5190  0.2678  0.6682
  371TIP3   OH2 1055   8.209   7.103   4.697  0.6656 -0.3796  0.1446
  371TIP3    H1 1056   8.289   7.065   4.662  0.5242 -0.6985  0.1664
  371TIP3    H2 1057   8.232   7.194   4.718  0.6789 -0.1005 -1.0135
  372TIP3   OH2 1058   3.804   6.753   3.672  0.6993  0.4383 -0.4355
  372TIP3    H1 1059   3.848   6.715   3.748  0.5167 -0.5922 -0.8234
  372TIP3    H2 1060   3.833   6.844   3.671  1.4245  0.2363  0.3373
  373TIP3   OH2 1061   7.504   3.587   2.050 -0.6343  0.0317  0.2302
  373TIP3    H1 1062   7.574   3.579   2.116 -0.2323  0.0987 -0.1778
  373TIP3    H2 1063   7.515   3.676   2.015  0.6151 -0.7481 -1.5200
  374TIP3   OH2 1064   0.371   4.501   0.752 -0.1767 -0.2822 -0.1597
  374TIP3    H1 1065   0.285   4.541   0.739 -0.0689 -0.5427 -2.1078
  374TIP3    H2 1066   0.433   4.570   0.729  0.1218 -0.2859  0.6256
  375TIP3   OH2 1067   1.282   2.322   4.079 -0.7405  0.3276 -0.1734
  375TIP3    H1 1068   1.303   2.229   4.068  1.7113  0.9441 -1.4333
  375TIP3    H2 1069   1.252   2.350   3.992  0.9735  1.2053 -0.5342
  376TIP3   OH2 1070   5.509   7.368   2.824 -0.0857 -0.0645  0.4820
  376TIP3    H1 1071   5.479   7.336   2.909  1.9407  0.2806  1.4046
  376TIP3    H2 1072   5.558   7.448   2.845  0.0151  0.3193 -1.0815
  377TIP3   OH2 1073   5.537   6.277   2.831 -1.2585 -0.0770 -0.1424
  377TIP3    H1 1074   5.466   6.234   2.784 -1.8272  1.0458 -0.3670
  377TIP3    H2 1075   5.575   6.338   2.767 -1.8425  1.2428  0.7064
  378TIP3   OH2 1076   3.711   0.256   4.789 -0.0823 -0.6339  0.1952
  378TIP3    H1 1077   3.741   0.225   4.703 -0.2442  1.1475 -0.5455
  378TIP3    H2 1078   3.615   0.254   4.783 -0.1228  1.0212 -0.3073
  379TIP3   OH2 1079   5.351   5.804   5.651  0.4318  1.2206  0.2211
  379TIP3    H1 1080   5.287   5.863   5.690 -0.1799  0.5212  0.3069
  379TIP3    H2 1081   5.347   5.725   5.705 -0.4720  0.2057 -1.2663
  380TIP3   OH2 1082   5.294   0.853   2.535 -0.4896 -0.2482 -1.1452
  380TIP3    H1 1083   5.383   0.886   2.528 -0.4761 -0.0823 -0.2343
  380TIP3    H2 1084   5.266   0.841   2.444  0.2159  0.3428 -1.4486
  381TIP3   OH2 1085   4.951   0.600   4.690  0.3544 -0.2769 -0.1689
  381TIP3    H1 1086   4.937   0.683   4.737 -2.0259 -0.3954 -0.5506
  381TIP3    H2 1087   5.042   0.577   4.709  1.5762  3.1135 -1.1489
  382TIP3   OH2 1088   0.173   2.631   1.703  0.0920 -0.4419 -0.3076
  382TIP3    H1 1089   0.097   2.689   1.694 -1.0417 -1.8545 -0.1809
  382TIP3    H2 1090   0.248   2.688   1.688 -0.9501  1.1635  0.2921
  383TIP3   OH2 1091   7.799   3.759   5.685  0.3347  0.1378  0.4395
  383TIP3    H1 1092   7.707   3.763   5.713  0.2696 -1.6962  0.6398
  383TIP3    H2 1093   7.794   3.760   5.589  0.1085  0.2177  0.4505
  384TIP3   OH2 1094   7.569   7.724   1.907 -0.0955  0.0765  0.0272
  384TIP3    H1 1095   7.511   7.657   1.944 -0.8053  0.2934 -0.6520
  384TIP3    H2 1096   7.523   7.807   1.924  0.1192  0.2704 -0.3253
  385TIP3   OH2 1097   0.719   4.583   0.705  0.5559 -0.3086 -0.8039
  385TIP3    H1 1098   0.748   4.512   0.762  0.4064 -0.7648 -1.2902
  385TIP3    H2 1099   0.703   4.656   0.764 -0.5730 -1.0709 -0.1258
  386TIP3   OH2 1100   5.582   7.012   1.542 -0.0379 -0.1920 -0.4491
  386TIP3    H1 1101   5.548   7.101   1.543 -0.4920 -0.3450 -1.1917
  386TIP3    H2 1102   5.662   7.017   1.490 -0.1748 -0.2546 -0.6658
  387TIP3   OH2 1103   4.356   3.948   0.079 -0.3380  0.0246 -0.2809
  387TIP3    H1 1104   4.302   3.918   0.151  1.2877 -0.2432  0.8947
  387TIP3    H2 1105   4.412   4.016   0.117 -0.2345  0.7097 -1.5804
  388TIP3   OH2 1106   4.268   0.517   0.611 -0.1552 -0.4635  0.6712
  388TIP3    H1 1107   4.275   0.436   0.561 -0.3739  0.0938 -0.2871
  388TIP3    H2 1108   4.337   0.573   0.574  1.0108 -0.7271  2.3487
  389TIP3   OH2 1109   2.056   6.997   4.541  0.1505  0.9678 -0.4483
  389TIP3    H1 1110   2.007   6.991   4.623 -0.1051  1.4969 -0.5528
  389TIP3    H2 1111   2.019   7.075   4.498  0.1627  0.5981 -1.1367
  390TIP3   OH2 1112   6.013   3.380   4.900  0.0476  0.5436  0.0267
  390TIP3    H1 1113   6.068   3.393   4.977  0.8141  0.5048 -0.4968
  390TIP3    H2 1114   6.056   3.433   4.832  0.3459 -0.7414 -0.8126
  391TIP3   OH2 1115   1.575   7.549   0.819 -0.5498  0.1483 -0.1606
  391TIP3    H1 1116   1.540   7.460   0.818  0.1086 -0.1330  0.9844
  391TIP3    H2 1117   1.498   7.604   0.803 -1.7573 -0.4182  2.9490
  392TIP3   OH2 1118   3.292   4.067   6.677  0.2320 -0.3472  0.0920
  392TIP3    H1 1119   3.250   4.153   6.675 -1.4510 -1.0892  1.0891
  392TIP3    H2 1120   3.291   4.037   6.587 -0.5733  0.0453 -0.0390
  393TIP3   OH2 1121   2.575   3.873   6.639  0.0393 -0.1682  0.7287
  393TIP3    H1 1122   2.603   3.922   6.561  1.9753 -2.7725 -0.3580
  393TIP3    H2 1123   2.623   3.913   6.711 -0.7150  1.3852  0.4121
  394TIP3   OH2 1124   0.535   1.251   5.280  0.9587  0.0240 -0.2957
  394TIP3    H1 1125   0.519   1.260   5.186 -0.8276  1.2920  0.0802
  394TIP3    H2 1126   0.498   1.330   5.319  1.8596 -0.3679  1.4762
  395TIP3   OH2 1127   3.671   2.619   5.618 -0.2623 -0.0977  0.1752
  395TIP3    H1 1128   3.738   2.557   5.648 -1.4889 -0.1013  3.3552
  395TIP3    H2 1129   3.682   2.695   5.674 -0.2495  1.7065 -2.1428
  396TIP3   OH2 1130   6.582   0.673   3.103  0.0599  0.0949 -0.2789
  396TIP3    H1 1131   6.573   0.721   3.185 -0.4469 -0.2431 -0.1384
  396TIP3    H2 1132   6.505   0.618   3.098  0.9461 -1.2127 -0.1114
  397TIP3   OH2 1133   3.779   0.847   6.314  0.2812  0.1533  0.1190
  397TIP3    H1 1134   3.824   0.774   6.271  0.5045  0.0909  0.4550
  397TIP3    H2 1135   3.706   0.868   6.256  0.5507  0.0361 -0.2650
  398TIP3   OH2 1136   7.087   1.891   2.565  0.6635 -0.2279 -0.5600
  398TIP3    H1 1137   7.005   1.926   2.601 -0.1772 -0.6845 -1.9620
  398TIP3    H2 1138   7.091   1.801   2.596  1.1174  0.0713  0.2717
  399TIP3   OH2 1139   7.069   2.827   2.581 -0.6155  0.7074  0.3621
  399TIP3    H1 1140   7.035   2.755   2.634  2.6470 -0.7319  0.7243
  399TIP3    H2 1141   7.083   2.788   2.494  1.7021  0.6470  0.7087
  400TIP3   OH2 1142   6.650   0.881   1.187 -0.8285  0.2633  0.0829
  400TIP3    H1 1143   6.739   0.891   1.153  0.6179 -2.6054  2.5293
  400TIP3    H2 1144   6.656   0.807   1.248 -5.1804 -0.8633 -0.5217
  401TIP3   OH2 1145   7.186   5.168   3.392  0.1288 -0.0859  0.1831
  401TIP3    H1 1146   7.155   5.258   3.386  0.2335  0.0666  1.4842
  401TIP3    H2 1147   7.150   5.136   3.475 -0.7226 -1.5854 -0.7259
  402TIP3   OH2 1148   5.760   3.690   5.215 -0.1805 -0.2519 -0.1263
  402TIP3    H1 1149   5.763   3.634   5.137  2.6899 -1.7670  0.9180
  402TIP3    H2 1150   5.682   3.660   5.262 -0.3503 -1.3063 -1.0222
  403TIP3   OH2 1151   1.495   0.931   0.512  0.2565  0.6009 -0.1190
  403TIP3    H1 1152   1.542   0.850   0.532 -1.8670  0.0117  3.0319
  403TIP3    H2 1153   1.424   0.903   0.454  0.4978  0.5378 -0.3914
  404TIP3   OH2 1154   2.426   6.517   4.598  0.4703 -0.0473  0.6800
  404TIP3    H1 1155   2.438   6.453   4.668 -0.2490 -0.0645  0.8008
  404TIP3    H2 1156   2.500   6.503   4.539  0.9640 -0.1865  1.3178
  405TIP3   OH2 1157   0.709   1.127   5.988  0.0838 -0.2524 -0.2382
  405TIP3    H1 1158   0.743   1.045   5.951 -0.0266 -0.3234 -0.1820
  405TIP3    H2 1159   0.624   1.139   5.945 -0.7638 -1.1342  1.0957
  406TIP3   OH2 1160   2.696   7.322   4.577 -0.2862 -0.2057 -0.1407
  406TIP3    H1 1161   2.673   7.230   4.591  0.1470 -0.1479  0.9814
  406TIP3    H2 1162   2.629   7.354   4.516 -1.6346 -0.7291  1.0322
  407TIP3   OH2 1163   1.063   0.394   4.927 -0.4706 -0.0887 -0.2261
  407TIP3    H1 1164   1.004   0.439   4.867  0.1250  1.0127 -0.0249
  407TIP3    H2 1165   1.095   0.319   4.878 -0.5327  0.3976 -1.0332
  408TIP3   OH2 1166   6.029   3.270   4.418  0.1805 -0.2548 -0.4615
  408TIP3    H1 1167   5.982   3.353   4.415  0.6094 -0.0213 -0.7993
  408TIP3    H2 1168   6.121   3.294   4.420  0.3055 -0.6648  1.5123
  409TIP3   OH2 1169   8.012   4.828   2.558  1.1837  0.6710 -0.7743
  409TIP3    H1 1170   8.002   4.893   2.628  1.7270  1.1781 -1.1539
  409TIP3    H2 1171   8.091   4.779   2.582 -0.6418 -1.6325  0.8916
  410TIP3   OH2 1172   3.379   3.746   3.034 -0.3083  0.2696  0.0566
  410TIP3    H1 1173   3.319   3.796   3.090 -0.0876  0.7912 -0.1625
  410TIP3    H2 1174   3.329   3.670   3.007 -1.6589  1.7167 -1.8324
  411TIP3   OH2 1175   1.357   0.803   2.766 -0.1806 -0.3144 -0.0142
  411TIP3    H1 1176   1.430   0.861   2.785  1.5296 -2.4156  0.1941
  411TIP3    H2 1177   1.280   0.860   2.763  1.5222  2.0587 -0.8167
  412TIP3   OH2 1178  -0.034   5.160   3.060  0.6496 -0.2115 -0.2472
  412TIP3    H1 1179  -0.014   5.234   3.003 -2.0868  0.7906 -0.0667
  412TIP3    H2 1180   0.048   5.140   3.104  2.1872  0.7309 -2.5159
  413TIP3   OH2 1181   6.016   3.297   0.550  0.0685 -0.0087  0.3789
  413TIP3    H1 1182   5.972   3.251   0.478  1.6129 -1.2336  0.1741
  413TIP3    H2 1183   5.946   3.312   0.614 -1.2489  0.6983 -1.1423
  414TIP3   OH2 1184   7.996   5.420   4.386  0.3505 -0.3171  0.2574
  414TIP3    H1 1185   8.063   5.418   4.318  0.9302 -0.8687  0.8288
  414TIP3    H2 1186   7.947   5.500   4.369 -0.9028 -1.4771 -2.0995
  415TIP3   OH2 1187   4.728   1.601   6.720 -0.0564 -0.0425  0.4705
  415TIP3    H1 1188   4.823   1.610   6.721  0.0457 -0.9482 -0.0702
  415TIP3    H2 1189   4.705   1.602   6.627 -0.5048 -0.5233  0.5737
  416TIP3   OH2 1190   0.248   6.962   2.361 -0.2681  0.3369  0.5685
  416TIP3    H1 1191   0.248   7.023   2.434  0.2722  2.5829 -1.2032
  416TIP3    H2 1192   0.262   7.017   2.284  1.2317 -2.1253 -1.0556
  417TIP3   OH2 1193   3.817   3.984   2.907  0.3646  1.1123 -0.5927
  417TIP3    H1 1194   3.848   3.910   2.958  0.9449  0.2372 -2.1665
  417TIP3    H2 1195   3.724   3.966   2.892  0.7258  0.1743 -1.8124
  418TIP3   OH2 1196   4.133   3.956   1.837  0.1954 -0.2414  0.2716
  418TIP3    H1 1197   4.151   3.921   1.925  0.2290 -2.1782 -0.4601
  418TIP3    H2 1198   4.090   4.040   1.854  0.7876 -0.2484  2.1312
  419TIP3   OH2 1199   2.794   7.038   5.182  0.9422 -0.0677 -0.5283
  419TIP3    H1 1200   2.817   7.044   5.275 -1.8598 -0.9232  0.3179
  419TIP3    H2 1201   2.812   6.947   5.158 -1.2735 -0.7740  0.1703
  420TIP3   OH2 1202   4.785   4.441   2.212 -0.0312 -0.5660  0.2640
  420TIP3    H1 1203   4.815   4.522   2.172 -1.3822 -0.1848 -0.0075
  420TIP3    H2 1204   4.760   4.385   2.139 -0.4725 -0.6838  0.5026
  421TIP3   OH2 1205   7.204   1.617   4.420  0.3030 -0.3693 -0.3083
  421TIP3    H1 1206   7.194   1.712   4.408  1.5026 -0.2911 -0.7700
  421TIP3    H2 1207   7.287   1.596   4.379  0.5426 -1.4656  0.6840
  422TIP3   OH2 1208   6.565   0.884   6.178 -0.2099 -0.6966  0.1370
  422TIP3    H1 1209   6.511   0.957   6.208  0.5260 -0.2419  0.3785
  422TIP3    H2 1210   6.585   0.834   6.258  1.4700  0.3249  0.4015
  423TIP3   OH2 1211   1.373   4.333   1.466 -0.2352 -0.2134 -0.5844
  423TIP3    H1 1212   1.357   4.422   1.496  0.7452 -0.1360 -0.2591
  423TIP3    H2 1213   1.463   4.315   1.492 -0.0546 -0.9001 -1.6282
  424TIP3   OH2 1214   7.540   0.809   1.209  0.3842  0.1260 -0.6207
  424TIP3    H1 1215   7.521   0.807   1.302  2.7797  2.1600  0.0345
  424TIP3    H2 1216   7.602   0.738   1.195  0.9466  0.5650 -0.3909
  425TIP3   OH2 1217   5.333   0.115   4.662 -0.1906 -0.2449  0.3529
  425TIP3    H1 1218   5.250   0.068   4.671  0.6483 -2.3987 -1.8797
  425TIP3    H2 1219   5.323   0.167   4.582  0.9097 -1.3267 -0.5261
  426TIP3   OH2 1220   6.314   1.975   5.983 -0.2662  0.1786  0.1351
  426TIP3    H1 1221   6.279   2.035   6.049 -2.3709 -1.8945  1.0899
  426TIP3    H2 1222   6.376   1.920   6.031  0.4375  0.5376 -0.3478
  427TIP3   OH2 1223   6.560   1.967   2.615  0.1891  0.3179  0.1086
  427TIP3    H1 1224   6.498   1.927   2.554  1.1612  1.5055 -1.7890
  427TIP3    H2 1225   6.543   2.061   2.608  2.8900  0.8302 -1.4826
  428TIP3   OH2 1226   7.488   1.952   1.462 -0.2795 -0.5148 -0.2914
  428TIP3    H1 1227   7.496   2.046   1.477 -0.3295 -0.5609  0.0363
  428TIP3    H2 1228   7.548   1.934   1.389  1.7219 -0.6457  1.3001
  429TIP3   OH2 1229   7.469   1.583   3.384  0.3472  0.1713 -0.5126
  429TIP3    H1 1230   7.376   1.597   3.366 -0.0840 -0.9872  0.6252
  429TIP3    H2 1231   7.506   1.555   3.300 -0.4848 -0.0526 -0.8091
  430TIP3   OH2 1232   1.252   2.911   5.818 -0.4819 -0.5026  0.0450
  430TIP3    H1 1233   1.196   2.928   5.742 -0.7626  1.3756  0.6167
  430TIP3    H2 1234   1.319   2.980   5.814  0.4499 -1.3390  0.6497
  431TIP3   OH2 1235   2.880   2.970   3.579 -0.8249 -0.2019  0.2643
  431TIP3    H1 1236   2.832   3.004   3.655  0.4211 -0.5668  1.2482
  431TIP3    H2 1237   2.865   2.875   3.582  0.3278 -0.3760  0.8633
  432TIP3   OH2 1238   1.449   2.414   6.728  0.1159 -0.2586 -0.1387
  432TIP3    H1 1239   1.504   2.428   6.651 -0.8210 -0.9195 -0.9595
  432TIP3    H2 1240   1.370   2.374   6.693 -0.2482 -0.7571  1.2047
  433TIP3   OH2 1241   4.407   7.572   2.204  0.3765 -0.5837  0.3896
  433TIP3    H1 1242   4.323   7.525   2.208  0.0447 -0.1185 -0.7094
  433TIP3    H2 1243   4.392   7.651   2.257  0.3833 -0.8912  0.8512
  434TIP3   OH2 1244   4.251   6.808   5.113 -0.3386 -0.0677 -0.0608
  434TIP3    H1 1245   4.259   6.732   5.171 -1.6230 -0.8338 -0.8391
  434TIP3    H2 1246   4.213   6.773   5.033  0.5326  1.1359 -1.0409
  435TIP3   OH2 1247   0.424   0.883   2.462  0.3068 -0.4722  0.3395
  435TIP3    H1 1248   0.514   0.867   2.434  0.3445 -0.6059  0.5354
  435TIP3    H2 1249   0.371   0.825   2.408  0.4058 -0.9554  0.7520
  436TIP3   OH2 1250   2.798   5.996   2.000 -0.1668  0.5303  0.8481
  436TIP3    H1 1251   2.848   5.917   2.023 -0.5748 -0.3976 -1.2601
  436TIP3    H2 1252   2.851   6.068   2.035  1.6775 -0.5180  0.3987
  437TIP3   OH2 1253   3.445   6.105   4.623  0.3918 -0.5736  0.4113
  437TIP3    H1 1254   3.423   6.124   4.532 -0.6945 -0.6389  0.6449
  437TIP3    H2 1255   3.529   6.147   4.637 -0.5348  1.5093  0.0639
  438TIP3   OH2 1256   5.172   4.660   1.153  0.3203 -0.1445  0.2139
  438TIP3    H1 1257   5.184   4.582   1.100 -0.7658 -0.7278  0.7980
  438TIP3    H2 1258   5.079   4.681   1.145  0.6486  1.2653 -0.1631
  439TIP3   OH2 1259   8.261   2.178   6.076  0.6052 -0.4711  0.1903
  439TIP3    H1 1260   8.296   2.095   6.109 -1.2447 -1.4715 -0.2298
  439TIP3    H2 1261   8.186   2.197   6.132  0.5017  0.4729 -0.2448
  440TIP3   OH2 1262   1.829   4.614   1.300  0.0401 -0.1987 -0.3530
  440TIP3    H1 1263   1.859   4.524   1.310 -0.3437 -0.4100 -0.9871
  440TIP3    H2 1264   1.747   4.606   1.250  1.6181  0.6769 -3.3388
  441TIP3   OH2 1265   0.727   0.681   0.792 -0.6957  0.0067  0.0201
  441TIP3    H1 1266   0.798   0.745   0.793 -1.2780  0.6636 -0.0024
  441TIP3    H2 1267   0.670   0.707   0.865 -1.4185  0.0762 -0.5520
  442TIP3   OH2 1268   2.591   2.963   2.654 -0.0819 -0.0177  0.4690
  442TIP3    H1 1269   2.677   2.995   2.624  0.8499  0.3148  3.2008
  442TIP3    H2 1270   2.606   2.869   2.671 -0.5720 -0.1827  0.0133
  443TIP3   OH2 1271   3.199   5.605   5.448  0.0048 -0.3375  0.6419
  443TIP3    H1 1272   3.206   5.653   5.366 -1.8534  1.0424  1.2307
  443TIP3    H2 1273   3.273   5.638   5.500 -0.3399  0.7628  0.4708
  444TIP3   OH2 1274   0.513   4.181   5.572 -0.7066 -0.1564 -0.3481
  444TIP3    H1 1275   0.573   4.107   5.575  0.5302  0.8328  1.2670
  444TIP3    H2 1276   0.568   4.258   5.585 -2.0759  0.9826 -0.9504
  445TIP3   OH2 1277   7.803   1.386   6.765 -0.1272 -0.1474  0.2954
  445TIP3    H1 1278   7.888   1.382   6.722  0.3100 -0.0202  1.1331
  445TIP3    H2 1279   7.740   1.368   6.695  0.5367  0.5062 -0.4884
  446TIP3   OH2 1280   3.770   3.428   1.964  0.4881  0.6345  0.0346
  446TIP3    H1 1281   3.832   3.396   1.899 -0.9274 -1.5346 -0.3205
  446TIP3    H2 1282   3.734   3.350   2.005 -1.7054  1.8242  0.5419
  447TIP3   OH2 1283   1.702   4.517   2.457 -0.2761  0.0800  0.1749
  447TIP3    H1 1284   1.612   4.549   2.453 -0.5592 -0.6294  0.5954
  447TIP3    H2 1285   1.721   4.488   2.368 -0.4029  0.3825  0.0462
  448TIP3   OH2 1286   4.909   7.273   2.880  0.2144  0.2922 -0.3755
  448TIP3    H1 1287   4.886   7.269   2.973 -0.4574 -2.1365 -0.5691
  448TIP3    H2 1288   4.891   7.363   2.854  1.7569  1.4245  2.1491
  449TIP3   OH2 1289   1.297   1.179   1.769 -0.1507  0.5372  0.3443
  449TIP3    H1 1290   1.314   1.238   1.843 -0.9309  0.8522  0.2806
  449TIP3    H2 1291   1.217   1.132   1.793  0.3277 -0.3305  0.2849
  450TIP3   OH2 1292   7.897   0.886   3.760  1.0600 -0.2106  0.6102
  450TIP3    H1 1293   7.845   0.965   3.744 -0.3066 -0.9755  1.0258
  450TIP3    H2 1294   7.980   0.901   3.715 -0.2067  0.2997 -1.7097
  451TIP3   OH2 1295   0.853   5.886   2.893  0.3573  0.0784 -0.2521
  451TIP3    H1 1296   0.856   5.797   2.928 -1.2292  0.4583  0.9937
  451TIP3    H2 1297   0.894   5.940   2.961 -0.3084  0.5060 -0.1804
  452TIP3   OH2 1298   3.069   1.833   0.356 -0.1180  0.1126  0.1770
  452TIP3    H1 1299   2.997   1.802   0.300  0.1034 -1.2877  0.6186
  452TIP3    H2 1300   3.114   1.898   0.302 -0.0290 -1.0543 -1.2561
  453TIP3   OH2 1301   3.673   3.155   6.180  0.8202  1.0893  0.3343
  453TIP3    H1 1302   3.735   3.210   6.228  0.0187  2.2127  0.1252
  453TIP3    H2 1303   3.591   3.205   6.181 -0.4180 -0.8193  1.5300
  454TIP3   OH2 1304   1.840   4.484   5.616  0.4902 -0.2914 -0.2979
  454TIP3    H1 1305   1.863   4.524   5.532 -1.7135  0.6151 -0.5418
  454TIP3    H2 1306   1.822   4.393   5.595 -0.3965  0.0101 -0.9172
  455TIP3   OH2 1307   0.547   6.681   3.891  0.3002 -0.3655  0.6745
  455TIP3    H1 1308   0.599   6.671   3.971 -0.4451 -0.2690  1.1806
  455TIP3    H2 1309   0.595   6.630   3.825  0.4819 -1.1502  1.3864
  456TIP3   OH2 1310   6.743   5.052   5.138  0.1709 -0.0372  0.1958
  456TIP3    H1 1311   6.754   5.125   5.198  2.3356 -0.5344  0.4988
  456TIP3    H2 1312   6.717   4.978   5.194 -1.0179  0.2412  0.0315
  457TIP3   OH2 1313   0.868   6.111   4.188 -0.9923 -0.2940 -0.2871
  457TIP3    H1 1314   0.829   6.173   4.126 -0.6681  0.6660  0.4328
  457TIP3    H2 1315   0.945   6.077   4.144 -0.0393  1.3480  0.0397
  458TIP3   OH2 1316   6.427   1.005   3.075 -0.0995 -0.3753  0.3856
  458TIP3    H1 1317   6.466   1.022   3.161 -0.5532 -0.2726  0.5708
  458TIP3    H2 1318   6.477   1.060   3.015 -0.5775  0.4920  0.7617
  459TIP3   OH2 1319   6.935   3.994   1.573  0.1842  0.0382 -0.2286
  459TIP3    H1 1320   6.858   3.944   1.546  1.4382 -1.5379 -1.0666
  459TIP3    H2 1321   6.949   4.056   1.503 -0.7374  0.8693  0.2916
  460TIP3   OH2 1322   7.624   2.768   6.223 -0.0249 -0.0240  0.1151
  460TIP3    H1 1323   7.568   2.752   6.146  0.0443  1.6618 -0.3299
  460TIP3    H2 1324   7.691   2.828   6.191  2.0045 -1.8584  0.6860
  461TIP3   OH2 1325   1.580   5.664   5.857 -0.4893 -1.1404  0.0666
  461TIP3    H1 1326   1.524   5.687   5.932 -0.8240 -0.3178 -0.4223
  461TIP3    H2 1327   1.530   5.690   5.780  0.6636 -0.0999 -0.3803
  462TIP3   OH2 1328   4.609   4.366   5.232 -0.1298  0.1370  0.0219
  462TIP3    H1 1329   4.592   4.337   5.142 -0.0620  0.6614 -0.1699
  462TIP3    H2 1330   4.638   4.457   5.222  0.6106 -0.0297  0.5107
  463TIP3   OH2 1331   6.431   3.348   3.643  0.0686  0.2325  0.3229
  463TIP3    H1 1332   6.440   3.411   3.714  0.9176  1.4783 -0.8307
  463TIP3    H2 1333   6.488   3.382   3.574 -0.3148 -1.2195 -0.7541
  464TIP3   OH2 1334   2.553   4.050   1.904 -0.4305  0.1528  0.2788
  464TIP3    H1 1335   2.564   3.957   1.884 -1.2284  0.3189 -1.1157
  464TIP3    H2 1336   2.482   4.053   1.968  0.6150 -0.2664  1.4979
  465TIP3   OH2 1337   7.439   1.854   5.191  0.2639  0.5276  0.5823
  465TIP3    H1 1338   7.446   1.910   5.114 -2.5850  2.2393  1.4022
  465TIP3    H2 1339   7.494   1.897   5.257 -0.5996  1.5025  0.7002
  466TIP3   OH2 1340   3.919   1.688   2.339  0.2698  0.1631 -0.7295
  466TIP3    H1 1341   3.837   1.727   2.309 -0.3526 -0.0658  0.6384
  466TIP3    H2 1342   3.894   1.624   2.404  1.4523 -1.0064 -1.3733
  467TIP3   OH2 1343   6.761   3.767   4.550 -0.0488 -0.1363  0.1368
  467TIP3    H1 1344   6.817   3.825   4.602  2.2051  0.0975 -2.3099
  467TIP3    H2 1345   6.784   3.679   4.579  0.2443  0.0379  0.4450
  468TIP3   OH2 1346   4.308   3.253   6.368 -0.1671 -0.3652  0.1873
  468TIP3    H1 1347   4.284   3.234   6.277  0.8848  0.8060 -0.3638
  468TIP3    H2 1348   4.362   3.179   6.395 -0.3498 -0.6441 -0.2034
  469TIP3   OH2 1349   7.456   4.735   6.512  0.6990  0.1043 -0.0609
  469TIP3    H1 1350   7.468   4.666   6.447  0.6790 -1.2053  1.2575
  469TIP3    H2 1351   7.389   4.793   6.475 -0.7097 -1.6634 -0.4108
  470TIP3   OH2 1352   6.203   1.270   4.858 -0.0441 -0.0872 -0.2167
  470TIP3    H1 1353   6.223   1.176   4.852  0.4527  0.0239 -0.3553
  470TIP3    H2 1354   6.272   1.312   4.807  0.4281  0.4356  0.8097
  471TIP3   OH2 1355   4.941   5.944   2.469  0.0447  0.0257  0.4984
  471TIP3    H1 1356   5.011   5.892   2.430 -2.2277 -0.8795 -2.8706
  471TIP3    H2 1357   4.972   6.034   2.462  1.1867 -0.3966 -0.2100
  472TIP3   OH2 1358   0.405   3.640   2.176 -0.1851 -0.1070  0.3018
  472TIP3    H1 1359   0.317   3.670   2.153 -0.3834 -1.5665 -1.0297
  472TIP3    H2 1360   0.393   3.590   2.257 -0.6094 -0.4058  0.0574
  473TIP3   OH2 1361   2.361   5.560   3.447 -0.0876  0.5334 -0.0869
  473TIP3    H1 1362   2.314   5.623   3.500  0.5106  2.2457 -1.4982
  473TIP3    H2 1363   2.370   5.602   3.362  1.9325 -0.7132 -0.5535
  474TIP3   OH2 1364   1.880   2.432   0.387  0.2803 -0.6433 -0.1539
  474TIP3    H1 1365   1.850   2.506   0.440 -0.9000 -1.6985  0.7242
  474TIP3    H2 1366   1.947   2.390   0.441  0.4286 -0.6272 -0.3267
  475TIP3   OH2 1367   4.877   3.817   2.568  0.5069  0.4555 -0.5129
  475TIP3    H1 1368   4.864   3.912   2.559 -1.1132  0.1467 -1.9922
  475TIP3    H2 1369   4.792   3.779   2.546 -0.2051 -1.2483  4.0482
  476TIP3   OH2 1370   2.216   5.574   0.729 -0.0454  0.1034  0.3424
  476TIP3    H1 1371   2.121   5.575   0.726 -0.0095  0.3372 -1.5628
  476TIP3    H2 1372   2.243   5.643   0.669  1.3277 -1.7315 -1.2764
  477TIP3   OH2 1373   6.363   7.102   5.175  0.6296 -0.1760 -0.2613
  477TIP3    H1 1374   6.433   7.166   5.160  1.6020 -0.8166  1.2638
  477TIP3    H2 1375   6.408   7.017   5.174 -0.2200 -0.6444  0.1464
  478TIP3   OH2 1376   6.362   2.724   2.498  0.1754  0.5632  0.0539
  478TIP3    H1 1377   6.293   2.665   2.469 -2.0771  2.6588  0.8274
  478TIP3    H2 1378   6.444   2.678   2.476 -1.3137 -3.5768  2.0630
  479TIP3   OH2 1379   2.099   1.701   5.596 -0.4973  0.0564 -0.2445
  479TIP3    H1 1380   2.076   1.689   5.688  1.8416  0.0188  0.3853
  479TIP3    H2 1381   2.087   1.614   5.557 -2.1856  0.2278 -0.1914
  480TIP3   OH2 1382   3.592   4.683   6.153  0.0797  0.8077 -0.4015
  480TIP3    H1 1383   3.591   4.588   6.157 -0.3510  0.8471  0.9083
  480TIP3    H2 1384   3.683   4.707   6.168 -0.2179  0.6486  2.0291
  481TIP3   OH2 1385   1.612   7.655   5.080 -0.1874 -0.2434 -0.6173
  481TIP3    H1 1386   1.542   7.618   5.134  0.5774  0.4140  0.9031
  481TIP3    H2 1387   1.655   7.718   5.138  1.7721 -0.7517 -1.4369
  482TIP3   OH2 1388   0.769   3.049   4.011 -0.3708 -0.6620  0.4675
  482TIP3    H1 1389   0.775   3.139   3.979  0.5709 -0.8998 -0.0632
  482TIP3    H2 1390   0.829   3.000   3.955 -0.3266 -1.4887  1.2209
  483TIP3   OH2 1391   6.952   2.672   1.676 -0.1485 -0.0973 -0.1703
  483TIP3    H1 1392   6.978   2.761   1.697  1.8040 -0.6202 -0.1500
  483TIP3    H2 1393   7.030   2.633   1.636 -1.2236 -1.5450 -0.9690
  484TIP3   OH2 1394   1.193   4.262   5.027 -0.1695  0.2230 -0.2695
  484TIP3    H1 1395   1.172   4.253   4.934  2.3277  0.1467 -0.9023
  484TIP3    H2 1396   1.257   4.193   5.043  1.9877  2.3240  0.6308
  485TIP3   OH2 1397   6.401   4.989   4.398  0.0999  0.6051  0.0241
  485TIP3    H1 1398   6.429   4.992   4.489 -0.1401  0.0832  0.1235
  485TIP3    H2 1399   6.481   5.003   4.347  0.5704 -0.8988  0.2960
  486TIP3   OH2 1400   2.533   5.733   6.687  0.0373 -0.3458 -0.1055
  486TIP3    H1 1401   2.612   5.691   6.652 -0.6287 -1.8327  0.1056
  486TIP3    H2 1402   2.487   5.663   6.733 -0.7169  0.8266  1.0015
  487TIP3   OH2 1403   6.079   0.286   3.129 -0.0969  0.3428  0.0403
  487TIP3    H1 1404   6.064   0.330   3.045  0.1696  0.5239  0.0885
  487TIP3    H2 1405   6.151   0.225   3.111  0.1701  0.6046  0.2166
  488TIP3   OH2 1406   6.604   3.701   1.124  0.2860 -0.2647 -0.3680
  488TIP3    H1 1407   6.546   3.732   1.194 -0.8244 -0.3923 -1.2171
  488TIP3    H2 1408   6.576   3.611   1.108  0.5282 -0.2283 -0.9878
  489TIP3   OH2 1409   6.942   3.773   0.236  0.4764  0.1366 -0.2163
  489TIP3    H1 1410   6.904   3.788   0.149  0.1254  0.7820  0.0460
  489TIP3    H2 1411   6.938   3.858   0.279  2.6767  0.3710 -0.3474
  490TIP3   OH2 1412   1.368   5.803   6.289  0.0502 -0.5382  0.3833
  490TIP3    H1 1413   1.423   5.847   6.355 -1.1565  0.2165  0.9170
  490TIP3    H2 1414   1.279   5.832   6.309 -0.5444 -1.6969 -0.5036
  491TIP3   OH2 1415   5.933   0.647   1.403 -0.8786 -0.4110 -0.2444
  491TIP3    H1 1416   6.008   0.707   1.397  0.3615 -1.9538 -1.0986
  491TIP3    H2 1417   5.871   0.692   1.460  1.1915  0.4098  1.5071
  492TIP3   OH2 1418   2.456   3.285   0.181  0.6630  0.4602 -0.4512
  492TIP3    H1 1419   2.446   3.315   0.271 -0.0611 -0.1676 -0.3057
  492TIP3    H2 1420   2.439   3.191   0.185  2.1548  0.1481 -1.0091
  493TIP3   OH2 1421   1.642   4.614   5.957  0.7511  0.0074  0.3782
  493TIP3    H1 1422   1.706   4.570   6.013  3.0396  3.0394  0.4095
  493TIP3    H2 1423   1.581   4.656   6.019  1.3920  0.7175  0.5523
  494TIP3   OH2 1424   3.354   5.251   4.486 -0.2908  0.3866  0.4534
  494TIP3    H1 1425   3.303   5.175   4.457 -0.1943 -1.0541  3.6054
  494TIP3    H2 1426   3.445   5.222   4.482 -0.0076  1.4035 -1.0376
  495TIP3   OH2 1427   5.031   0.449   0.610  0.0014  0.1338  0.0794
  495TIP3    H1 1428   4.950   0.418   0.650 -0.0082 -1.5871 -1.1172
  495TIP3    H2 1429   5.082   0.369   0.594  1.4536  1.0678 -0.2078
  496TIP3   OH2 1430   3.615   6.215   4.052 -0.0915  0.3085  0.8126
  496TIP3    H1 1431   3.602   6.138   3.996  1.4830  0.2028  0.5461
  496TIP3    H2 1432   3.672   6.184   4.122  0.4648  1.1901  0.7678
  497TIP3   OH2 1433   5.407   2.890   5.259 -0.8683  0.0560  0.2468
  497TIP3    H1 1434   5.328   2.943   5.263 -1.2378 -0.4637 -0.0575
  497TIP3    H2 1435   5.474   2.944   5.300 -0.9713  1.2269 -1.0334
  498TIP3   OH2 1436   7.130   7.771   0.858 -0.1520 -0.0180 -0.8128
  498TIP3    H1 1437   7.205   7.816   0.820 -0.3974  0.2986 -0.9204
  498TIP3    H2 1438   7.058   7.832   0.849 -0.3610 -0.2082 -0.4451
  499TIP3   OH2 1439   7.707   1.375   5.087 -0.1446 -0.7273 -0.7241
  499TIP3    H1 1440   7.718   1.456   5.037  1.2640 -0.3367  0.1615
  499TIP3    H2 1441   7.790   1.329   5.077  0.9827  0.2587  2.7451
  500TIP3   OH2 1442   7.875   1.234   2.948 -0.1516 -0.0111  0.1286
  500TIP3    H1 1443   7.838   1.288   2.878 -0.1978 -1.4802 -1.0274
  500TIP3    H2 1444   7.946   1.185   2.906 -0.1419 -0.8851  1.1137
  501TIP3   OH2 1445   6.274   6.049   0.756 -0.5332 -0.1223  0.2543
  501TIP3    H1 1446   6.218   5.972   0.768  0.3306 -0.6964  0.6969
  501TIP3    H2 1447   6.213   6.122   0.746 -1.4176 -1.0108 -1.3656
  502TIP3   OH2 1448   1.996   4.738   2.415 -0.3128  0.0403  0.3729
  502TIP3    H1 1449   2.087   4.713   2.402  0.0684  0.9405  1.2074
  502TIP3    H2 1450   1.966   4.769   2.330  0.2294 -0.0519  0.1503
  503TIP3   OH2 1451   5.750   0.102   2.841  0.0230 -0.3646 -0.0761
  503TIP3    H1 1452   5.748   0.028   2.780  0.3149 -1.6053  1.3562
  503TIP3    H2 1453   5.829   0.088   2.894 -0.8238 -0.0009  1.3506
  504TIP3   OH2 1454   0.897   1.166   0.776  0.1837  0.2628 -0.3099
  504TIP3    H1 1455   0.848   1.111   0.716  0.1417  0.0516 -0.0835
  504TIP3    H2 1456   0.921   1.243   0.724  2.3182 -1.0144 -1.3752
  505TIP3   OH2 1457   6.849   6.919   5.765  0.6056  0.0843 -0.0772
  505TIP3    H1 1458   6.833   6.826   5.752  2.9834 -0.1854 -1.7656
  505TIP3    H2 1459   6.887   6.949   5.682 -0.5732  2.7083  0.2084
  506TIP3   OH2 1460   3.155   0.958   5.852  0.1866 -0.0074  0.2991
  506TIP3    H1 1461   3.156   0.978   5.946 -0.0725 -0.0034  0.3041
  506TIP3    H2 1462   3.191   0.870   5.846 -0.2450 -0.2025  0.4591
  507TIP3   OH2 1463   4.840   6.229   3.060  0.5236  0.2005  0.0405
  507TIP3    H1 1464   4.767   6.191   3.108  0.5753  1.0568  0.8243
  507TIP3    H2 1465   4.829   6.324   3.071  1.3465  0.3592 -0.4291
  508TIP3   OH2 1466   5.884   0.152   2.248 -0.3851 -0.1141  0.2884
  508TIP3    H1 1467   5.897   0.062   2.217  1.2824  0.4409 -0.7971
  508TIP3    H2 1468   5.851   0.143   2.337 -3.9328 -1.8087 -1.0045
  509TIP3   OH2 1469   1.767   0.317   1.568  0.4694 -0.2589  0.3427
  509TIP3    H1 1470   1.759   0.362   1.484  0.4928  0.4450  0.7118
  509TIP3    H2 1471   1.843   0.260   1.558 -0.3420 -1.2275 -0.5799
  510TIP3   OH2 1472   2.800   6.276   6.731 -0.2692 -0.0934 -0.3129
  510TIP3    H1 1473   2.844   6.198   6.698  1.7653  0.4053  1.0980
  510TIP3    H2 1474   2.739   6.300   6.661  0.2820 -1.9379 -1.4914
  511TIP3   OH2 1475   0.261   0.594   4.586  0.5515 -0.2566 -0.1008
  511TIP3    H1 1476   0.350   0.600   4.552  0.7019 -1.2243  0.0888
  511TIP3    H2 1477   0.273   0.583   4.680  0.2471 -0.9130 -0.1403
  512TIP3   OH2 1478   1.993   1.485   2.815  0.1466  0.5655  0.0045
  512TIP3    H1 1479   1.985   1.423   2.743  0.8165 -1.5154  1.6157
  512TIP3    H2 1480   1.907   1.485   2.856  0.4699 -0.2957  0.7246
  513TIP3   OH2 1481   5.969   6.467   6.334 -0.2297 -0.9038 -0.2760
  513TIP3    H1 1482   5.975   6.520   6.414  0.0637 -0.4527 -0.5927
  513TIP3    H2 1483   6.045   6.409   6.338 -0.7561 -1.5738  0.2576
  514TIP3   OH2 1484   8.233   6.941   4.938 -0.0554  0.3234 -0.3389
  514TIP3    H1 1485   8.250   7.011   4.875 -0.1288  0.9646  0.3365
  514TIP3    H2 1486   8.149   6.905   4.912 -0.3574  0.9682 -0.2731
  515TIP3   OH2 1487   7.625   0.320   2.293 -0.7334  0.2718  0.2038
  515TIP3    H1 1488   7.622   0.404   2.248  0.9969 -0.4062 -1.2922
  515TIP3    H2 1489   7.533   0.293   2.299 -1.1708  1.3440 -1.1319
  516TIP3   OH2 1490   3.139   0.572   5.576  0.0379  0.1557  0.0399
  516TIP3    H1 1491   3.061   0.521   5.598 -0.8434  1.5176  0.2675
  516TIP3    H2 1492   3.113   0.621   5.497  0.8574  0.2253 -0.1918
  517TIP3   OH2 1493   3.060   3.618   0.963 -0.1185 -0.0191  0.3043
  517TIP3    H1 1494   3.144   3.582   0.992  0.1295 -0.9063 -1.3972
  517TIP3    H2 1495   3.012   3.634   1.044  0.1686 -3.1768  1.2324
  518TIP3   OH2 1496   2.122   5.809   2.634 -0.0736  0.1180 -0.6065
  518TIP3    H1 1497   2.162   5.747   2.696 -0.0091  0.3408 -0.4254
  518TIP3    H2 1498   2.054   5.758   2.591  0.0824 -0.1267 -0.5697
  519TIP3   OH2 1499   2.782   3.086   4.625 -0.1883  0.0725  0.5570
  519TIP3    H1 1500   2.802   3.179   4.635 -0.0685  0.1434 -0.2820
  519TIP3    H2 1501   2.845   3.041   4.681  0.7824  0.4212 -0.2365
  520TIP3   OH2 1502   0.434   6.085   4.376 -0.7613  0.1069  0.2282
  520TIP3    H1 1503   0.514   6.060   4.330 -1.9390 -0.4465 -1.6582
  520TIP3    H2 1504   0.459   6.160   4.430  0.9211  0.2142 -0.6347
  521TIP3   OH2 1505   6.466   2.902   4.747  0.6847 -0.2848  0.0818
  521TIP3    H1 1506   6.514   2.976   4.785 -0.5702  0.3586  0.4656
  521TIP3    H2 1507   6.422   2.861   4.821 -0.1635 -0.2409 -0.3827
  522TIP3   OH2 1508   7.856   6.498   0.107 -0.2025 -0.1085  0.0179
  522TIP3    H1 1509   7.850   6.540   0.193 -2.7489  0.6300 -0.4284
  522TIP3    H2 1510   7.882   6.567   0.048 -2.1122  0.3586 -0.3432
  523TIP3   OH2 1511   1.675   3.101   2.883 -0.2171  0.0525 -0.5401
  523TIP3    H1 1512   1.716   3.129   2.965 -0.8904  0.8923 -0.4725
  523TIP3    H2 1513   1.666   3.181   2.832  1.4109 -0.6543 -2.0243
  524TIP3   OH2 1514   5.160   2.785   6.703  0.2814 -0.2753  0.0949
  524TIP3    H1 1515   5.217   2.859   6.725  0.7452 -0.5921 -0.0399
  524TIP3    H2 1516   5.080   2.825   6.670  1.2804  0.1674 -1.9269
  525TIP3   OH2 1517   7.555   5.676   0.917 -0.1877  0.0318  0.1304
  525TIP3    H1 1518   7.473   5.635   0.891  0.7913 -2.2271  0.2776
  525TIP3    H2 1519   7.540   5.707   1.006 -1.7090  2.3398 -0.8398
  526TIP3   OH2 1520   2.151   4.316   3.461  0.2327  0.2576  0.2145
  526TIP3    H1 1521   2.122   4.402   3.432 -0.1218  0.2577  0.5489
  526TIP3    H2 1522   2.245   4.316   3.447  0.2488  0.7370  0.3044
  527TIP3   OH2 1523   3.781   5.471   4.168  0.0996  0.5629 -0.1805
  527TIP3    H1 1524   3.794   5.377   4.166  1.2080  0.7084 -0.8604
  527TIP3    H2 1525   3.868   5.508   4.151 -0.0337  1.7312  1.4533
  528TIP3   OH2 1526   7.372   4.476   3.534  0.3107 -0.8264 -0.5506
  528TIP3    H1 1527   7.371   4.567   3.562 -0.3516 -0.9770 -0.0492
  528TIP3    H2 1528   7.462   4.459   3.508  0.0442  0.5797 -2.6881
  529TIP3   OH2 1529   1.755   0.976   5.696 -0.1240 -0.0334  0.0600
  529TIP3    H1 1530   1.725   1.015   5.778  0.7190  1.0982 -0.1454
  529TIP3    H2 1531   1.676   0.967   5.643 -0.2821  2.0142 -0.1246
  530TIP3   OH2 1532   0.877   7.102   2.608  0.2781 -0.6148 -0.0766
  530TIP3    H1 1533   0.877   7.007   2.602  1.3232 -0.5736 -1.4589
  530TIP3    H2 1534   0.905   7.131   2.521  0.2635  0.9455  0.4065
  531TIP3   OH2 1535   5.832   6.096   2.645  0.0254 -0.4269 -0.4013
  531TIP3    H1 1536   5.772   6.063   2.578  0.1680 -2.0759  0.2222
  531TIP3    H2 1537   5.840   6.189   2.627 -2.8226 -0.0980 -0.4480
  532TIP3   OH2 1538   5.951   1.835   2.874 -0.1960  0.1004 -0.5573
  532TIP3    H1 1539   5.938   1.919   2.917  1.8449  0.7331 -1.0967
  532TIP3    H2 1540   5.878   1.781   2.904  0.6820  0.7111  3.0833
  533TIP3   OH2 1541   7.259   7.418   2.839 -0.6763  0.3352  0.0827
  533TIP3    H1 1542   7.199   7.420   2.914  0.0365  1.9388  0.6536
  533TIP3    H2 1543   7.206   7.445   2.764 -1.0706  0.0554  0.2574
  534TIP3   OH2 1544   1.392   4.315   6.019  0.0026 -0.6559  0.0010
  534TIP3    H1 1545   1.372   4.406   5.997  0.6891 -0.3412  0.6460
  534TIP3    H2 1546   1.342   4.264   5.955 -2.3800  0.1034  1.1285
  535TIP3   OH2 1547   0.463   3.063   3.471  0.7203  0.4188 -0.4887
  535TIP3    H1 1548   0.388   3.014   3.504  0.3953  1.9760  1.2237
  535TIP3    H2 1549   0.494   3.012   3.396 -0.2948 -1.7417  0.4947
  536TIP3   OH2 1550   3.004   5.925   2.897 -0.1891 -0.1411  0.1088
  536TIP3    H1 1551   2.965   6.008   2.925 -1.9428 -0.3679 -1.4895
  536TIP3    H2 1552   3.058   5.947   2.821 -1.5513 -0.5837 -1.0191
  537TIP3   OH2 1553   0.714   6.869   4.064  0.0082  0.0466 -0.1685
  537TIP3    H1 1554   0.665   6.855   4.145 -0.1327 -2.9571 -0.6336
  537TIP3    H2 1555   0.673   6.945   4.023  0.6741  2.2353  2.9001
  538TIP3   OH2 1556   0.678   7.245   4.262  0.1946  0.3208  0.1350
  538TIP3    H1 1557   0.693   7.192   4.340 -0.5094  0.2084  0.2044
  538TIP3    H2 1558   0.755   7.231   4.207  0.1615 -0.5350  0.2916
  539TIP3   OH2 1559   3.267   4.847   0.224  0.0548  0.2002 -0.9205
  539TIP3    H1 1560   3.259   4.918   0.288 -1.6143 -2.1948  1.7745
  539TIP3    H2 1561   3.177   4.829   0.197  0.3746 -1.3789 -0.9803
  540TIP3   OH2 1562   5.431   3.165   6.101  0.0416  0.4224  0.2302
  540TIP3    H1 1563   5.384   3.168   6.184  0.7095  0.8258  0.6024
  540TIP3    H2 1564   5.418   3.076   6.069 -0.6779  0.4254  0.4928
  541TIP3   OH2 1565   1.366   0.630   2.209 -0.0340  0.0247 -0.2099
  541TIP3    H1 1566   1.308   0.554   2.199 -1.1732  0.9424 -0.7017
  541TIP3    H2 1567   1.454   0.592   2.215 -0.4414 -1.2679 -1.7640
  542TIP3   OH2 1568   5.552   4.420   2.832 -0.2890  0.3207  0.1472
  542TIP3    H1 1569   5.526   4.425   2.740  1.0768  0.6823 -0.2518
  542TIP3    H2 1570   5.619   4.489   2.841  2.0637 -1.8503  0.5075
  543TIP3   OH2 1571   7.284   2.148   4.720 -0.4363 -0.7383  0.0023
  543TIP3    H1 1572   7.253   2.058   4.705 -2.2887  0.0754 -1.5599
  543TIP3    H2 1573   7.214   2.188   4.771 -0.2548  0.1778 -0.4567
  544TIP3   OH2 1574   3.103   1.012   3.092 -0.5049 -0.0184 -0.0122
  544TIP3    H1 1575   3.176   0.953   3.108  0.0344  0.6175 -0.0646
  544TIP3    H2 1576   3.114   1.083   3.155 -0.6735  0.4353 -0.4747
  545TIP3   OH2 1577   5.581   5.098   5.497 -0.4909  0.3140  0.0303
  545TIP3    H1 1578   5.539   5.125   5.416  0.0678  2.0271  0.2622
  545TIP3    H2 1579   5.519   5.124   5.566  0.9438  3.1849  0.4000
  546TIP3   OH2 1580   3.246   2.232   2.163  0.2487  0.0207  0.1127
  546TIP3    H1 1581   3.312   2.294   2.195  1.3892 -0.2741 -1.5304
  546TIP3    H2 1582   3.205   2.277   2.089  1.3635 -1.2561 -1.3547
  547TIP3   OH2 1583   1.018   1.701   0.597  0.0304  0.2753 -0.0106
  547TIP3    H1 1584   1.093   1.641   0.591 -0.2523 -0.2096  1.0674
  547TIP3    H2 1585   1.014   1.742   0.511  0.6246 -0.7913 -0.5769
  548TIP3   OH2 1586   8.099   0.835   4.375 -0.2606 -0.3428 -0.2586
  548TIP3    H1 1587   8.137   0.822   4.288 -0.6577  1.1248 -0.6667
  548TIP3    H2 1588   8.010   0.802   4.367  0.1262 -1.5222  0.0172
  549TIP3   OH2 1589   0.611   7.524   2.275  0.1135  0.0778  0.3034
  549TIP3    H1 1590   0.550   7.553   2.206  0.9679 -3.9512 -2.5227
  549TIP3    H2 1591   0.560   7.463   2.327  0.9336 -1.1525 -0.3066
  550TIP3   OH2 1592   6.175   0.661   4.505  0.0323  0.0327 -0.5178
  550TIP3    H1 1593   6.261   0.619   4.499  0.2861  0.3141  0.8420
  550TIP3    H2 1594   6.119   0.596   4.547  0.3388  0.8640  1.2634
  551TIP3   OH2 1595   5.016   3.166   4.938  0.0107  0.1999  0.3903
  551TIP3    H1 1596   4.946   3.133   4.882 -0.9524  0.9323  1.1114
  551TIP3    H2 1597   4.991   3.257   4.956  0.1096 -0.0920  2.2293
  552TIP3   OH2 1598   6.963   3.184   5.517 -0.2623  0.3910  0.1013
  552TIP3    H1 1599   7.046   3.226   5.540 -0.0012  1.0329 -1.8383
  552TIP3    H2 1600   6.896   3.241   5.555  0.1331 -0.1031  1.6348
  553TIP3   OH2 1601   6.394   3.709   4.261  0.2619  0.3846 -0.4280
  553TIP3    H1 1602   6.445   3.638   4.301 -1.2164 -0.2627  0.3853
  553TIP3    H2 1603   6.410   3.785   4.317  0.5039  0.2568 -0.3206
  554TIP3   OH2 1604   4.238   5.857   1.491 -0.1505 -0.0948 -0.6696
  554TIP3    H1 1605   4.145   5.866   1.511  0.0025 -0.9059  0.5653
  554TIP3    H2 1606   4.278   5.937   1.526  0.0414 -1.2689  2.0821
  555TIP3   OH2 1607   2.251   6.390   3.335 -1.1977 -0.1528  0.3902
  555TIP3    H1 1608   2.245   6.406   3.240  0.3956 -1.3987  0.0288
  555TIP3    H2 1609   2.341   6.413   3.357 -0.3093 -3.5022  0.7871
  556TIP3   OH2 1610   7.928   0.481   4.784 -0.1407  0.5934 -0.2449
  556TIP3    H1 1611   7.928   0.575   4.802 -0.4016  1.0714 -2.4196
  556TIP3    H2 1612   7.837   0.455   4.794 -0.0328  0.5186  0.5734
  557TIP3   OH2 1613   5.224   5.269   1.432  0.1991 -0.0587 -0.5450
  557TIP3    H1 1614   5.138   5.263   1.475  0.7571 -0.6991  0.5211
  557TIP3    H2 1615   5.210   5.231   1.345 -0.2856 -1.4921  0.1249
  558TIP3   OH2 1616   0.407   5.393   6.765 -0.8148 -0.0230  0.4585
  558TIP3    H1 1617   0.322   5.431   6.788 -0.2019  1.5695  0.2049
  558TIP3    H2 1618   0.450   5.460   6.713  0.0149 -1.4072 -0.7112
  559TIP3   OH2 1619   6.234   6.628   0.762 -0.3488 -0.1854  0.3014
  559TIP3    H1 1620   6.188   6.574   0.698  1.6232 -0.4662 -0.9812
  559TIP3    H2 1621   6.261   6.566   0.830 -2.4343  0.1114  1.4929
  560TIP3   OH2 1622   0.103   5.041   2.181 -0.5354 -0.1246  0.1070
  560TIP3    H1 1623   0.108   4.979   2.108 -0.1565 -0.2642  0.2455
  560TIP3    H2 1624   0.110   5.127   2.140  0.4429 -0.2243  0.0303
  561TIP3   OH2 1625   0.807   2.624   0.312 -0.1336  0.4436 -0.3686
  561TIP3    H1 1626   0.841   2.603   0.399 -1.6045 -0.4144  0.0329
  561TIP3    H2 1627   0.841   2.712   0.294  2.3735 -0.4018 -0.0937
  562TIP3   OH2 1628   5.908   0.333   5.883 -0.5318  0.3269  0.6023
  562TIP3    H1 1629   5.986   0.277   5.878 -0.6387 -0.0107  2.1949
  562TIP3    H2 1630   5.940   0.415   5.920 -0.8388  0.3535  0.8111
  563TIP3   OH2 1631   5.432   7.623   5.003 -0.1057 -0.0275 -0.1813
  563TIP3    H1 1632   5.370   7.689   5.036  0.9683  1.4901 -1.0882
  563TIP3    H2 1633   5.476   7.591   5.081 -0.6577  0.3095  0.2821
  564TIP3   OH2 1634   3.092   2.556   2.871  0.0051 -0.0832 -0.7814
  564TIP3    H1 1635   3.152   2.630   2.868  0.2748 -0.2506  0.0763
  564TIP3    H2 1636   3.115   2.510   2.952 -0.8681 -0.4939 -0.7530
  565TIP3   OH2 1637   3.667   6.682   6.305 -0.1337  0.4090 -0.0459
  565TIP3    H1 1638   3.600   6.722   6.249  0.8509  0.7702 -0.9941
  565TIP3    H2 1639   3.656   6.725   6.390 -1.5339 -0.0180  0.0089
  566TIP3   OH2 1640   6.562   4.339   6.678  0.3028  0.2851 -0.3955
  566TIP3    H1 1641   6.536   4.411   6.620  0.9072  0.1464 -0.8424
  566TIP3    H2 1642   6.497   4.271   6.661  0.2138  0.4131 -0.5765
  567TIP3   OH2 1643   6.623   2.250   0.603  0.4466  0.0227  0.0367
  567TIP3    H1 1644   6.593   2.210   0.684  0.2873 -0.5529 -0.2966
  567TIP3    H2 1645   6.644   2.340   0.626 -1.5604  0.4615  0.2666
  568TIP3   OH2 1646   7.005   1.773   4.978 -0.1057 -0.4566 -0.2734
  568TIP3    H1 1647   7.088   1.740   5.009 -0.4611 -1.7390 -0.6317
  568TIP3    H2 1648   7.007   1.867   4.998  1.7838 -0.2770 -1.0840
  569TIP3   OH2 1649   3.810   5.355   2.668  0.4478  0.3368  0.1583
  569TIP3    H1 1650   3.739   5.417   2.647 -1.0096 -1.2297  0.2384
  569TIP3    H2 1651   3.873   5.366   2.596  0.9665  2.8892  0.9061
  570TIP3   OH2 1652   3.436   0.309   4.725  0.7477  0.3301  0.7911
  570TIP3    H1 1653   3.471   0.388   4.684  1.1504 -1.5684 -2.9119
  570TIP3    H2 1654   3.341   0.321   4.725  0.7625  0.5804 -0.4028
  571TIP3   OH2 1655   3.916   6.253   4.498  0.2572 -0.1810 -0.5893
  571TIP3    H1 1656   3.927   6.288   4.586 -0.9235  1.7896 -1.1595
  571TIP3    H2 1657   3.991   6.289   4.449  0.5994 -0.8083 -0.5368
  572TIP3   OH2 1658   6.952   5.747   0.671  0.2214  0.1269 -0.0474
  572TIP3    H1 1659   6.917   5.795   0.596 -1.0022  1.0966  1.0939
  572TIP3    H2 1660   7.028   5.799   0.699  1.2999 -0.7853 -1.1929
  573TIP3   OH2 1661   2.458   2.536   4.036  0.3417 -0.1409 -0.5204
  573TIP3    H1 1662   2.405   2.615   4.029  1.6307  0.9877  1.4252
  573TIP3    H2 1663   2.455   2.514   4.129  0.3489 -2.1824 -0.9506
  574TIP3   OH2 1664   3.194   5.172   1.363 -0.1790  0.4143  0.4914
  574TIP3    H1 1665   3.196   5.081   1.334  1.2781  0.9670 -1.3505
  574TIP3    H2 1666   3.103   5.187   1.389 -0.9953 -0.9187 -1.4016
  575TIP3   OH2 1667   2.757   6.477   1.375 -0.1562 -0.4685 -0.4143
  575TIP3    H1 1668   2.668   6.464   1.340 -0.8915  1.5814  0.5540
  575TIP3    H2 1669   2.786   6.559   1.336  0.4742 -0.0291  0.9398
  576TIP3   OH2 1670   5.278   5.931   3.683  0.2307 -0.5340  0.6859
  576TIP3    H1 1671   5.321   5.894   3.760  1.5449  0.3552  0.4087
  576TIP3    H2 1672   5.223   6.001   3.718  0.7274 -0.2163  0.8436
  577TIP3   OH2 1673   4.942   7.806   5.348 -0.1191 -0.4969 -0.2583
  577TIP3    H1 1674   4.959   7.773   5.260  1.7339 -1.1331  0.2776
  577TIP3    H2 1675   4.871   7.870   5.338 -1.3796 -2.0495 -1.8766
  578TIP3   OH2 1676   3.583   0.555   6.455 -0.2188  0.0789  0.3827
  578TIP3    H1 1677   3.556   0.464   6.462 -1.1972  0.1869 -1.4380
  578TIP3    H2 1678   3.524   0.593   6.391  1.0526  1.6555  0.0666
  579TIP3   OH2 1679   7.332   1.545   1.035  0.4507 -0.0116 -0.0246
  579TIP3    H1 1680   7.238   1.546   1.053  0.3365  0.7780 -0.6396
  579TIP3    H2 1681   7.368   1.613   1.093  0.6067 -0.1281  0.0165
  580TIP3   OH2 1682   4.088   6.368   0.245 -0.6223 -0.5363 -0.3176
  580TIP3    H1 1683   4.012   6.323   0.207 -1.1261 -0.3397  0.4194
  580TIP3    H2 1684   4.163   6.333   0.197 -0.9990 -2.1351  0.1730
  581TIP3   OH2 1685   1.954   6.395   6.404  0.1109 -0.2403 -0.1124
  581TIP3    H1 1686   1.863   6.404   6.431  0.3110 -0.0005  0.5109
  581TIP3    H2 1687   1.968   6.465   6.341 -0.2474 -0.5304 -0.5101
  582TIP3   OH2 1688   1.417   7.317   1.159  0.0009 -0.2393 -0.2413
  582TIP3    H1 1689   1.506   7.309   1.123 -0.3307  0.2896 -1.2160
  582TIP3    H2 1690   1.369   7.243   1.120 -0.2587  0.1078 -0.5906
  583TIP3   OH2 1691   3.729   1.846   0.310  0.4837 -0.8058 -0.4128
  583TIP3    H1 1692   3.646   1.829   0.265 -0.0277 -1.5376  0.7570
  583TIP3    H2 1693   3.776   1.763   0.305  1.1684 -0.3849 -1.0930
  584TIP3   OH2 1694   2.189   3.018   0.535  0.1799  0.1346  0.0513
  584TIP3    H1 1695   2.154   3.011   0.624 -1.1148  0.3190 -0.4107
  584TIP3    H2 1696   2.266   3.074   0.543  0.6428 -0.6320  1.1862
  585TIP3   OH2 1697   0.186   5.095   5.058  0.5991  0.4211 -0.0329
  585TIP3    H1 1698   0.254   5.067   4.997  1.4637  1.4973  0.4169
  585TIP3    H2 1699   0.226   5.087   5.145 -0.4672 -0.6509  0.3971
  586TIP3   OH2 1700   1.642   3.060   2.070  0.9715  0.1505 -0.6672
  586TIP3    H1 1701   1.566   3.026   2.117 -0.0611  1.3968 -1.3909
  586TIP3    H2 1702   1.668   2.988   2.012  1.6223 -1.0175  1.0112
  587TIP3   OH2 1703   6.353   5.471   2.016  0.3214  0.1835 -0.5861
  587TIP3    H1 1704   6.380   5.553   1.975  0.9897  0.3296  0.1209
  587TIP3    H2 1705   6.435   5.434   2.051  0.2415 -1.4168 -1.9928
  588TIP3   OH2 1706   5.031   6.999   4.817 -0.2310 -0.0710  0.1859
  588TIP3    H1 1707   4.981   6.956   4.748  0.2539 -0.9583  0.3734
  588TIP3    H2 1708   5.047   7.087   4.784  0.4561 -0.6476 -1.0683
  589TIP3   OH2 1709   5.028   7.183   5.337  0.5245 -0.7697 -0.1513
  589TIP3    H1 1710   5.102   7.218   5.386 -0.7286 -1.4455  2.4101
  589TIP3    H2 1711   5.024   7.091   5.362 -0.3349 -1.0785 -1.3537
  590TIP3   OH2 1712   3.375   5.462   6.455 -0.6504  0.1670 -0.5963
  590TIP3    H1 1713   3.416   5.491   6.373  0.7512  2.6092  0.8368
  590TIP3    H2 1714   3.306   5.402   6.428  0.0714  0.5108 -3.5208
  591TIP3   OH2 1715   4.639   6.561   1.060 -0.6246 -0.5839  0.5791
  591TIP3    H1 1716   4.651   6.615   0.982 -1.8842 -0.5299  0.3931
  591TIP3    H2 1717   4.712   6.500   1.059  0.8344  1.0898  0.7775
  592TIP3   OH2 1718   7.111   5.257   2.063 -0.2124 -0.2597 -0.2273
  592TIP3    H1 1719   7.108   5.162   2.073  0.5770 -0.1609  1.1508
  592TIP3    H2 1720   7.056   5.290   2.134  0.6854  0.3485  0.1982
  593TIP3   OH2 1721   1.620   5.819   2.226 -0.1880  0.1006  0.7648
  593TIP3    H1 1722   1.656   5.810   2.138  2.1290 -1.9287  1.7764
  593TIP3    H2 1723   1.612   5.913   2.239 -1.2207  0.4450 -1.7967
  594TIP3   OH2 1724   8.081   4.853   3.511 -0.2441 -0.6278 -0.1368
  594TIP3    H1 1725   8.000   4.851   3.461  1.4151 -0.5237 -3.0361
  594TIP3    H2 1726   8.093   4.763   3.541 -0.7620 -0.9353 -0.8468
  595TIP3   OH2 1727   4.770   5.859   1.498  0.1931 -0.0599 -1.0127
  595TIP3    H1 1728   4.719   5.779   1.504  1.6067 -1.1015 -2.2334
  595TIP3    H2 1729   4.724   5.912   1.432  0.1207 -0.5258 -1.3355
  596TIP3   OH2 1730   4.426   6.997   6.081  0.0590 -0.4719 -0.0263
  596TIP3    H1 1731   4.384   7.046   6.152  0.7241  0.2227 -0.1053
  596TIP3    H2 1732   4.396   6.907   6.094 -0.7551 -0.1514  0.4374
  597TIP3   OH2 1733   0.153   6.359   4.399 -0.4799  0.0005  0.3448
  597TIP3    H1 1734   0.197   6.398   4.474 -1.1344  0.1755  0.6510
  597TIP3    H2 1735   0.080   6.309   4.437  0.4017 -1.6331 -0.0201
  598TIP3   OH2 1736   4.684   3.658   2.498  0.4048 -0.1320 -0.0244
  598TIP3    H1 1737   4.650   3.615   2.576 -1.9928  2.9426  0.7727
  598TIP3    H2 1738   4.610   3.706   2.462  2.6344  2.7098 -1.2424
  599TIP3   OH2 1739   4.158   7.013   1.584  0.0875 -0.5743 -0.5360
  599TIP3    H1 1740   4.170   6.960   1.505 -1.5339  0.7710 -1.7676
  599TIP3    H2 1741   4.208   7.093   1.567 -2.4109  0.8928 -1.4781
  600TIP3   OH2 1742   7.368   1.829   5.637  0.3649 -0.0600 -0.6236
  600TIP3    H1 1743   7.398   1.786   5.556 -1.2435 -0.5129 -1.0248
  600TIP3    H2 1744   7.314   1.902   5.606 -1.0193 -0.7815 -0.0014
  601TIP3   OH2 1745   2.132   2.220   3.866 -0.6016 -0.2474  0.0155
  601TIP3    H1 1746   2.038   2.237   3.871 -0.5814  0.1004 -0.6852
  601TIP3    H2 1747   2.172   2.307   3.861 -0.3493 -0.4105 -1.2025
  602TIP3   OH2 1748   7.574   0.686   4.644 -0.0856  0.1562 -0.1148
  602TIP3    H1 1749   7.653   0.676   4.591 -0.5865 -0.7584 -0.6951
  602TIP3    H2 1750   7.516   0.741   4.591 -0.8025 -1.2024 -0.7974
  603TIP3   OH2 1751   2.426   7.600   4.710  0.0008 -0.5954  0.5157
  603TIP3    H1 1752   2.456   7.604   4.620 -0.8946 -0.4454  0.2150
  603TIP3    H2 1753   2.331   7.593   4.704 -0.7156  4.4281  1.4029
  604TIP3   OH2 1754   3.523   7.443   5.203 -0.3676 -0.3930 -0.1602
  604TIP3    H1 1755   3.487   7.532   5.205  1.3930  0.3687 -0.9410
  604TIP3    H2 1756   3.446   7.386   5.209 -1.7491  1.1522 -2.0892
  605TIP3   OH2 1757   3.530   5.552   4.248  0.1832  0.0703 -0.2859
  605TIP3    H1 1758   3.617   5.515   4.236  0.9502  1.7779 -0.3611
  605TIP3    H2 1759   3.514   5.547   4.343  0.2579 -0.4736 -0.3029
  606TIP3   OH2 1760   1.761   3.567   6.062  0.6773 -0.7105 -0.2239
  606TIP3    H1 1761   1.744   3.647   6.112  2.0392 -1.2811  1.2278
  606TIP3    H2 1762   1.837   3.587   6.008  2.1720 -1.5205  1.4827
  607TIP3   OH2 1763   3.125   2.686   0.805 -0.5094  0.6658 -0.4559
  607TIP3    H1 1764   3.099   2.595   0.794 -1.2189  0.6144  1.2531
  607TIP3    H2 1765   3.062   2.721   0.869  0.8261  1.8508  0.2799
  608TIP3   OH2 1766   6.240   7.804   2.309 -0.1391 -0.2412 -0.0341
  608TIP3    H1 1767   6.207   7.724   2.350 -0.6137  0.1936  0.4503
  608TIP3    H2 1768   6.169   7.867   2.318 -1.0615 -0.6684 -3.3470
  609TIP3   OH2 1769   2.002   5.128   3.871 -0.2329  0.0040  0.0591
  609TIP3    H1 1770   2.051   5.192   3.819 -1.0366 -0.2635 -1.0725
  609TIP3    H2 1771   1.989   5.054   3.811  0.5800 -1.1835  1.2999
  610TIP3   OH2 1772   1.925   6.103   1.723 -0.0241  0.0358 -0.5289
  610TIP3    H1 1773   2.006   6.119   1.673  0.6425  0.3326  0.6185
  610TIP3    H2 1774   1.869   6.177   1.701  0.0523 -0.1158 -1.2581
  611TIP3   OH2 1775   6.920   2.853   1.934 -0.5073  0.1195 -0.1293
  611TIP3    H1 1776   6.978   2.848   1.859 -0.6617 -0.0425 -0.2379
  611TIP3    H2 1777   6.916   2.764   1.969  0.6697  0.4434  0.9209
  612TIP3   OH2 1778   3.583   6.425   3.595 -0.2174  0.0383 -0.4752
  612TIP3    H1 1779   3.610   6.397   3.683  1.0709 -0.7128 -1.0797
  612TIP3    H2 1780   3.583   6.521   3.599  0.8818  0.0344  0.0599
  613TIP3   OH2 1781   4.026   0.764   1.534  0.4525  0.0294  0.5419
  613TIP3    H1 1782   4.040   0.858   1.545 -0.5619  0.0515  1.8202
  613TIP3    H2 1783   3.949   0.744   1.587  0.9981 -1.6325  0.7824
  614TIP3   OH2 1784   7.067   5.143   4.305 -0.2868  0.1357 -0.0431
  614TIP3    H1 1785   7.092   5.234   4.318  0.3493  0.0705 -0.7621
  614TIP3    H2 1786   6.972   5.146   4.292 -0.2908  0.6785  0.0962
  615TIP3   OH2 1787   0.202   4.813   6.358 -0.5382  0.7393  0.4611
  615TIP3    H1 1788   0.290   4.832   6.327  0.3450 -0.3595  2.2095
  615TIP3    H2 1789   0.173   4.895   6.399  0.8406  0.2821  2.4733
  616TIP3   OH2 1790   7.214   1.932   6.688  0.1583  0.6363 -0.1641
  616TIP3    H1 1791   7.212   1.965   6.778  0.0988 -0.7853  0.3783
  616TIP3    H2 1792   7.258   1.847   6.694  0.2491  0.5598 -1.4963
  617TIP3   OH2 1793   4.879   2.682   4.004 -0.0084 -0.1248 -0.2084
  617TIP3    H1 1794   4.959   2.631   4.014  0.7028  1.0775  0.3762
  617TIP3    H2 1795   4.890   2.728   3.921 -0.8982 -1.2996 -1.0232
  618TIP3   OH2 1796   4.369   0.307   2.474 -0.0901 -0.2556  0.4842
  618TIP3    H1 1797   4.322   0.326   2.393 -0.8174 -0.0140  0.9537
  618TIP3    H2 1798   4.306   0.324   2.543  0.4387 -0.7285  1.0960
  619TIP3   OH2 1799   2.203   2.487   1.106 -0.4677  0.1254  0.3284
  619TIP3    H1 1800   2.256   2.417   1.068 -0.5363 -0.8617  1.9318
  619TIP3    H2 1801   2.126   2.443   1.141  0.0266  0.7832  2.3915
  620TIP3   OH2 1802   3.749   2.933   2.866  0.2164 -0.4679 -0.1337
  620TIP3    H1 1803   3.831   2.973   2.894 -0.0868 -0.7780  1.2571
  620TIP3    H2 1804   3.728   2.978   2.783  1.1024  0.5409  0.1589
  621TIP3   OH2 1805   5.457   0.742   0.197  0.4060 -0.1011  0.2132
  621TIP3    H1 1806   5.465   0.779   0.284  0.9512  1.1519 -0.3518
  621TIP3    H2 1807   5.547   0.730   0.167  0.2258  0.1083 -0.4342
  622TIP3   OH2 1808   0.876   3.748   2.598 -0.7426  0.3779 -0.1833
  622TIP3    H1 1809   0.799   3.803   2.614 -1.2957 -0.3118 -0.4287
  622TIP3    H2 1810   0.903   3.771   2.509 -2.1698 -1.1342 -1.0582
  623TIP3   OH2 1811   6.036   1.055   4.044  0.1641 -0.5068 -0.4321
  623TIP3    H1 1812   6.021   0.963   4.023 -0.8690  0.0327 -2.2934
  623TIP3    H2 1813   5.948   1.090   4.059  0.4653  0.3699 -0.6649
  624TIP3   OH2 1814   1.594   0.798   6.341  0.4208  0.6005  0.0539
  624TIP3    H1 1815   1.575   0.705   6.327 -3.2774  0.9384  1.6311
  624TIP3    H2 1816   1.686   0.801   6.367  1.0474 -2.3918 -1.4233
  625TIP3   OH2 1817   3.574   1.244   6.301 -0.8199 -0.4025  0.2018
  625TIP3    H1 1818   3.639   1.175   6.314 -0.1153  0.3490  0.7642
  625TIP3    H2 1819   3.579   1.265   6.207 -0.7953 -0.8611  0.0980
  626TIP3   OH2 1820   1.943   0.747   5.788  0.1790  0.0645 -0.8186
  626TIP3    H1 1821   1.911   0.836   5.777 -1.1588 -0.0329  1.6556
  626TIP3    H2 1822   1.873   0.692   5.754 -0.1843 -0.0577  0.0938
  627TIP3   OH2 1823   2.961   0.215   3.671  0.2681  0.6873 -0.0500
  627TIP3    H1 1824   2.902   0.290   3.671  0.3949  0.8421 -1.9033
  627TIP3    H2 1825   2.993   0.210   3.581  1.6162 -0.5450  0.4585
  628TIP3   OH2 1826   3.435   2.821   5.313 -0.4517  0.1395 -0.3196
  628TIP3    H1 1827   3.372   2.846   5.246 -0.0526  2.5617  0.1052
  628TIP3    H2 1828   3.400   2.857   5.394  0.4493 -0.3080  0.2930
  629TIP3   OH2 1829   0.350   5.775   4.108  0.9043 -0.1194 -1.2450
  629TIP3    H1 1830   0.442   5.768   4.134  0.2109 -0.4440  1.4474
  629TIP3    H2 1831   0.308   5.821   4.180 -1.5318 -2.3899 -1.0481
  630TIP3   OH2 1832   5.121   5.679   2.614  0.2324  0.3269  0.1829
  630TIP3    H1 1833   5.143   5.754   2.670 -0.6519  1.1094 -0.4822
  630TIP3    H2 1834   5.064   5.625   2.667  0.5812  0.3100  0.5445
  631TIP3   OH2 1835   3.290   2.297   3.957  0.1338  0.0710 -0.2189
  631TIP3    H1 1836   3.270   2.306   3.863  0.0029 -0.3803 -0.2338
  631TIP3    H2 1837   3.284   2.203   3.974  0.5184  0.1162  0.1638
  632TIP3   OH2 1838   0.820   6.240   6.190  0.4968 -0.5542  0.3121
  632TIP3    H1 1839   0.733   6.226   6.227  0.0050 -1.0499 -0.9676
  632TIP3    H2 1840   0.833   6.167   6.129  0.9956  0.5316 -0.9408
  633TIP3   OH2 1841   7.963   3.544   0.884 -0.1103 -0.0614 -0.2633
  633TIP3    H1 1842   7.988   3.635   0.899 -0.7705 -0.2056  2.0706
  633TIP3    H2 1843   8.045   3.500   0.858  0.4202  0.9671 -0.3702
  634TIP3   OH2 1844   6.494   0.132   3.394  0.2622  0.5359 -0.1390
  634TIP3    H1 1845   6.510   0.088   3.311 -0.0424  0.5062 -0.1836
  634TIP3    H2 1846   6.498   0.225   3.373  1.5064  0.5454  0.0697
  635TIP3   OH2 1847   1.285   3.168   2.650  0.2798 -0.4333 -0.2040
  635TIP3    H1 1848   1.228   3.104   2.692  1.2348 -0.4551  1.1118
  635TIP3    H2 1849   1.329   3.119   2.580 -2.8882  0.1049 -2.8204
  636TIP3   OH2 1850   3.414   4.507   2.238 -0.0977 -0.3113 -0.3917
  636TIP3    H1 1851   3.444   4.564   2.309 -1.8258  1.9863 -1.3970
  636TIP3    H2 1852   3.484   4.511   2.173 -0.2154  0.7027 -0.4664
  637TIP3   OH2 1853   5.524   6.357   6.703  0.4744 -0.0019 -0.3869
  637TIP3    H1 1854   5.449   6.348   6.645 -0.2641  0.7570  0.4366
  637TIP3    H2 1855   5.565   6.439   6.677 -0.2541  0.6890  0.5940
  638TIP3   OH2 1856   5.891   1.259   0.946  0.8305 -0.1628 -0.6885
  638TIP3    H1 1857   5.838   1.181   0.960  0.7001 -0.7235 -3.6165
  638TIP3    H2 1858   5.828   1.331   0.947  0.8478 -0.1453  1.2860
  639TIP3   OH2 1859   3.203   4.568   1.578  0.0270 -0.0855 -0.1036
  639TIP3    H1 1860   3.158   4.511   1.515 -0.0943 -0.1042 -0.0010
  639TIP3    H2 1861   3.294   4.568   1.549  0.1565 -0.8654  0.2805
  640TIP3   OH2 1862   3.647   1.274   0.385  0.0755  0.3880 -0.1197
  640TIP3    H1 1863   3.665   1.353   0.333 -0.4681 -0.1709 -1.2058
  640TIP3    H2 1864   3.556   1.252   0.364  0.1195 -0.3423  0.4189
  641TIP3   OH2 1865   7.583   4.585   3.005  0.2492 -0.5550  0.1520
  641TIP3    H1 1866   7.617   4.501   2.974  0.3595 -0.7891  0.8669
  641TIP3    H2 1867   7.637   4.605   3.082 -0.3767 -0.2847  0.5288
  642TIP3   OH2 1868   5.698   1.951   3.625  0.1275 -0.4620 -0.0719
  642TIP3    H1 1869   5.675   1.941   3.718  0.0999 -0.1714 -0.0444
  642TIP3    H2 1870   5.792   1.968   3.625 -0.1311  1.0888  0.0267
  643TIP3   OH2 1871   1.205   4.297   2.406  0.1739 -0.4838  0.4892
  643TIP3    H1 1872   1.130   4.255   2.362  0.8446 -2.3047  0.9913
  643TIP3    H2 1873   1.193   4.390   2.389 -2.0254 -0.7470  0.2566
  644TIP3   OH2 1874   8.052   6.381   4.348 -0.1981  0.3638  0.4457
  644TIP3    H1 1875   8.091   6.445   4.288  2.2391 -0.3291  1.1794
  644TIP3    H2 1876   7.964   6.366   4.313  0.3376  1.6430 -1.6371
  645TIP3   OH2 1877   2.751   0.655   1.895 -0.1171  0.2159  0.1274
  645TIP3    H1 1878   2.689   0.604   1.842 -1.0496  2.4583 -1.1240
  645TIP3    H2 1879   2.695   0.701   1.957  0.7011 -0.3126  1.2734
  646TIP3   OH2 1880   4.960   0.857   4.811 -0.9455 -0.5176  0.1117
  646TIP3    H1 1881   4.945   0.927   4.748  2.4237 -0.5866 -0.9781
  646TIP3    H2 1882   4.932   0.893   4.895  0.2482  1.9986 -0.4883
  647TIP3   OH2 1883   8.297   1.043   3.894 -0.1938 -0.2783  0.2379
  647TIP3    H1 1884   8.370   1.032   3.955 -0.3636 -1.8995  0.1739
  647TIP3    H2 1885   8.233   1.095   3.943  0.3724 -0.1083  0.8234
  648TIP3   OH2 1886   4.621   7.198   6.268  0.1242 -0.2348  0.3702
  648TIP3    H1 1887   4.565   7.121   6.254  1.4762 -1.2682  0.3644
  648TIP3    H2 1888   4.629   7.238   6.182 -1.2009  0.3643  0.5141
  649TIP3   OH2 1889   0.105   7.339   6.618  0.3898 -0.3003  0.0697
  649TIP3    H1 1890   0.141   7.399   6.554 -1.0781 -0.3722 -0.8866
  649TIP3    H2 1891   0.019   7.375   6.639  0.5234 -0.7115  1.4033
  650TIP3   OH2 1892   7.874   4.675   2.795 -0.1559 -0.2027  0.2304
  650TIP3    H1 1893   7.849   4.627   2.874 -2.3378  0.4560 -0.0008
  650TIP3    H2 1894   7.871   4.767   2.822 -1.9099  0.0891 -0.8144
  651TIP3   OH2 1895   3.044   7.157   4.421 -0.2971 -0.4206  0.1984
  651TIP3    H1 1896   2.990   7.108   4.359 -0.3461 -0.9053  0.6157
  651TIP3    H2 1897   3.121   7.101   4.434  0.2873  0.2448 -0.3578
  652TIP3   OH2 1898   7.437   3.743   1.736 -0.0232  0.5274  0.4572
  652TIP3    H1 1899   7.419   3.819   1.681 -0.4607  0.4905  0.5404
  652TIP3    H2 1900   7.468   3.676   1.675 -1.2282  0.2411  0.1325
  653TIP3   OH2 1901   2.684   4.233   1.687 -0.8962 -0.2275  0.2996
  653TIP3    H1 1902   2.646   4.162   1.739 -0.7476 -0.5071  0.0319
  653TIP3    H2 1903   2.778   4.228   1.703 -1.0437  1.1758  1.8443
  654TIP3   OH2 1904   4.773   3.699   3.239  0.0127 -0.9441 -0.5804
  654TIP3    H1 1905   4.823   3.776   3.266 -2.1556  0.0085  0.9626
  654TIP3    H2 1906   4.787   3.693   3.145 -0.7406  2.1075 -0.9670
  655TIP3   OH2 1907   4.511   5.013   6.288 -0.3931  0.3883  0.2634
  655TIP3    H1 1908   4.479   4.959   6.216 -0.2488  1.1455 -0.3809
  655TIP3    H2 1909   4.522   5.100   6.250 -1.0615  0.9881  1.4071
  656TIP3   OH2 1910   6.837   5.027   4.875  0.7012  0.3460 -0.6993
  656TIP3    H1 1911   6.790   5.054   4.954  1.7815  0.6742 -0.1582
  656TIP3    H2 1912   6.834   4.931   4.877  0.9482  0.3480 -0.1173
  657TIP3   OH2 1913   5.122   0.897   3.398 -0.2958  0.6030  0.1590
  657TIP3    H1 1914   5.103   0.858   3.483  0.4227 -0.1713 -0.0233
  657TIP3    H2 1915   5.051   0.960   3.384 -1.1749 -0.2453  0.6955
  658TIP3   OH2 1916   0.160   1.013   3.518  0.1223  0.1898 -0.1787
  658TIP3    H1 1917   0.149   1.093   3.568 -3.2390 -0.5400  0.4817
  658TIP3    H2 1918   0.179   0.946   3.584  0.1659 -0.0070 -0.3885
  659TIP3   OH2 1919   5.948   0.310   0.929  0.0841  0.4317 -0.1343
  659TIP3    H1 1920   5.879   0.374   0.945 -1.0948 -0.6029 -0.9362
  659TIP3    H2 1921   6.023   0.342   0.980 -0.4410  2.4690 -0.5772
  660TIP3   OH2 1922   5.154   0.178   0.572  0.3523 -0.0982 -0.1122
  660TIP3    H1 1923   5.179   0.097   0.617 -1.1829  0.1440  1.2944
  660TIP3    H2 1924   5.145   0.153   0.480 -2.2711 -2.1516  0.5664
  661TIP3   OH2 1925   6.584   1.135   2.350 -0.8931  0.1625 -0.1630
  661TIP3    H1 1926   6.603   1.229   2.358  0.4566 -0.1090  0.1596
  661TIP3    H2 1927   6.497   1.125   2.388 -1.3335  1.3777 -0.7979
  662TIP3   OH2 1928   5.786   4.645   3.949  0.3788  0.7990 -0.3323
  662TIP3    H1 1929   5.771   4.676   4.038  0.3175  0.2686 -0.1561
  662TIP3    H2 1930   5.712   4.679   3.899 -0.1483  0.2061  0.0395
  663TIP3   OH2 1931   8.016   5.921   0.260  0.0388  0.0958  0.1561
  663TIP3    H1 1932   7.986   5.870   0.335 -0.4420 -0.0251 -0.1143
  663TIP3    H2 1933   8.089   5.973   0.293  0.3639 -0.5756  0.4967
  664TIP3   OH2 1934   6.515   7.243   1.803 -0.1101  0.5616  0.5702
  664TIP3    H1 1935   6.477   7.188   1.871 -1.1080  0.4269 -0.0780
  664TIP3    H2 1936   6.447   7.308   1.784 -0.8208 -0.7713 -1.8859
  665TIP3   OH2 1937   8.165   6.450   5.926  0.3787 -0.6831  0.3331
  665TIP3    H1 1938   8.209   6.478   6.006 -0.9368 -1.4594  1.3760
  665TIP3    H2 1939   8.236   6.421   5.868  1.4110  0.6254  0.8914
  666TIP3   OH2 1940   2.452   1.512   1.734  0.1586 -0.3243  0.3351
  666TIP3    H1 1941   2.462   1.421   1.706  1.0973 -0.6592  1.6585
  666TIP3    H2 1942   2.419   1.506   1.824  0.8709  0.6238  0.6755
  667TIP3   OH2 1943   6.351   5.377   0.343 -0.4995  0.2491  0.0135
  667TIP3    H1 1944   6.316   5.406   0.428 -1.4029 -0.3323 -0.1403
  667TIP3    H2 1945   6.366   5.458   0.294 -1.7749  0.5259  0.0475
  668TIP3   OH2 1946   2.347   4.151   1.450 -0.6305  0.1330 -0.3715
  668TIP3    H1 1947   2.268   4.188   1.490 -0.6447 -0.6362  0.3550
  668TIP3    H2 1948   2.409   4.223   1.448 -0.5840  0.1757  1.1942
  669TIP3   OH2 1949   7.544   6.366   4.555  0.5272  0.5011  0.3115
  669TIP3    H1 1950   7.500   6.451   4.563 -0.3157  0.2575 -1.2776
  669TIP3    H2 1951   7.500   6.310   4.618 -1.9931  0.0992 -1.6402
  670TIP3   OH2 1952   7.390   1.656   4.699  0.0854 -0.5119  0.1388
  670TIP3    H1 1953   7.467   1.601   4.681 -1.1811 -2.0946 -0.7397
  670TIP3    H2 1954   7.315   1.603   4.671 -1.4649  0.3871  2.2712
  671TIP3   OH2 1955   1.145   1.858   6.127 -0.0681  0.0364 -0.9444
  671TIP3    H1 1956   1.107   1.812   6.201 -0.1484  1.3475 -0.1434
  671TIP3    H2 1957   1.225   1.810   6.107  1.5504  1.3170  1.9116
  672TIP3   OH2 1958   0.220   5.400   3.048  0.7375  0.0057 -0.1081
  672TIP3    H1 1959   0.281   5.450   2.994  1.6118 -1.0820 -0.1567
  672TIP3    H2 1960   0.165   5.353   2.985  1.0434 -0.4280 -0.0465
  673TIP3   OH2 1961   1.418   1.911   2.442 -0.2411  0.0441 -0.2814
  673TIP3    H1 1962   1.385   1.840   2.388 -0.9782 -0.0097  0.2174
  673TIP3    H2 1963   1.429   1.873   2.529  1.8543 -0.1248 -0.5707
  674TIP3   OH2 1964   8.146   1.915   1.558  0.3921 -0.1081 -0.1090
  674TIP3    H1 1965   8.175   1.951   1.642  0.4938  0.9531 -0.5821
  674TIP3    H2 1966   8.092   1.985   1.520 -1.0428 -1.2193 -0.1840
  675TIP3   OH2 1967   7.386   6.729   1.147  0.0685  0.1140  0.0107
  675TIP3    H1 1968   7.442   6.672   1.201  1.0934  0.2241 -0.9003
  675TIP3    H2 1969   7.348   6.670   1.081 -1.0922  0.0017  0.7450
  676TIP3   OH2 1970   4.930   5.533   0.745  0.2357 -0.5424  0.1067
  676TIP3    H1 1971   5.018   5.559   0.716 -0.5899  0.9996 -1.2288
  676TIP3    H2 1972   4.894   5.484   0.671 -0.3691 -0.2818  0.2203
  677TIP3   OH2 1973   4.189   5.460   4.522  0.5811  0.7589  0.3353
  677TIP3    H1 1974   4.190   5.474   4.616 -0.5399  2.2056  0.1650
  677TIP3    H2 1975   4.113   5.509   4.491  1.5071  1.1593 -1.4434
  678TIP3   OH2 1976   5.858   1.552   3.665 -0.2470 -0.7929 -0.1973
  678TIP3    H1 1977   5.855   1.474   3.610 -1.6359 -0.0958 -1.1822
  678TIP3    H2 1978   5.774   1.595   3.650  0.0479  0.3296  1.1641
  679TIP3   OH2 1979   7.713   6.400   6.662 -0.6843  0.1416 -0.1598
  679TIP3    H1 1980   7.645   6.377   6.598 -1.5778  0.1780  0.7385
  679TIP3    H2 1981   7.795   6.384   6.617 -1.2766  0.9573 -1.6109
  680TIP3   OH2 1982   4.956   3.423   1.900 -0.0618  0.1702  0.2103
  680TIP3    H1 1983   4.977   3.380   1.817  1.4091 -0.6161  0.9547
  680TIP3    H2 1984   5.016   3.497   1.904 -0.7270  0.7202  0.1953
  681TIP3   OH2 1985   6.795   3.910   6.664  0.6294  0.2121 -0.2762
  681TIP3    H1 1986   6.793   3.846   6.593  0.5343  1.8373 -1.8185
  681TIP3    H2 1987   6.795   3.858   6.744  2.2754 -1.7641 -1.4515
  682TIP3   OH2 1988   8.204   1.306   1.409 -0.4214  0.5623 -0.0027
  682TIP3    H1 1989   8.257   1.377   1.445 -0.6369  1.4307 -1.3315
  682TIP3    H2 1990   8.260   1.265   1.343 -0.2979 -0.5301  0.7559
  683TIP3   OH2 1991   5.290   3.806   1.956  0.5990  0.1345  0.2247
  683TIP3    H1 1992   5.362   3.863   1.983  0.5832 -0.1632  0.9012
  683TIP3    H2 1993   5.283   3.821   1.861 -0.8128  2.8750  0.6510
  684TIP3   OH2 1994   3.346   7.618   5.522  0.0330  0.5448 -0.0360
  684TIP3    H1 1995   3.369   7.537   5.568 -0.2474  1.1277  1.1369
  684TIP3    H2 1996   3.272   7.593   5.466 -1.0315  0.3212  1.4271
  685TIP3   OH2 1997   4.497   6.786   2.525 -0.0229  0.3121  0.3106
  685TIP3    H1 1998   4.499   6.690   2.521 -1.8085  0.2649  0.1215
  685TIP3    H2 1999   4.460   6.806   2.610  1.4006  0.8876  0.8325
  686TIP3   OH2 2000   3.567   7.797   5.465  0.2392 -0.1791 -0.1899
  686TIP3    H1 2001   3.491   7.741   5.480  0.6006 -0.3013  1.2865
  686TIP3    H2 2002   3.592   7.779   5.374  1.0731 -3.4019  0.5448
  687TIP3   OH2 2003   4.495   5.920   3.345  0.1235 -0.1616  0.3367
  687TIP3    H1 2004   4.559   5.848   3.353 -1.4525 -1.5153  1.3729
  687TIP3    H2 2005   4.436   5.891   3.275  0.9978  1.4359 -1.1521
  688TIP3   OH2 2006   4.113   0.156   1.974  0.2916 -0.1317  0.8053
  688TIP3    H1 2007   4.100   0.157   1.879  0.2796 -0.8302  0.7975
  688TIP3    H2 2008   4.206   0.174   1.985 -0.1214  2.3300  0.7656
  689TIP3   OH2 2009   1.568   6.693   5.244  0.4675 -0.4049  0.2382
  689TIP3    H1 2010   1.527   6.607   5.248  0.1103 -0.1977  1.3609
  689TIP3    H2 2011   1.534   6.732   5.164 -1.4425 -0.2932  1.0531
  690TIP3   OH2 2012   3.571   3.778   1.379  0.1828 -0.3127 -0.0483
  690TIP3    H1 2013   3.569   3.868   1.346  1.8291 -0.5306 -0.8665
  690TIP3    H2 2014   3.508   3.731   1.324 -0.3943  0.2533  0.1198
  691TIP3   OH2 2015   4.570   5.290   4.191  1.4641  0.1824  0.1238
  691TIP3    H1 2016   4.570   5.291   4.096  0.1826 -0.5081  0.0849
  691TIP3    H2 2017   4.612   5.372   4.217 -0.9090  1.8991 -1.0560
  692TIP3   OH2 2018   3.451   7.368   5.965 -0.1146  0.7625  0.2034
  692TIP3    H1 2019   3.464   7.463   5.956 -0.0740  0.6155 -1.7323
  692TIP3    H2 2020   3.532   7.329   5.932 -0.4441  0.0455  0.2246
  693TIP3   OH2 2021   7.585   1.078   5.904 -0.2007  1.0709  0.1019
  693TIP3    H1 2022   7.513   1.059   5.843 -1.1312  0.3200  1.4014
  693TIP3    H2 2023   7.546   1.070   5.991  0.9604  2.7127  0.8194
  694TIP3   OH2 2024   4.715   0.220   4.463 -0.6383  0.0217  0.1889
  694TIP3    H1 2025   4.778   0.258   4.524 -0.2706  0.5124 -0.4846
  694TIP3    H2 2026   4.630   0.255   4.491 -0.9644 -2.1736  2.3443
  695TIP3   OH2 2027   4.423   5.258   4.436 -0.4798 -0.0273 -0.3508
  695TIP3    H1 2028   4.369   5.336   4.433  1.2005  1.2436  0.7013
  695TIP3    H2 2029   4.503   5.282   4.388  0.5771 -0.6343  1.0447
  696TIP3   OH2 2030   4.289   4.623   0.218  0.0124 -0.2198  0.4067
  696TIP3    H1 2031   4.306   4.595   0.128 -0.0635  0.5140  0.1628
  696TIP3    H2 2032   4.202   4.588   0.237 -0.4309  0.5287 -0.1830
  697TIP3   OH2 2033   0.538   6.398   4.413  0.1279  0.1874 -0.2930
  697TIP3    H1 2034   0.471   6.407   4.481  1.0746 -0.0930  0.7196
  697TIP3    H2 2035   0.594   6.475   4.426 -0.2886  0.7182 -1.4953
  698TIP3   OH2 2036   1.453   4.467   2.886 -0.4496 -0.2657 -0.5870
  698TIP3    H1 2037   1.445   4.562   2.874 -1.2591 -0.3354 -0.6465
  698TIP3    H2 2038   1.363   4.436   2.889 -0.2154 -0.8792  0.7529
  699TIP3   OH2 2039   3.961   2.996   1.259 -0.4983 -0.1743 -0.4641
  699TIP3    H1 2040   3.983   3.089   1.263 -2.1400  0.2264  0.6227
  699TIP3    H2 2041   4.037   2.951   1.296  0.2508  0.7509 -0.8535
  700TIP3   OH2 2042   1.219   0.019   3.030 -0.0549 -0.0395 -0.2230
  700TIP3    H1 2043   1.188   0.079   3.097  0.6752  2.5595 -2.0447
  700TIP3    H2 2044   1.153   0.022   2.961  0.2281 -0.9855 -0.5612
  701TIP3   OH2 2045   3.961   7.155   1.398  0.2142  0.2141  0.7634
  701TIP3    H1 2046   3.996   7.067   1.415  1.0290  0.3095 -0.3372
  701TIP3    H2 2047   3.866   7.144   1.404  0.3395 -0.4830  1.7914
  702TIP3   OH2 2048   5.769   1.382   4.342 -0.4007 -0.2115 -0.1996
  702TIP3    H1 2049   5.813   1.301   4.317  2.1084  0.0249  2.8475
  702TIP3    H2 2050   5.710   1.356   4.413  0.0577  0.5056  0.4599
  703TIP3   OH2 2051   7.147   7.010   4.294  0.2881  0.2918 -0.4212
  703TIP3    H1 2052   7.157   7.062   4.373 -1.1188 -1.5955  1.1272
  703TIP3    H2 2053   7.066   6.960   4.309  2.0282 -3.1235 -1.2136
  704TIP3   OH2 2054   6.202   0.940   5.048  0.6373  0.1211 -0.0266
  704TIP3    H1 2055   6.230   1.032   5.055  2.4960 -0.4771  1.2175
  704TIP3    H2 2056   6.271   0.891   5.093 -0.8402 -1.8106  0.2412
  705TIP3   OH2 2057   3.038   2.898   3.003 -0.1643  0.0459  0.2040
  705TIP3    H1 2058   3.028   2.936   3.090 -1.0249  0.2903  0.0053
  705TIP3    H2 2059   2.987   2.817   3.007  0.3269 -0.2718  0.1230
  706TIP3   OH2 2060   4.518   1.768   0.870 -0.5022  0.0666 -0.3355
  706TIP3    H1 2061   4.488   1.792   0.957  0.5610  0.0131  0.0631
  706TIP3    H2 2062   4.544   1.852   0.830  2.4077 -0.1866  0.7481
  707TIP3   OH2 2063   0.368   0.386   1.432  0.2856 -0.0310  0.1991
  707TIP3    H1 2064   0.421   0.318   1.474  0.8966  0.0657 -0.3873
  707TIP3    H2 2065   0.390   0.467   1.479 -0.1625 -0.1676  0.6549
  708TIP3   OH2 2066   2.094   6.489   3.087 -0.1662 -0.4405  0.0287
  708TIP3    H1 2067   2.012   6.440   3.094 -1.2237  1.0830 -1.1499
  708TIP3    H2 2068   2.078   6.570   3.136  0.6404 -0.1185 -0.2224
  709TIP3   OH2 2069   7.459   6.495   5.604 -0.4779 -0.6432 -0.0174
  709TIP3    H1 2070   7.525   6.461   5.544  0.2279  0.7342 -0.0772
  709TIP3    H2 2071   7.403   6.551   5.550  0.0989  0.5247  0.5385
  710TIP3   OH2 2072   2.318   3.479   3.946  0.5160 -0.4575 -0.6220
  710TIP3    H1 2073   2.231   3.476   3.986  0.9709 -0.8540  0.3724
  710TIP3    H2 2074   2.335   3.388   3.920  1.2230 -0.6655  0.5195
  711TIP3   OH2 2075   4.128   5.083   5.868 -0.2419  0.1805 -0.1428
  711TIP3    H1 2076   4.201   5.112   5.812  0.7241  1.1375  1.5450
  711TIP3    H2 2077   4.167   5.023   5.930 -1.2724 -0.7084 -0.3168
  712TIP3   OH2 2078   4.421   3.956   1.226 -0.1462 -0.3163 -0.2864
  712TIP3    H1 2079   4.348   3.922   1.277 -0.5944 -0.4270 -0.9790
  712TIP3    H2 2080   4.405   4.050   1.219 -0.2115 -0.3374 -0.4230
  713TIP3   OH2 2081   5.297   4.504   2.057  0.0255 -0.1452  0.2501
  713TIP3    H1 2082   5.259   4.574   2.004 -0.3171  0.3223  1.0911
  713TIP3    H2 2083   5.369   4.545   2.104  0.8922 -0.7699 -0.5140
  714TIP3   OH2 2084   0.781   1.470   5.075  0.5861  0.0667 -0.2503
  714TIP3    H1 2085   0.720   1.484   5.002 -0.4331 -0.0925  0.5481
  714TIP3    H2 2086   0.867   1.478   5.035  0.0535  0.2671 -1.4248
  715TIP3   OH2 2087   0.110   1.563   3.834 -0.0069 -0.8798 -0.0369
  715TIP3    H1 2088   0.085   1.475   3.862  0.0087 -0.2580  2.0549
  715TIP3    H2 2089   0.205   1.566   3.849 -0.1114 -0.2901  0.5016
  716TIP3   OH2 2090   8.074   1.112   2.824  0.0684 -0.6742 -0.4530
  716TIP3    H1 2091   8.056   1.033   2.774  2.0827 -2.1251  0.9606
  716TIP3    H2 2092   8.170   1.122   2.821 -0.0283  1.0046  0.4441
  717TIP3   OH2 2093   1.585   5.054   0.842 -0.1184 -0.8838 -0.1153
  717TIP3    H1 2094   1.495   5.067   0.810 -0.3765  1.6058  1.3886
  717TIP3    H2 2095   1.638   5.112   0.788  0.4691 -1.6016 -0.3239
  718TIP3   OH2 2096   5.129   5.081   3.688  0.0089  0.0720 -0.3074
  718TIP3    H1 2097   5.111   5.142   3.616 -0.7407 -0.7868 -0.8577
  718TIP3    H2 2098   5.078   5.115   3.761 -1.4515 -0.5913 -0.9755
  719TIP3   OH2 2099   3.822   3.998   2.530 -0.2318 -0.8160 -1.1481
  719TIP3    H1 2100   3.796   3.972   2.441 -1.1320 -0.0509 -1.1319
  719TIP3    H2 2101   3.778   3.935   2.587 -2.5998  0.7464 -1.0960
  720TIP3   OH2 2102   7.878   7.210   5.795  0.1119  0.5210  0.7610
  720TIP3    H1 2103   7.877   7.116   5.810 -1.2999  0.2498 -0.7389
  720TIP3    H2 2104   7.944   7.223   5.727 -1.0061  0.3346 -0.3957
  721TIP3   OH2 2105   6.024   2.616   3.124 -0.0230 -0.5204 -0.2995
  721TIP3    H1 2106   6.050   2.706   3.144  0.1415 -0.3135 -1.3715
  721TIP3    H2 2107   6.067   2.563   3.192  1.0197  0.0796 -0.4703
  722TIP3   OH2 2108   1.048   4.728   1.800  0.7148 -0.9777  0.4715
  722TIP3    H1 2109   1.138   4.763   1.798  0.3701 -0.0860  0.1731
  722TIP3    H2 2110   1.005   4.777   1.870 -0.8189  1.9149 -2.2419
  723TIP3   OH2 2111   6.482   1.144   4.363  0.5516  0.1803 -0.4922
  723TIP3    H1 2112   6.473   1.067   4.307 -0.3039 -0.4510  0.4758
  723TIP3    H2 2113   6.476   1.218   4.303 -0.5821 -0.4741 -1.2232
  724TIP3   OH2 2114   4.316   3.462   6.748 -0.1143  0.1074 -0.4478
  724TIP3    H1 2115   4.262   3.540   6.760 -0.8098 -0.4092 -0.1346
  724TIP3    H2 2116   4.380   3.466   6.819 -0.5393  0.0887 -0.0536
  725TIP3   OH2 2117   0.218   6.768   1.604 -0.7737 -0.2779 -0.6518
  725TIP3    H1 2118   0.154   6.697   1.609  1.0383 -1.9153  3.0327
  725TIP3    H2 2119   0.295   6.728   1.564 -0.5787  0.3959 -0.9653
  726TIP3   OH2 2120   0.426   1.929   3.053  0.0946 -0.1905  0.2682
  726TIP3    H1 2121   0.418   1.869   2.979  2.3110 -0.1013 -0.0925
  726TIP3    H2 2122   0.443   2.014   3.013  2.1448 -0.2873  0.8371
  727TIP3   OH2 2123   5.501   3.132   0.683  0.6839 -0.4600 -0.1414
  727TIP3    H1 2124   5.498   3.040   0.659 -0.2931 -0.2029 -1.1091
  727TIP3    H2 2125   5.452   3.137   0.765 -1.0618 -0.5471 -1.1272
  728TIP3   OH2 2126   6.194   0.488   6.540  0.1565 -0.6917  0.4574
  728TIP3    H1 2127   6.189   0.463   6.632 -0.5867 -1.2143  0.2873
  728TIP3    H2 2128   6.103   0.488   6.510  0.2994  0.3697 -0.0514
  729TIP3   OH2 2129   3.357   7.766   6.043  0.1055 -0.0639 -0.1561
  729TIP3    H1 2130   3.393   7.718   5.969 -0.5656 -2.0383  0.7161
  729TIP3    H2 2131   3.281   7.715   6.070 -1.6348  2.3704 -0.1108
  730TIP3   OH2 2132   3.851   0.419   0.381  0.0885  0.0946  0.4108
  730TIP3    H1 2133   3.894   0.481   0.440  1.8064 -0.7270  0.0809
  730TIP3    H2 2134   3.868   0.455   0.293 -0.0778 -0.1465  0.2794
  731TIP3   OH2 2135   5.907   0.485   6.491 -0.2173  0.7205  0.0913
  731TIP3    H1 2136   5.888   0.393   6.507  0.2408  0.7635  0.8839
  731TIP3    H2 2137   5.821   0.525   6.481 -0.4492  0.3569  0.5886
  732TIP3   OH2 2138   6.080   0.760   0.523  0.1365  0.3758 -0.5705
  732TIP3    H1 2139   6.058   0.838   0.574 -0.0711  0.9023 -1.4394
  732TIP3    H2 2140   6.092   0.793   0.434 -0.5196 -0.6699 -1.0646
  733TIP3   OH2 2141   5.059   6.768   3.273  0.4780 -0.0732  0.8507
  733TIP3    H1 2142   5.138   6.814   3.302  0.1326  1.0891  0.0141
  733TIP3    H2 2143   5.038   6.808   3.188  0.1953 -1.8339  0.0497
  734TIP3   OH2 2144   3.598   4.840   1.841  0.1172  0.7008  0.0261
  734TIP3    H1 2145   3.505   4.850   1.860 -0.0317 -0.7161  0.1570
  734TIP3    H2 2146   3.622   4.920   1.794 -0.9517  1.4679  0.7329
  735TIP3   OH2 2147   3.400   3.928   0.995  0.3317  0.4592 -0.3778
  735TIP3    H1 2148   3.316   3.901   1.032  1.0119 -1.0781  0.1136
  735TIP3    H2 2149   3.382   3.942   0.902 -0.0282 -2.0504 -0.7377
  736TIP3   OH2 2150   3.396   1.862   2.460 -0.2912 -0.0651  0.4938
  736TIP3    H1 2151   3.399   1.880   2.366 -0.6142  1.2318  0.7100
  736TIP3    H2 2152   3.427   1.772   2.469  0.9656  0.2185 -0.7429
  737TIP3   OH2 2153   0.966   7.620   5.480  0.0635 -0.5424  0.5116
  737TIP3    H1 2154   0.911   7.662   5.546 -1.3699 -1.5700  0.0399
  737TIP3    H2 2155   0.950   7.670   5.400 -1.3543 -1.6633  0.0385
  738TIP3   OH2 2156   4.099   6.532   0.846  0.0455 -0.4850  0.3013
  738TIP3    H1 2157   4.165   6.467   0.820 -0.1628 -0.5714 -0.0114
  738TIP3    H2 2158   4.137   6.574   0.923  0.5210 -0.4526  0.0582
  739TIP3   OH2 2159   4.458   3.908   0.382  0.7477  0.7471 -0.2162
  739TIP3    H1 2160   4.505   3.964   0.444 -0.1540  1.0254  0.2448
  739TIP3    H2 2161   4.414   3.843   0.436 -0.7508  1.5077 -0.4401
  740TIP3   OH2 2162   6.883   6.498   0.097  0.3632 -0.1666 -0.1479
  740TIP3    H1 2163   6.929   6.445   0.161  0.1873 -0.5150 -0.3106
  740TIP3    H2 2164   6.852   6.574   0.147  0.7521 -0.1328  0.0476
  741TIP3   OH2 2165   2.801   2.375   0.893  0.1432  0.1954  0.8690
  741TIP3    H1 2166   2.807   2.283   0.921  2.1492  0.7942  2.7064
  741TIP3    H2 2167   2.733   2.413   0.948  0.9072  0.2993  1.7730
  742TIP3   OH2 2168   4.327   4.792   3.944  0.0261  0.1620  0.6197
  742TIP3    H1 2169   4.418   4.765   3.937 -0.3193 -1.4514  1.7882
  742TIP3    H2 2170   4.280   4.733   3.885 -0.2229  1.4408 -0.5153
  743TIP3   OH2 2171   6.976   2.984   6.056 -0.2654 -0.0294  0.6106
  743TIP3    H1 2172   7.036   3.016   6.124 -0.0967 -0.7967  0.8406
  743TIP3    H2 2173   6.895   2.965   6.104 -0.8727  1.4580  0.2207
  744TIP3   OH2 2174   8.245   6.028   0.346 -0.1509 -0.0002  0.1774
  744TIP3    H1 2175   8.267   6.109   0.393 -0.3860  0.2389 -0.1129
  744TIP3    H2 2176   8.258   6.050   0.254  0.9761 -0.6748  0.1582
  745TIP3   OH2 2177   4.454   2.444   3.948  0.3469 -0.2387 -0.6237
  745TIP3    H1 2178   4.442   2.538   3.964 -0.8440 -0.4584 -0.0720
  745TIP3    H2 2179   4.546   2.428   3.967  0.3823  0.6743  0.0738
  746TIP3   OH2 2180   1.534   6.419   1.766 -0.2108 -0.6151 -0.0126
  746TIP3    H1 2181   1.495   6.505   1.748 -2.0100 -1.3480  0.1352
  746TIP3    H2 2182   1.560   6.423   1.858  1.3235  0.3220 -0.4505
  747TIP3   OH2 2183   6.641   7.506   6.748  0.2596 -0.1772 -0.4856
  747TIP3    H1 2184   6.721   7.557   6.736 -0.0034 -0.0694 -1.9937
  747TIP3    H2 2185   6.621   7.471   6.661 -1.8043  0.4986 -0.3545
  748TIP3   OH2 2186   8.018   7.132   3.139 -0.1468  0.0415 -0.1404
  748TIP3    H1 2187   8.010   7.177   3.222 -0.0287  1.2019 -0.7415
  748TIP3    H2 2188   7.934   7.087   3.128 -0.0453 -0.3859  0.7365
  749TIP3   OH2 2189   1.312   4.064   3.415  0.6921  0.2144  0.4610
  749TIP3    H1 2190   1.404   4.085   3.397  0.4364 -0.6030 -2.3581
  749TIP3    H2 2191   1.266   4.090   3.335 -0.9879 -2.5134  0.4081
  750TIP3   OH2 2192   6.973   0.693   5.275 -0.4030 -0.1232  0.0370
  750TIP3    H1 2193   6.955   0.625   5.210 -1.0570  0.1484 -0.0781
  750TIP3    H2 2194   6.910   0.676   5.345  0.1669 -0.2937  0.5068
  751TIP3   OH2 2195   2.445   2.199   1.367  0.1273  0.0683  0.0421
  751TIP3    H1 2196   2.497   2.130   1.409  0.5528  0.5122  0.2606
  751TIP3    H2 2197   2.506   2.242   1.307  0.4208  1.4790  1.2954
  752TIP3   OH2 2198   2.115   0.951   3.436  0.2581  0.3534  0.2196
  752TIP3    H1 2199   2.108   0.968   3.342 -1.6061 -1.0039  0.0460
  752TIP3    H2 2200   2.146   0.861   3.442 -1.0660 -0.0859  0.8473
  753TIP3   OH2 2201   7.790   7.734   4.214 -0.0649 -0.2651  0.4099
  753TIP3    H1 2202   7.849   7.803   4.187  0.1212 -1.5861 -3.0782
  753TIP3    H2 2203   7.708   7.779   4.235  0.3533  1.1258 -0.7912
  754TIP3   OH2 2204   1.630   5.328   2.831  0.5497 -0.2974  0.1423
  754TIP3    H1 2205   1.646   5.271   2.756 -1.7871  0.0698 -0.7310
  754TIP3    H2 2206   1.660   5.415   2.802  0.7424 -0.3842  0.0825
  755TIP3   OH2 2207   3.753   2.924   1.748  0.4726  0.0098  0.0230
  755TIP3    H1 2208   3.821   2.964   1.694 -0.5280 -0.2438 -1.5126
  755TIP3    H2 2209   3.699   2.998   1.776  0.7055  0.0944  0.2491
  756TIP3   OH2 2210   4.061   5.919   6.518  0.1775 -0.2371  0.3433
  756TIP3    H1 2211   4.038   5.860   6.446  0.8548 -0.9269  0.6721
  756TIP3    H2 2212   4.120   5.867   6.573 -0.1052  0.3743  1.2447
  757TIP3   OH2 2213   7.689   7.285   6.295 -0.4825 -0.0469  0.4199
  757TIP3    H1 2214   7.771   7.275   6.344 -1.1983 -1.3566  1.4191
  757TIP3    H2 2215   7.671   7.198   6.259  0.2165  0.9414 -2.6239
  758TIP3   OH2 2216   5.154   0.066   6.068 -0.2259 -0.2612  0.3815
  758TIP3    H1 2217   5.125  -0.006   6.124 -1.2406  0.3908  0.7327
  758TIP3    H2 2218   5.091   0.067   5.996  0.2392 -0.2052 -0.0263
  759TIP3   OH2 2219   2.267   5.862   6.160  0.6011 -0.1818 -0.0470
  759TIP3    H1 2220   2.185   5.833   6.119  0.4022 -3.5511  2.3444
  759TIP3    H2 2221   2.238   5.914   6.235  0.7305  0.0045 -0.1250
  760TIP3   OH2 2222   6.098   5.866   1.733 -0.3847 -0.2620  0.1560
  760TIP3    H1 2223   6.182   5.824   1.717 -0.4929 -0.2767 -0.4045
  760TIP3    H2 2224   6.060   5.818   1.807  0.3901  0.1791  0.8559
  761TIP3   OH2 2225   4.002   5.959   4.693  0.2651  0.1129  0.0332
  761TIP3    H1 2226   4.036   6.046   4.674  1.6475 -0.4485 -0.2337
  761TIP3    H2 2227   4.080   5.904   4.702 -0.4778 -1.8109 -3.2185
  762TIP3   OH2 2228   5.814   7.443   4.018  0.0639 -0.2884  0.1955
  762TIP3    H1 2229   5.886   7.442   4.081  0.3225 -3.4592  0.0415
  762TIP3    H2 2230   5.848   7.398   3.941 -1.0243  1.3162 -1.3067
  763TIP3   OH2 2231   3.282   5.048   6.578  0.1889  0.6377  0.1251
  763TIP3    H1 2232   3.273   4.961   6.541 -3.7184 -0.2777  2.6847
  763TIP3    H2 2233   3.266   5.107   6.505  0.2494 -0.8463 -1.1271
  764TIP3   OH2 2234   3.178   6.093   4.767  0.3038  0.3428 -0.1969
  764TIP3    H1 2235   3.153   6.157   4.701 -0.5012  0.5977  0.3338
  764TIP3    H2 2236   3.270   6.111   4.785  1.0745 -0.9070 -2.5240
  765TIP3   OH2 2237   4.524   3.279   5.347  0.1282 -0.0180 -0.6889
  765TIP3    H1 2238   4.437   3.319   5.346 -0.1037 -0.5113 -2.2636
  765TIP3    H2 2239   4.575   3.336   5.404 -1.3619 -0.0539  0.7539
  766TIP3   OH2 2240   0.375   4.482   0.327  0.1277 -0.0187  0.1886
  766TIP3    H1 2241   0.374   4.486   0.231  0.6792 -1.7329  0.0837
  766TIP3    H2 2242   0.342   4.394   0.348  2.5905 -0.7249  1.4575
  767TIP3   OH2 2243   4.675   0.198   5.968  0.0912  0.0762  0.1540
  767TIP3    H1 2244   4.670   0.107   5.998  3.5125 -0.3697 -0.2906
  767TIP3    H2 2245   4.676   0.193   5.873  4.0714  0.0528  0.0186
  768TIP3   OH2 2246   7.897   4.529   2.536 -0.1513  0.6199 -0.0620
  768TIP3    H1 2247   7.856   4.526   2.622  0.3693  0.2228  0.1766
  768TIP3    H2 2248   7.957   4.603   2.540  0.6441 -0.0235  0.2794
  769TIP3   OH2 2249   1.690   1.204   6.217  0.3980  0.1980  0.0354
  769TIP3    H1 2250   1.660   1.294   6.229 -0.9087 -0.5010  2.9142
  769TIP3    H2 2251   1.617   1.150   6.247  0.4110 -1.9810 -3.3359
  770TIP3   OH2 2252   1.818   4.985   1.501  0.0561 -0.1160 -0.0004
  770TIP3    H1 2253   1.726   5.011   1.500  0.3800  1.0627  0.1368
  770TIP3    H2 2254   1.861   5.043   1.438  0.7439 -0.5219  0.0832
  771TIP3   OH2 2255   3.675   1.288   2.726  0.4927  0.0491 -0.0172
  771TIP3    H1 2256   3.688   1.363   2.784  0.4170  0.7048 -0.8302
  771TIP3    H2 2257   3.732   1.221   2.762  1.1773  0.7624  0.2715
  772TIP3   OH2 2258   4.155   6.010   4.425  0.0282  0.0705  0.3821
  772TIP3    H1 2259   4.165   6.022   4.331 -0.4832  0.0039  0.3123
  772TIP3    H2 2260   4.164   6.098   4.462  0.7324  0.0259  0.3245
  773TIP3   OH2 2261   7.861   2.296   0.226  0.4561  0.0845  0.3244
  773TIP3    H1 2262   7.823   2.379   0.255 -1.1806 -1.2135  2.1347
  773TIP3    H2 2263   7.911   2.319   0.147 -1.0688  2.5276 -0.0395
  774TIP3   OH2 2264   3.359   5.224   2.223  0.8124  0.6644  0.5235
  774TIP3    H1 2265   3.404   5.181   2.150  0.0012  1.2266 -0.3326
  774TIP3    H2 2266   3.267   5.205   2.208  0.7433 -0.5368  2.2996
  775TIP3   OH2 2267   1.718   0.553   5.029 -0.2943 -0.2553  0.7389
  775TIP3    H1 2268   1.681   0.609   5.097 -1.2998  0.5765 -0.4424
  775TIP3    H2 2269   1.766   0.485   5.077 -0.1691  0.8444  2.2289
  776TIP3   OH2 2270   0.957   3.080   2.672  0.5866 -0.4635 -0.3443
  776TIP3    H1 2271   1.012   3.039   2.739 -0.4338  0.5091  1.1521
  776TIP3    H2 2272   0.881   3.022   2.665  0.9738 -0.9013 -1.1752
  777TIP3   OH2 2273   4.596   7.043   6.631  0.2433  0.3316  0.2279
  777TIP3    H1 2274   4.668   7.007   6.579  0.6166  0.5326  0.5986
  777TIP3    H2 2275   4.625   7.033   6.722  0.1515  1.1417  0.3543
  778TIP3   OH2 2276   3.617   2.581   0.862  0.7456 -0.0046  0.2943
  778TIP3    H1 2277   3.605   2.494   0.824  1.0290 -1.4889  3.3174
  778TIP3    H2 2278   3.531   2.604   0.897  0.9033  0.4998  0.3603
  779TIP3   OH2 2279   4.507   7.022   1.490 -0.0100  0.4161  0.8120
  779TIP3    H1 2280   4.452   6.967   1.434  0.7058  1.1600 -0.6644
  779TIP3    H2 2281   4.444   7.074   1.541 -0.6831  0.2296  0.1925
  780TIP3   OH2 2282   6.298   3.736   5.547  0.3933  0.0382  0.2215
  780TIP3    H1 2283   6.240   3.729   5.623 -0.3198  0.6118 -0.2557
  780TIP3    H2 2284   6.384   3.758   5.585  0.0605  0.2750  0.8603
  781TIP3   OH2 2285   2.809   1.354   1.862  0.1613 -0.7958 -0.6368
  781TIP3    H1 2286   2.904   1.361   1.852 -0.0653  0.5803 -2.2179
  781TIP3    H2 2287   2.780   1.444   1.882 -0.8239 -1.1987 -0.1579
  782TIP3   OH2 2288   7.047   5.030   0.259  0.4754  0.0323  0.4071
  782TIP3    H1 2289   6.997   5.010   0.179  0.5304  1.0439  0.0985
  782TIP3    H2 2290   7.101   4.953   0.274 -0.6252 -0.7741  0.3152
  783TIP3   OH2 2291   4.476   5.192   0.933  0.2703 -0.6375  0.8495
  783TIP3    H1 2292   4.547   5.248   0.903  0.0958  0.1968  1.9122
  783TIP3    H2 2293   4.519   5.122   0.982  0.6225 -2.4740 -1.8678
  784TIP3   OH2 2294   7.836   4.405   0.518  0.0003  0.3589 -0.5191
  784TIP3    H1 2295   7.865   4.409   0.427 -0.1316 -0.4383 -0.6052
  784TIP3    H2 2296   7.776   4.479   0.527  0.6864  0.9580 -0.8316
  785TIP3   OH2 2297   3.103   6.690   6.438 -0.4484 -0.1240 -0.0837
  785TIP3    H1 2298   3.101   6.642   6.521  0.3868  0.4153  0.2541
  785TIP3    H2 2299   3.193   6.683   6.408 -1.2183 -2.4186 -2.2311
  786TIP3   OH2 2300   4.263   1.620   4.652 -0.4938  0.0888  0.1218
  786TIP3    H1 2301   4.351   1.648   4.627 -0.7219  1.3644  0.6176
  786TIP3    H2 2302   4.210   1.633   4.574  0.0636 -2.4379 -0.7616
  787TIP3   OH2 2303   2.601   6.921   3.867 -0.5076 -0.0727 -0.6118
  787TIP3    H1 2304   2.601   6.964   3.952 -0.1176 -0.2816 -0.5042
  787TIP3    H2 2305   2.516   6.876   3.862 -1.0597  0.9469 -0.8555
  788TIP3   OH2 2306   1.338   1.621   1.312  0.1109  0.1996  0.2293
  788TIP3    H1 2307   1.329   1.622   1.407 -1.5577  0.5861  0.0925
  788TIP3    H2 2308   1.294   1.541   1.284  1.0409 -0.1788 -0.1945
  789TIP3   OH2 2309   3.038   2.662   5.864 -0.5782  0.1032 -0.1329
  789TIP3    H1 2310   3.103   2.717   5.908 -0.3804 -0.8999  0.8829
  789TIP3    H2 2311   3.055   2.574   5.898 -2.0973 -0.2683 -0.2835
  790TIP3   OH2 2312   1.358   0.658   3.614  0.1072  0.1397  0.0745
  790TIP3    H1 2313   1.437   0.707   3.591  0.0391  0.0875 -0.2737
  790TIP3    H2 2314   1.344   0.599   3.540  1.7898 -2.4469  1.6884
  791TIP3   OH2 2315   6.705   3.460   3.803 -0.2267 -0.0388  0.0427
  791TIP3    H1 2316   6.748   3.398   3.744  0.3981  0.6002 -0.1829
  791TIP3    H2 2317   6.758   3.539   3.797 -1.2020  0.6336  0.0755
  792TIP3   OH2 2318   3.944   2.088   2.706 -0.3920 -0.0735  0.5049
  792TIP3    H1 2319   3.852   2.070   2.685 -1.3878  1.7171  2.8276
  792TIP3    H2 2320   3.987   2.003   2.700 -2.6017 -1.3133  1.0178
  793TIP3   OH2 2321   5.709   4.325   1.464 -0.0224  0.4058 -0.2700
  793TIP3    H1 2322   5.710   4.287   1.376 -1.6951 -0.5003  0.0571
  793TIP3    H2 2323   5.685   4.416   1.450  0.7071  0.5226 -0.8207
  794TIP3   OH2 2324   3.113   7.726   3.631  0.1796 -0.1943  0.9206
  794TIP3    H1 2325   3.052   7.681   3.573  0.1088  1.6008 -0.4833
  794TIP3    H2 2326   3.075   7.812   3.645  1.2955  0.1756  1.8572
  795TIP3   OH2 2327   5.157   2.508   3.542 -0.3456  0.0284  0.3183
  795TIP3    H1 2328   5.186   2.472   3.626 -2.2945 -3.3224 -0.2293
  795TIP3    H2 2329   5.199   2.593   3.536  1.8619 -0.6576  3.5297
  796TIP3   OH2 2330   6.938   3.503   3.516 -0.1884  0.4285  0.3186
  796TIP3    H1 2331   7.020   3.455   3.517 -0.1264  0.4800 -0.8827
  796TIP3    H2 2332   6.928   3.533   3.425 -1.3835  0.6686  0.5039
  797TIP3   OH2 2333   7.084   3.529   0.341  0.2992  0.1659  0.0930
  797TIP3    H1 2334   7.139   3.598   0.304 -1.3504  1.2579 -0.4179
  797TIP3    H2 2335   7.143   3.454   0.349  1.8008  1.2051 -0.6374
  798TIP3   OH2 2336   3.452   2.361   0.698  0.3106 -0.2637 -0.9593
  798TIP3    H1 2337   3.415   2.423   0.635 -1.5471 -0.3647 -0.0420
  798TIP3    H2 2338   3.376   2.315   0.734  1.5316 -2.1179 -0.6073
  799TIP3   OH2 2339   1.698   1.682   3.150 -0.0479  0.5973 -1.0993
  799TIP3    H1 2340   1.612   1.648   3.175 -0.7120  1.8337 -1.5959
  799TIP3    H2 2341   1.684   1.776   3.140  2.2585  1.5519  2.7334
  800TIP3   OH2 2342   5.198   1.250   0.586 -0.1125 -0.3918 -0.3994
  800TIP3    H1 2343   5.238   1.163   0.577  0.2027 -0.2972  0.0478
  800TIP3    H2 2344   5.108   1.238   0.555 -0.3898 -1.1351  0.6550
  801TIP3   OH2 2345   6.519   0.212   4.996  0.2294  0.9815 -0.5397
  801TIP3    H1 2346   6.591   0.183   4.939 -0.4167  0.1591 -0.9712
  801TIP3    H2 2347   6.456   0.251   4.937 -0.5931 -0.1681 -0.4581
  802TIP3   OH2 2348   3.197   4.880   0.787 -0.4086 -0.2337  0.2743
  802TIP3    H1 2349   3.204   4.975   0.785  0.4434 -0.2491  1.3998
  802TIP3    H2 2350   3.114   4.861   0.744 -0.0834  0.9427 -0.9313
  803TIP3   OH2 2351   0.457   3.146   5.029  0.1133  0.0381 -0.0104
  803TIP3    H1 2352   0.423   3.131   4.941  1.2639 -0.3366 -0.3979
  803TIP3    H2 2353   0.382   3.127   5.086 -0.9599  1.3277 -0.9260
  804TIP3   OH2 2354   3.100   0.436   6.035 -0.5785  0.4797  0.3819
  804TIP3    H1 2355   3.082   0.344   6.021  0.8107  0.0033  1.4828
  804TIP3    H2 2356   3.134   0.467   5.951 -1.2832  0.0810 -0.0665
  805TIP3   OH2 2357   0.510   3.528   5.916 -0.0985 -0.5722 -0.2859
  805TIP3    H1 2358   0.489   3.622   5.913  0.2353 -0.3929  1.5381
  805TIP3    H2 2359   0.425   3.485   5.928 -0.1038 -0.3417  0.6146
  806TIP3   OH2 2360   1.973   3.777   1.806  0.4166 -0.4702 -0.2239
  806TIP3    H1 2361   1.908   3.708   1.821 -0.8284  0.7099 -0.1023
  806TIP3    H2 2362   2.011   3.794   1.892  2.1626 -2.3280 -0.5407
  807TIP3   OH2 2363   6.066   1.691   2.563 -0.1222 -0.1616 -0.0175
  807TIP3    H1 2364   5.984   1.735   2.587 -0.4470 -1.4199  1.3373
  807TIP3    H2 2365   6.083   1.719   2.473  0.3065  3.5867  1.0720
  808TIP3   OH2 2366   4.412   3.995   5.844 -0.1949 -0.6260 -0.6000
  808TIP3    H1 2367   4.465   4.041   5.779 -2.0287  0.3897 -1.4744
  808TIP3    H2 2368   4.473   3.972   5.914  1.4359  0.1262 -1.7125
  809TIP3   OH2 2369   8.041   1.388   3.280 -0.3826 -0.0874  0.6740
  809TIP3    H1 2370   8.081   1.302   3.289 -1.6283 -0.6797  0.6848
  809TIP3    H2 2371   8.007   1.409   3.366  1.1820  1.1067  1.0656
  810TIP3   OH2 2372   5.348   7.059   5.401 -0.2168  0.5126  0.3342
  810TIP3    H1 2373   5.303   6.976   5.387 -0.7705  0.4143  2.4244
  810TIP3    H2 2374   5.437   7.044   5.371 -0.5017 -0.5851  0.0031
  811TIP3   OH2 2375   6.261   3.600   4.070 -0.3465  0.3961  0.5010
  811TIP3    H1 2376   6.322   3.601   3.997 -0.1614 -0.8303  0.6165
  811TIP3    H2 2377   6.308   3.642   4.142 -0.4970  1.5248 -0.0427
  812TIP3   OH2 2378   4.200   3.579   0.670  0.1324  0.4501 -1.3437
  812TIP3    H1 2379   4.141   3.623   0.732  2.4809  1.4444  0.3203
  812TIP3    H2 2380   4.220   3.496   0.711  0.9475  0.7038 -1.2168
  813TIP3   OH2 2381   0.599   3.975   0.856 -0.0797 -0.1783 -0.2250
  813TIP3    H1 2382   0.631   4.055   0.897 -1.4358  0.8638 -1.0831
  813TIP3    H2 2383   0.638   3.976   0.769 -0.5581 -0.1192 -0.4448
  814TIP3   OH2 2384   2.815   4.213   2.140  0.0096 -0.1156 -0.0199
  814TIP3    H1 2385   2.774   4.298   2.151 -0.8948 -0.5993  0.4587
  814TIP3    H2 2386   2.854   4.216   2.053 -1.9032  0.0258 -0.9223
  815TIP3   OH2 2387   1.342   0.138   0.183  0.6382 -0.1428 -0.2476
  815TIP3    H1 2388   1.271   0.174   0.236  0.0539 -2.0007  0.3386
  815TIP3    H2 2389   1.388   0.214   0.148 -0.3892  1.1219  1.0377
  816TIP3   OH2 2390   7.544   2.902   4.992  0.3206  0.0160 -0.8526
  816TIP3    H1 2391   7.521   2.844   4.920 -0.9251 -1.1953  0.4486
  816TIP3    H2 2392   7.640   2.893   5.000  0.1465 -2.3069 -0.4047
  817TIP3   OH2 2393   5.271   2.788   3.544 -0.4187 -0.3111 -0.2730
  817TIP3    H1 2394   5.210   2.861   3.545  0.2347  0.2411 -0.3431
  817TIP3    H2 2395   5.342   2.814   3.602  1.1375  0.2864 -2.3075
  818TIP3   OH2 2396   3.889   0.083   4.867  0.1271  0.3093  0.1364
  818TIP3    H1 2397   3.915   0.056   4.779 -1.0007  0.5580 -0.2854
  818TIP3    H2 2398   3.832   0.158   4.854 -2.8021 -1.6105  0.7897
  819TIP3   OH2 2399   1.315   6.015   4.338 -0.4713 -0.1672  0.0708
  819TIP3    H1 2400   1.331   5.921   4.332 -0.9936 -0.5463  2.9978
  819TIP3    H2 2401   1.337   6.037   4.428  0.3861  2.7148 -0.7323
  820TIP3   OH2 2402   7.849   4.855   0.166 -0.7749 -0.7243 -0.1994
  820TIP3    H1 2403   7.892   4.799   0.231  0.6309  1.0192  0.4718
  820TIP3    H2 2404   7.847   4.803   0.086 -3.2320 -3.2362  1.3335
  821TIP3   OH2 2405   5.157   3.415   1.243 -0.0356 -0.0450 -0.3752
  821TIP3    H1 2406   5.241   3.383   1.209 -0.2996 -0.5778 -0.5325
  821TIP3    H2 2407   5.091   3.363   1.198 -0.4715  0.6148 -0.5163
  822TIP3   OH2 2408   0.028   5.016   1.613  0.0071  0.1782 -0.1396
  822TIP3    H1 2409  -0.065   4.995   1.612  0.1340 -0.4240 -1.4271
  822TIP3    H2 2410   0.071   4.934   1.639  0.2484  0.1147 -0.7352
  823TIP3   OH2 2411   5.520   2.913   5.974 -0.4486 -0.2749  0.3083
  823TIP3    H1 2412   5.470   2.832   5.969  0.0759 -0.6454  0.8965
  823TIP3    H2 2413   5.545   2.932   5.884  1.3588 -2.0179  0.3766
  824TIP3   OH2 2414   1.661   3.594   3.393 -0.2344 -0.1772 -0.1259
  824TIP3    H1 2415   1.744   3.633   3.365  0.2453 -1.8617 -1.1575
  824TIP3    H2 2416   1.612   3.668   3.429  0.6289  1.3857 -1.9502
  825TIP3   OH2 2417   1.158   5.275   2.909  0.1729  0.1807  0.1425
  825TIP3    H1 2418   1.103   5.219   2.855 -2.3309  1.9320  0.7281
  825TIP3    H2 2419   1.177   5.222   2.987 -0.5373 -0.5193 -0.1531
  826TIP3   OH2 2420   3.317   7.433   4.494  0.0658  0.0207 -0.0633
  826TIP3    H1 2421   3.314   7.338   4.502  1.5758  0.0484  1.3259
  826TIP3    H2 2422   3.362   7.448   4.410 -0.9850 -0.4619 -0.7266
  827TIP3   OH2 2423   0.763   6.314   5.726  0.0610  0.2226 -0.3528
  827TIP3    H1 2424   0.787   6.285   5.638 -0.7195 -0.1797 -0.4326
  827TIP3    H2 2425   0.670   6.293   5.735  0.6263 -1.9200  1.4273
  828TIP3   OH2 2426   2.931   0.847   1.089  0.5153  0.8227  0.7213
  828TIP3    H1 2427   2.998   0.858   1.022  0.4445  1.7717  0.7929
  828TIP3    H2 2428   2.894   0.935   1.102 -1.6809  0.1305 -0.2784
  829TIP3   OH2 2429   3.785   4.705   5.783 -0.5047  0.4295  0.3799
  829TIP3    H1 2430   3.796   4.754   5.865 -1.4174 -0.0032  0.7781
  829TIP3    H2 2431   3.763   4.616   5.812 -1.1239  0.3468 -0.3406
  830TIP3   OH2 2432   2.072   5.733   1.344 -0.0304  0.2627 -0.1040
  830TIP3    H1 2433   2.118   5.715   1.426 -0.7559 -1.0771  0.0553
  830TIP3    H2 2434   2.034   5.648   1.319 -0.5758  0.8438 -1.3551
  831TIP3   OH2 2435   7.930   5.755   4.645  0.5631  0.6417 -0.1871
  831TIP3    H1 2436   7.966   5.744   4.733  1.1272  0.4452 -0.4370
  831TIP3    H2 2437   7.897   5.844   4.643 -0.9458  0.1474  0.7590
  832TIP3   OH2 2438   6.096   0.524   0.689  0.1008 -0.5213 -0.1210
  832TIP3    H1 2439   6.163   0.550   0.626 -0.1518 -1.6284 -0.8908
  832TIP3    H2 2440   6.014   0.527   0.639 -0.0252 -2.0000 -0.0636
  833TIP3   OH2 2441   7.178   1.140   5.582  0.2469 -0.1060  0.4816
  833TIP3    H1 2442   7.103   1.181   5.626  1.2348  1.4155  0.8514
  833TIP3    H2 2443   7.247   1.140   5.648  0.8667 -0.5544 -0.1557
  834TIP3   OH2 2444   6.304   2.922  -0.000  0.4225  0.1589 -0.2748
  834TIP3    H1 2445   6.391   2.952   0.025 -0.1022  1.8582 -0.3687
  834TIP3    H2 2446   6.309   2.827   0.005  1.6700  0.2781  1.8001
  835TIP3   OH2 2447   4.078   4.020   4.145  0.4617  0.5291 -0.3625
  835TIP3    H1 2448   4.173   4.022   4.162  0.4330 -1.5336  0.2041
  835TIP3    H2 2449   4.070   3.973   4.062 -0.0898  0.7661 -0.4468
  836TIP3   OH2 2450   6.271   4.359   2.609  0.4242  0.7945 -0.0955
  836TIP3    H1 2451   6.296   4.341   2.519  0.0509 -1.3642  0.1801
  836TIP3    H2 2452   6.184   4.399   2.602  0.1629  0.1397 -0.6688
  837TIP3   OH2 2453   4.666   1.505   0.134  0.0025  0.9244  0.8664
  837TIP3    H1 2454   4.686   1.551   0.052  0.9595  0.4971  0.8387
  837TIP3    H2 2455   4.571   1.496   0.134  0.0531 -0.1910 -0.8318
  838TIP3   OH2 2456   6.404   2.468   4.873 -0.1975  0.8683 -0.1587
  838TIP3    H1 2457   6.377   2.452   4.783  1.8311  1.2566 -0.8730
  838TIP3    H2 2458   6.459   2.392   4.896  0.3986  1.4171  0.2749
  839TIP3   OH2 2459   6.997   5.126   4.672 -0.0906  0.3124  0.7440
  839TIP3    H1 2460   6.955   5.095   4.752  0.6873  1.8726  1.8041
  839TIP3    H2 2461   6.928   5.172   4.625 -0.5333 -0.5483  0.5278
  840TIP3   OH2 2462   2.449   1.474   6.545 -0.1900 -0.0623 -0.2256
  840TIP3    H1 2463   2.390   1.406   6.577 -1.6313  0.9254 -0.6990
  840TIP3    H2 2464   2.472   1.445   6.457  2.4697 -1.9405  0.9378
  841TIP3   OH2 2465   0.922   0.479   0.758  0.3007 -0.1126  0.0042
  841TIP3    H1 2466   0.847   0.533   0.783  1.3201  0.5599  1.7759
  841TIP3    H2 2467   0.915   0.400   0.811  1.0128  0.1122  0.4516
  842TIP3   OH2 2468   2.533   3.176   0.580  0.3402  0.3803  0.1950
  842TIP3    H1 2469   2.528   3.081   0.579 -0.6177  0.3984 -1.8180
  842TIP3    H2 2470   2.623   3.195   0.607  1.6779 -1.2161 -2.6511
  843TIP3   OH2 2471   6.251   6.954   4.880 -0.2946  0.5779  0.0590
  843TIP3    H1 2472   6.200   6.899   4.940  2.1904 -0.3089  1.4716
  843TIP3    H2 2473   6.232   6.917   4.793 -0.4366 -1.0654  0.7542
  844TIP3   OH2 2474   2.675   1.970   4.098 -0.3232  0.2615 -0.1571
  844TIP3    H1 2475   2.614   1.917   4.149  0.2924  0.0264  0.3552
  844TIP3    H2 2476   2.658   2.060   4.126 -1.3695  0.3556 -1.0253
  845TIP3   OH2 2477   4.277   3.439   3.966 -0.1955 -0.1321 -0.0857
  845TIP3    H1 2478   4.228   3.408   4.042 -0.7675  0.1045 -0.3520
  845TIP3    H2 2479   4.358   3.474   4.002 -0.5661  0.1944  0.4412
  846TIP3   OH2 2480   0.821   6.294   4.880 -0.5318 -0.3520 -0.5114
  846TIP3    H1 2481   0.863   6.255   4.957 -0.8656 -0.7673 -0.5367
  846TIP3    H2 2482   0.855   6.243   4.806 -2.0077 -1.5366 -0.4347
  847TIP3   OH2 2483   0.228   0.089   5.443 -0.6330  0.2667  0.2932
  847TIP3    H1 2484   0.185   0.019   5.492  0.4510  0.5159  1.6773
  847TIP3    H2 2485   0.308   0.049   5.409 -1.1788  0.2106 -0.9857
  848TIP3   OH2 2486   7.187   3.720   3.653  0.3231 -0.0474 -0.5947
  848TIP3    H1 2487   7.180   3.638   3.702  0.3694  0.4177  0.2001
  848TIP3    H2 2488   7.278   3.721   3.621  0.5186 -0.0064 -0.0549
  849TIP3   OH2 2489   1.385   1.675   0.472 -0.4796  0.4809 -0.3166
  849TIP3    H1 2490   1.434   1.727   0.536 -0.1290 -2.3322  1.8751
  849TIP3    H2 2491   1.451   1.619   0.432 -1.2374 -0.1430 -0.7029
  850TIP3   OH2 2492   0.869   0.335   6.593 -0.3156 -0.0581 -0.2349
  850TIP3    H1 2493   0.948   0.359   6.545  0.6814  0.2190  1.4573
  850TIP3    H2 2494   0.815   0.414   6.591  0.7242  0.7190  0.9949
  851TIP3   OH2 2495   1.210   6.819   1.762  0.5641 -0.2120  0.3640
  851TIP3    H1 2496   1.254   6.759   1.822  1.9974  1.0555  0.6109
  851TIP3    H2 2497   1.245   6.796   1.675  1.2396  0.3592  0.4791
  852TIP3   OH2 2498   6.774   1.101   6.301  0.0532  0.0891 -0.0572
  852TIP3    H1 2499   6.735   1.187   6.287 -1.0759 -0.1112  1.6331
  852TIP3    H2 2500   6.814   1.107   6.388 -0.1963 -1.1292  0.1569
  853TIP3   OH2 2501   2.800   7.286   2.489  0.4258  0.2830  0.3914
  853TIP3    H1 2502   2.807   7.274   2.584  2.1132 -0.2992  0.2216
  853TIP3    H2 2503   2.714   7.250   2.467  0.1925  0.0151  1.6363
  854TIP3   OH2 2504   4.343   2.381   2.622 -0.3749  0.4775  0.5792
  854TIP3    H1 2505   4.248   2.368   2.619 -0.4605  0.4322  2.5933
  854TIP3    H2 2506   4.361   2.412   2.711  1.9426 -3.1366  1.5754
  855TIP3   OH2 2507   1.768   4.101   5.350  0.1278  0.0842  0.2639
  855TIP3    H1 2508   1.829   4.034   5.320  0.5187  0.4610  0.2143
  855TIP3    H2 2509   1.772   4.096   5.445 -0.8513 -0.8719  0.2822
  856TIP3   OH2 2510   0.270   6.488   4.118  0.4605  0.1837 -0.0582
  856TIP3    H1 2511   0.295   6.409   4.070  1.0946  0.2525  0.1587
  856TIP3    H2 2512   0.240   6.457   4.203  0.3970  0.1557 -0.0900
  857TIP3   OH2 2513   2.587   1.494   5.336  0.2515 -0.1154  0.2191
  857TIP3    H1 2514   2.574   1.516   5.243 -1.8329 -1.7088  0.0692
  857TIP3    H2 2515   2.618   1.404   5.335  1.6352  0.3195  1.0684
  858TIP3   OH2 2516   6.211   7.040   1.441  0.6073 -0.2449 -0.2344
  858TIP3    H1 2517   6.199   7.135   1.438 -2.8770 -0.3992  2.0648
  858TIP3    H2 2518   6.259   7.025   1.522 -0.6917 -0.4653  0.5221
  859TIP3   OH2 2519   3.794   6.164   5.353 -0.2251  0.0442  0.1978
  859TIP3    H1 2520   3.830   6.227   5.416  0.2421  0.6725 -0.6688
  859TIP3    H2 2521   3.706   6.146   5.384 -0.1569  0.6866  0.7822
  860TIP3   OH2 2522   5.398   4.132   2.393  0.1012 -0.4112 -0.5250
  860TIP3    H1 2523   5.313   4.093   2.371 -0.6548  0.3568  0.8982
  860TIP3    H2 2524   5.398   4.216   2.347  0.6795 -0.9774 -1.5952
  861TIP3   OH2 2525   2.054   0.428   5.326  0.1322 -0.7408 -0.1109
  861TIP3    H1 2526   2.081   0.517   5.349  0.5414 -0.0988 -2.7012
  861TIP3    H2 2527   2.103   0.371   5.386  1.5239  0.6998  0.1779
  862TIP3   OH2 2528   3.510   0.840   6.193  0.0602 -0.4577 -0.6980
  862TIP3    H1 2529   3.421   0.874   6.186  0.3645  0.0936 -2.6972
  862TIP3    H2 2530   3.501   0.746   6.176 -0.2369 -0.6037  0.1922
  863TIP3   OH2 2531   5.146   0.433   0.213  0.1604 -0.0569  0.0192
  863TIP3    H1 2532   5.168   0.433   0.307 -0.7260  2.0860  0.2734
  863TIP3    H2 2533   5.174   0.519   0.182 -1.8634  0.2585 -1.0963
  864TIP3   OH2 2534   1.857   7.365   5.041 -0.7201 -0.0556  0.3038
  864TIP3    H1 2535   1.811   7.440   5.080 -0.8321 -0.2169  0.4823
  864TIP3    H2 2536   1.809   7.289   5.073 -0.5538 -0.2080  0.1881
  865TIP3   OH2 2537   1.396   0.590   3.338 -0.1727 -0.3525  0.4759
  865TIP3    H1 2538   1.323   0.624   3.286  0.3711 -1.5193 -1.1339
  865TIP3    H2 2539   1.474   0.611   3.287  0.5907  0.3903  1.9042
  866TIP3   OH2 2540   7.451   5.674   6.757  0.5012  0.0084  0.5754
  866TIP3    H1 2541   7.466   5.727   6.679 -1.3694 -1.8178 -1.1306
  866TIP3    H2 2542   7.361   5.644   6.749  0.3080 -0.4602  3.3667
  867TIP3   OH2 2543   0.738   4.669   6.772 -0.0826  0.3679 -0.5943
  867TIP3    H1 2544   0.723   4.612   6.697 -2.9435 -1.2972  1.0770
  867TIP3    H2 2545   0.669   4.735   6.767 -0.8136 -0.2316  0.9072
  868TIP3   OH2 2546   3.879   0.573   0.978  0.1928  0.1897  0.0705
  868TIP3    H1 2547   3.787   0.589   0.997  0.0901 -0.0423 -0.2114
  868TIP3    H2 2548   3.880   0.485   0.939  0.5636  0.0876  0.3100
  869TIP3   OH2 2549   3.535   2.820   5.040 -0.2361 -0.8275  0.3423
  869TIP3    H1 2550   3.536   2.809   5.135  0.3629 -0.1422  0.4230
  869TIP3    H2 2551   3.531   2.731   5.006 -1.3694 -1.0541  1.0107
  870TIP3   OH2 2552   7.495   6.849   5.425 -0.3857  0.0007  0.4579
  870TIP3    H1 2553   7.515   6.837   5.332 -0.6914 -1.8180  0.5930
  870TIP3    H2 2554   7.505   6.943   5.439 -0.4128  0.3367 -1.4282
  871TIP3   OH2 2555   4.033   4.944   4.708  0.4748  0.0877 -0.2520
  871TIP3    H1 2556   4.112   4.902   4.742  1.3200  0.4967 -1.6514
  871TIP3    H2 2557   4.059   5.036   4.695 -0.0688  0.1178 -1.1857
  872TIP3   OH2 2558   4.639   1.877   0.574  0.1704 -0.2846  0.1171
  872TIP3    H1 2559   4.560   1.827   0.593 -0.5073  0.3037 -1.0130
  872TIP3    H2 2560   4.671   1.841   0.492  0.4615  0.2048  0.0115
  873TIP3   OH2 2561   1.115   1.029   3.624 -0.2426 -0.0579  0.2832
  873TIP3    H1 2562   1.210   1.016   3.619 -0.3218 -0.2850 -1.0970
  873TIP3    H2 2563   1.105   1.121   3.650  0.3633  0.1770 -0.2872
  874TIP3   OH2 2564   4.200   2.927   5.266  0.5137  0.4943  0.0419
  874TIP3    H1 2565   4.165   3.016   5.261 -2.3230 -0.4843  0.5222
  874TIP3    H2 2566   4.236   2.920   5.355  2.0093  1.5337 -0.4552
  875TIP3   OH2 2567   1.314   7.387   5.820  0.8253 -0.7448  0.4802
  875TIP3    H1 2568   1.242   7.437   5.781  1.4520  0.0465  0.3054
  875TIP3    H2 2569   1.320   7.420   5.910  1.4837 -0.2037  0.2534
  876TIP3   OH2 2570   1.308   0.723   1.679  0.3570  0.0683  0.5358
  876TIP3    H1 2571   1.214   0.729   1.660  0.2152  0.9724  1.4776
  876TIP3    H2 2572   1.332   0.635   1.650 -1.1044 -0.7475  1.6625
  877TIP3   OH2 2573   6.689   7.755   1.937 -0.0554  0.4620 -0.4619
  877TIP3    H1 2574   6.595   7.743   1.953 -0.1795  0.2547 -1.3103
  877TIP3    H2 2575   6.699   7.740   1.843  0.5677  2.1490 -0.6930
  878TIP3   OH2 2576   7.549   0.386   1.507 -0.1554  0.4985  0.0720
  878TIP3    H1 2577   7.576   0.478   1.514  1.3672  0.3280 -2.3634
  878TIP3    H2 2578   7.620   0.337   1.548  0.4833  0.3253 -1.1790
  879TIP3   OH2 2579   0.087   3.353   1.581  0.0558 -0.2167  0.3091
  879TIP3    H1 2580   0.032   3.294   1.632  1.3262  0.1161  2.1674
  879TIP3    H2 2581   0.177   3.326   1.602  0.6366 -0.0360 -1.7655
  880TIP3   OH2 2582   2.878   6.753   4.538  0.5344  0.1513  0.5289
  880TIP3    H1 2583   2.785   6.736   4.525  0.9074 -0.7021 -1.3827
  880TIP3    H2 2584   2.881   6.839   4.581 -1.1182  1.6880 -2.1340
  881TIP3   OH2 2585   7.643   2.380   3.052 -0.2727  0.0535 -0.2033
  881TIP3    H1 2586   7.672   2.472   3.049 -0.9768  0.2584 -2.1637
  881TIP3    H2 2587   7.710   2.333   3.002 -0.8258 -0.2180 -0.6855
  882TIP3   OH2 2588   3.491   7.757   1.715  0.1685  0.6099 -0.0261
  882TIP3    H1 2589   3.415   7.814   1.724  0.8295  1.9621 -2.2143
  882TIP3    H2 2590   3.488   7.727   1.624  0.6277 -1.7702  0.6768
  883TIP3   OH2 2591   3.466   3.333   4.431 -0.3787  0.4983  0.4411
  883TIP3    H1 2592   3.378   3.325   4.466 -0.8820  0.7166 -0.7265
  883TIP3    H2 2593   3.455   3.380   4.348  0.9440  1.4061  0.7424
  884TIP3   OH2 2594   6.422   5.256   2.844  0.3463  0.1133 -0.0520
  884TIP3    H1 2595   6.449   5.214   2.763 -0.4324  0.6899 -0.6221
  884TIP3    H2 2596   6.332   5.228   2.857 -0.1557  1.4787 -0.3801
  885TIP3   OH2 2597   5.850   5.601   5.280  0.4138  0.3619 -0.1423
  885TIP3    H1 2598   5.939   5.637   5.284  0.2497  0.9275 -1.2372
  885TIP3    H2 2599   5.807   5.633   5.359  2.0376 -2.3605  2.0527
  886TIP3   OH2 2600   2.294   0.664   0.922 -0.0012 -0.1356 -0.7396
  886TIP3    H1 2601   2.210   0.680   0.880  0.8025  0.9102 -2.0102
  886TIP3    H2 2602   2.352   0.638   0.851  0.7801 -0.7606  0.1053
  887TIP3   OH2 2603   1.403   4.591   0.097 -0.6375  0.0165  0.0529
  887TIP3    H1 2604   1.319   4.626   0.127 -1.7571 -0.4975 -2.2134
  887TIP3    H2 2605   1.391   4.580   0.002  1.6902 -0.9511 -0.1874
  888TIP3   OH2 2606   0.345   1.254   1.326  0.1706  0.1619 -0.6030
  888TIP3    H1 2607   0.356   1.331   1.382  1.9184 -0.1356 -0.4584
  888TIP3    H2 2608   0.353   1.288   1.237  0.0538  0.2688 -0.5732
  889TIP3   OH2 2609   3.189   5.641   1.135  0.3912 -0.2303  0.0766
  889TIP3    H1 2610   3.095   5.635   1.123  0.5351 -0.7528 -0.8611
  889TIP3    H2 2611   3.219   5.550   1.139  0.9462 -0.0761 -0.4287
  890TIP3   OH2 2612   4.249   2.780   3.386  0.1661  0.4419 -0.4510
  890TIP3    H1 2613   4.268   2.694   3.349  0.5725 -0.8807  2.4771
  890TIP3    H2 2614   4.294   2.842   3.329  1.5163 -1.4748 -1.5822
  891TIP3   OH2 2615   2.638   2.978   4.858 -0.3498  0.3232 -0.0312
  891TIP3    H1 2616   2.643   2.986   4.763  0.9261  0.6022  0.0371
  891TIP3    H2 2617   2.713   2.924   4.882 -0.3828  0.6444  0.8534
  892TIP3   OH2 2618   5.602   3.176   3.220 -0.3498 -0.1339 -0.3587
  892TIP3    H1 2619   5.657   3.227   3.160  2.1377 -0.5507  1.3845
  892TIP3    H2 2620   5.639   3.088   3.217 -1.2249 -0.5517  0.5410
  893TIP3   OH2 2621   1.551   2.475   2.260 -0.1643  0.6031 -0.3802
  893TIP3    H1 2622   1.504   2.532   2.200 -0.1398  0.9815 -0.0369
  893TIP3    H2 2623   1.506   2.391   2.254 -2.0143  1.4126  1.2742
  894TIP3   OH2 2624   6.774   5.902   5.666  0.6186 -0.3767 -0.1917
  894TIP3    H1 2625   6.782   5.806   5.666  0.8334 -0.3954 -1.7643
  894TIP3    H2 2626   6.833   5.931   5.596 -0.2791  0.8038 -0.5030
  895TIP3   OH2 2627   1.463   6.937   3.327 -0.8576 -0.2272 -0.6621
  895TIP3    H1 2628   1.510   6.935   3.244 -0.2576  1.9781 -0.4123
  895TIP3    H2 2629   1.449   7.029   3.345 -1.7432 -0.6955  1.2815
  896TIP3   OH2 2630   0.859   6.143   0.285 -0.6945 -0.1740  0.6980
  896TIP3    H1 2631   0.829   6.092   0.360 -2.9784  2.0785  1.5062
  896TIP3    H2 2632   0.779   6.159   0.234  0.4706  0.0234 -1.1478
  897TIP3   OH2 2633   5.984   0.993   5.453 -0.0800 -0.0837 -0.2405
  897TIP3    H1 2634   6.021   1.080   5.437  0.8443 -0.1213  1.5082
  897TIP3    H2 2635   6.034   0.935   5.396 -0.2085  0.4139 -0.8737
  898TIP3   OH2 2636   6.891   6.407   2.616 -0.0102  0.2822  0.1944
  898TIP3    H1 2637   6.882   6.373   2.526  0.7495  0.8121 -0.0934
  898TIP3    H2 2638   6.814   6.374   2.662  0.5071 -1.5669 -0.1542
  899TIP3   OH2 2639   0.687   0.822   2.419  0.5435  0.0201  0.0617
  899TIP3    H1 2640   0.726   0.737   2.399 -1.5754 -1.3331  1.2967
  899TIP3    H2 2641   0.707   0.876   2.342  2.2745 -1.4403 -0.5850
  900TIP3   OH2 2642   4.517   6.154   4.070  0.0005  0.3044 -0.2732
  900TIP3    H1 2643   4.471   6.236   4.085 -1.4471 -0.4603 -0.3523
  900TIP3    H2 2644   4.599   6.163   4.118 -0.5993  1.3766  0.5913
  901TIP3   OH2 2645   2.956   7.689   2.715 -0.3748 -0.8925  0.0495
  901TIP3    H1 2646   2.987   7.613   2.667  2.2077  0.5184 -0.7254
  901TIP3    H2 2647   2.940   7.657   2.804  0.1946 -2.4086 -0.3644
  902TIP3   OH2 2648   3.294   1.359   4.357 -0.0526 -0.1739  0.0231
  902TIP3    H1 2649   3.294   1.424   4.288 -2.2221 -1.3242 -1.1642
  902TIP3    H2 2650   3.207   1.366   4.397  1.5924  1.5466  3.8448
  903TIP3   OH2 2651   6.677   4.073   5.207 -0.2804 -0.1735  0.0657
  903TIP3    H1 2652   6.735   4.117   5.145 -1.3896 -0.3594 -1.1366
  903TIP3    H2 2653   6.642   4.144   5.261  0.0027  0.0946 -0.0983
  904TIP3   OH2 2654   8.008   5.111   3.008  0.3693  0.3980  0.2297
  904TIP3    H1 2655   8.098   5.138   3.026  0.5555 -0.6636  0.9461
  904TIP3    H2 2656   7.992   5.140   2.918  1.0114  1.6504  0.4951
  905TIP3   OH2 2657   6.793   2.631   0.972  0.0766 -0.0975 -0.1160
  905TIP3    H1 2658   6.875   2.659   1.012  0.8131 -0.5789 -1.2156
  905TIP3    H2 2659   6.743   2.711   0.961 -0.6098 -0.0448  2.6353
  906TIP3   OH2 2660   1.274   2.051   3.789 -0.3798  0.2166  0.3911
  906TIP3    H1 2661   1.367   2.066   3.806 -0.1495 -1.4032  0.7198
  906TIP3    H2 2662   1.246   1.996   3.862 -0.9711 -1.4219 -1.0336
  907TIP3   OH2 2663   3.791   1.929   4.621 -0.3443 -0.5627  0.1327
  907TIP3    H1 2664   3.864   1.984   4.652  0.6601 -1.7233 -0.1339
  907TIP3    H2 2665   3.755   1.890   4.701  1.6678 -2.8330  0.0309
  908TIP3   OH2 2666   4.125   2.929   4.357  0.7170  0.0731  0.3315
  908TIP3    H1 2667   4.076   2.918   4.275  2.3176  0.8496 -0.7806
  908TIP3    H2 2668   4.179   3.006   4.342  1.9365 -0.4820  1.6773
  909TIP3   OH2 2669   7.765   4.909   6.004 -0.1027 -0.0705 -0.2026
  909TIP3    H1 2670   7.761   4.902   6.099  1.9446 -1.4022 -0.1541
  909TIP3    H2 2671   7.858   4.917   5.984 -0.3512 -1.3657 -2.1825
  910TIP3   OH2 2672   3.504   1.615   0.340  0.2432  0.0446 -0.4830
  910TIP3    H1 2673   3.495   1.707   0.315  0.1966 -0.2413 -1.5918
  910TIP3    H2 2674   3.588   1.588   0.304  0.4539 -0.2451  0.2052
  911TIP3   OH2 2675   2.873   4.866   6.468 -0.6705  0.4196 -0.1178
  911TIP3    H1 2676   2.869   4.913   6.385 -3.7248  2.3770  0.9425
  911TIP3    H2 2677   2.818   4.789   6.455 -1.5790  1.0028  0.2053
  912TIP3   OH2 2678   4.493   0.274   4.630 -0.2503  0.3310 -0.3443
  912TIP3    H1 2679   4.481   0.353   4.684 -1.5863 -1.2624  1.8629
  912TIP3    H2 2680   4.545   0.215   4.684 -1.7662 -1.3942 -0.6674
  913TIP3   OH2 2681   8.212   2.572   2.184 -0.5601 -0.2848  0.8574
  913TIP3    H1 2682   8.303   2.569   2.214  0.4110 -1.6726 -1.8325
  913TIP3    H2 2683   8.187   2.480   2.173 -1.4019  0.0954 -0.7762
  914TIP3   OH2 2684   4.256   0.319   2.217  0.3812  0.7614  0.4127
  914TIP3    H1 2685   4.183   0.267   2.185  1.2003  0.0408 -0.3417
  914TIP3    H2 2686   4.310   0.335   2.140  0.9185  1.4537  0.9161
  915TIP3   OH2 2687   4.344   0.316   1.682  0.0113 -0.1020 -0.3650
  915TIP3    H1 2688   4.415   0.267   1.641 -0.0472  0.0806 -0.6921
  915TIP3    H2 2689   4.279   0.327   1.613 -1.5692 -2.5545  0.6227
  916TIP3   OH2 2690   1.057   7.464   1.698  0.0373 -0.6521 -0.3268
  916TIP3    H1 2691   1.045   7.532   1.764  0.6847 -0.0235 -0.8365
  916TIP3    H2 2692   0.968   7.439   1.673 -0.2256  0.4481 -0.5670
  917TIP3   OH2 2693   5.364   7.694   1.175  0.3208 -0.3955  0.3662
  917TIP3    H1 2694   5.321   7.734   1.251  1.4375  0.4228  0.6105
  917TIP3    H2 2695   5.296   7.688   1.109  0.3415  3.4707 -0.2644
  918TIP3   OH2 2696   7.747   0.356   5.278  0.2755  0.3051  0.7005
  918TIP3    H1 2697   7.767   0.431   5.222 -0.4324  0.0955  0.1451
  918TIP3    H2 2698   7.806   0.287   5.248 -0.6498 -0.0554 -0.3556
  919TIP3   OH2 2699   7.261   1.334   3.342  0.4907 -0.0638  0.0756
  919TIP3    H1 2700   7.171   1.367   3.347 -0.6723 -2.9339  0.4800
  919TIP3    H2 2701   7.284   1.316   3.433  1.2309  0.0489 -0.0879
  920TIP3   OH2 2702   7.288   6.501   4.852 -0.0689 -0.0973  0.3398
  920TIP3    H1 2703   7.382   6.503   4.869 -0.1439  1.1740  0.7093
  920TIP3    H2 2704   7.272   6.414   4.815  0.8204 -1.3911  2.7665
  921TIP3   OH2 2705   2.442   6.248   4.679  0.0298  0.1006  0.6296
  921TIP3    H1 2706   2.514   6.189   4.701 -1.3280 -1.4670  1.0304
  921TIP3    H2 2707   2.425   6.232   4.586 -0.0307  0.1950  0.6243
  922TIP3   OH2 2708   3.259   3.121   2.238  0.3359  0.0893  0.4211
  922TIP3    H1 2709   3.170   3.153   2.223 -0.1312 -1.1456  0.4904
  922TIP3    H2 2710   3.294   3.105   2.150  1.2152  2.3729  0.2756
  923TIP3   OH2 2711   4.400   0.925   1.967  0.0343  0.1266  0.4250
  923TIP3    H1 2712   4.410   0.830   1.956 -1.0231 -0.0167  0.5698
  923TIP3    H2 2713   4.312   0.943   1.933  0.8786  1.3317 -1.2732
  924TIP3   OH2 2714   5.493   2.222   4.622 -0.2812  0.1195  0.0615
  924TIP3    H1 2715   5.489   2.274   4.541  1.9347 -0.3740 -0.4498
  924TIP3    H2 2716   5.445   2.274   4.686 -0.8671  1.2382 -1.2221
  925TIP3   OH2 2717   8.041   5.097   2.165 -0.6709  0.1745 -0.1198
  925TIP3    H1 2718   8.073   5.187   2.160 -0.0499 -0.0862 -1.4157
  925TIP3    H2 2719   7.963   5.102   2.220  0.4725  1.1590  1.4766
  926TIP3   OH2 2720   4.711   0.110   3.227 -0.4422  0.1467  0.1396
  926TIP3    H1 2721   4.801   0.096   3.200  1.6845  6.1713  2.4603
  926TIP3    H2 2722   4.709   0.086   3.319 -1.2580  0.1047  0.1185
  927TIP3   OH2 2723   4.716   2.002   3.575 -0.3031  0.5314 -0.0302
  927TIP3    H1 2724   4.630   2.033   3.544  0.3477  0.4481 -2.0597
  927TIP3    H2 2725   4.703   1.909   3.590 -0.3926  0.3595 -1.0907
  928TIP3   OH2 2726   2.662   7.838   1.103 -0.1247  0.3572  0.2956
  928TIP3    H1 2727   2.632   7.759   1.059  0.9390  0.1978 -0.1835
  928TIP3    H2 2728   2.614   7.841   1.185 -0.1973 -0.7698  0.2988
  929TIP3   OH2 2729   4.515   3.598   3.334  0.6447  0.0893  0.0567
  929TIP3    H1 2730   4.491   3.517   3.289  1.1396 -0.7036  1.1868
  929TIP3    H2 2731   4.588   3.632   3.283 -0.2188  0.3910 -1.0273
  930TIP3   OH2 2732   2.967   5.122   2.740 -0.2512 -0.1457  0.3047
  930TIP3    H1 2733   3.060   5.118   2.718 -0.4608  0.4356 -0.7404
  930TIP3    H2 2734   2.925   5.067   2.674 -0.6090 -0.7998  1.0648
  931TIP3   OH2 2735   7.401   0.340   4.698  0.1352  0.5544  0.1041
  931TIP3    H1 2736   7.325   0.349   4.640 -0.0387 -0.9613  0.0443
  931TIP3    H2 2737   7.473   0.316   4.640 -0.0904 -1.2000  0.4949
  932TIP3   OH2 2738   1.573   6.359   1.339 -0.0317 -0.4847  0.2511
  932TIP3    H1 2739   1.557   6.306   1.417  0.6947  1.7956  2.0581
  932TIP3    H2 2740   1.486   6.389   1.312 -0.0613  1.6715  2.4681
  933TIP3   OH2 2741   2.295   5.441   0.230  0.1018 -0.3666  0.0142
  933TIP3    H1 2742   2.287   5.396   0.145 -0.3072 -0.8240  0.2854
  933TIP3    H2 2743   2.337   5.524   0.209 -3.3109  1.2343 -1.2694
  934TIP3   OH2 2744   6.614   4.505   1.175 -0.5301  0.0626 -0.6255
  934TIP3    H1 2745   6.618   4.599   1.193 -0.2209 -0.2841  1.3367
  934TIP3    H2 2746   6.540   4.495   1.115 -0.4092  1.5692 -1.0638
  935TIP3   OH2 2747   4.155   1.638   6.140 -0.0310 -0.3658 -0.6220
  935TIP3    H1 2748   4.247   1.659   6.158 -0.4320  1.3327 -0.3628
  935TIP3    H2 2749   4.159   1.555   6.092  1.5809 -0.6896 -0.0119
  936TIP3   OH2 2750   4.012   5.948   3.970 -0.3890 -0.5919 -0.1465
  936TIP3    H1 2751   4.103   5.966   3.946 -0.3079 -0.9685 -0.1267
  936TIP3    H2 2752   3.964   5.953   3.888 -0.3648 -0.3124 -0.1450
  937TIP3   OH2 2753   4.635   5.070   5.749  0.2143  0.4275 -0.1027
  937TIP3    H1 2754   4.706   5.088   5.809 -0.3438  2.5075  0.0017
  937TIP3    H2 2755   4.677   5.060   5.663  0.7259  0.4753  0.1453
  938TIP3   OH2 2756   4.740   3.944   3.763  0.1677  0.4750  0.4963
  938TIP3    H1 2757   4.805   3.938   3.832  0.3057  0.1238  0.3399
  938TIP3    H2 2758   4.702   4.031   3.773  1.9069  1.3959 -0.5226
  939TIP3   OH2 2759   3.346   7.367   3.977 -0.0336 -0.1289 -0.0223
  939TIP3    H1 2760   3.308   7.408   3.899  1.1789  0.1496 -0.4916
  939TIP3    H2 2761   3.287   7.295   3.997 -0.2980 -0.2936 -1.2930
  940TIP3   OH2 2762   4.685   0.602   5.831  0.2917 -0.0107  0.2692
  940TIP3    H1 2763   4.635   0.535   5.877  0.9312  0.4071  1.6216
  940TIP3    H2 2764   4.735   0.646   5.900  0.5249  1.2981 -0.7034
  941TIP3   OH2 2765   8.061   7.422   5.184  0.7852 -0.3773 -0.0836
  941TIP3    H1 2766   8.023   7.470   5.110  0.6836  0.7302  0.6564
  941TIP3    H2 2767   8.041   7.477   5.260  0.6476 -1.6328  0.8025
  942TIP3   OH2 2768   0.990   0.420   4.174 -0.1565 -0.1673 -0.3096
  942TIP3    H1 2769   1.009   0.498   4.228 -2.3372  1.2297 -1.4094
  942TIP3    H2 2770   0.934   0.453   4.104 -1.6864 -2.8628 -0.4674
  943TIP3   OH2 2771   3.301   6.150   3.108  0.7429 -0.3685  0.0719
  943TIP3    H1 2772   3.224   6.194   3.073  0.1407 -1.0107  0.5485
  943TIP3    H2 2773   3.339   6.212   3.170  1.7846  0.7567 -1.6082
  944TIP3   OH2 2774   2.585   7.723   0.724 -0.0193  0.0962  0.3521
  944TIP3    H1 2775   2.546   7.732   0.811 -3.1848  0.4816 -0.9793
  944TIP3    H2 2776   2.587   7.629   0.708  0.3478  0.0381  0.6943
  945TIP3   OH2 2777   3.078   3.146   1.876 -0.0893 -0.3391 -0.3321
  945TIP3    H1 2778   3.064   3.160   1.969 -0.0739  0.0548 -0.3902
  945TIP3    H2 2779   3.008   3.086   1.850 -1.6522  1.5051 -0.6018
  946TIP3   OH2 2780   8.082   1.676   0.658 -0.2988 -0.9120 -0.0362
  946TIP3    H1 2781   8.039   1.747   0.611 -0.4576  0.5037  2.1086
  946TIP3    H2 2782   8.129   1.719   0.729  1.9161 -2.7382 -0.2976
  947TIP3   OH2 2783   4.944   0.255   1.783  0.1878  0.2056 -0.3087
  947TIP3    H1 2784   4.957   0.342   1.746 -0.8865 -0.2731 -1.9496
  947TIP3    H2 2785   4.850   0.251   1.800  0.2005 -0.6764 -0.4077
  948TIP3   OH2 2786   1.964   7.631   0.704  0.1233 -0.2705  0.2187
  948TIP3    H1 2787   2.011   7.689   0.644  0.2265 -0.4511  0.1248
  948TIP3    H2 2788   1.872   7.645   0.683  0.1572 -0.2995  0.0501
  949TIP3   OH2 2789   5.612   4.251   3.152 -0.2236  0.2875  0.5196
  949TIP3    H1 2790   5.540   4.190   3.133  0.7510 -0.8477  0.3907
  949TIP3    H2 2791   5.675   4.236   3.082 -0.0553  1.6317  0.3570
  950TIP3   OH2 2792   3.586   3.193   0.654 -0.2776  0.1518 -0.1654
  950TIP3    H1 2793   3.645   3.249   0.705  2.1926 -0.5959 -1.9840
  950TIP3    H2 2794   3.559   3.125   0.716  1.6430 -0.0440  0.5462
  951TIP3   OH2 2795   3.690   5.713   2.990 -0.1714  0.3180  0.1735
  951TIP3    H1 2796   3.672   5.757   2.906 -0.2760  0.3584  0.2165
  951TIP3    H2 2797   3.604   5.705   3.031 -0.1514  0.0758  0.1683
  952TIP3   OH2 2798   3.986   5.647   3.863  0.0362  0.4818  0.3526
  952TIP3    H1 2799   4.004   5.712   3.794 -1.0031 -1.0536 -1.4491
  952TIP3    H2 2800   3.891   5.635   3.861  0.3558 -2.9952 -1.3015
  953TIP3   OH2 2801   7.794   4.206   5.216  0.1559  0.4455  0.1922
  953TIP3    H1 2802   7.738   4.268   5.262 -0.9410  1.0459 -1.8236
  953TIP3    H2 2803   7.788   4.233   5.124  0.0801 -2.3042 -0.6873
  954TIP3   OH2 2804   7.486   0.067   5.122  0.0344  0.6539  0.1435
  954TIP3    H1 2805   7.581   0.079   5.114 -0.0690  0.2721 -2.4196
  954TIP3    H2 2806   7.449   0.147   5.085 -0.5970 -0.3518 -1.5118
  955TIP3   OH2 2807   4.898   1.906   6.118 -0.0649  0.1222 -0.0581
  955TIP3    H1 2808   4.848   1.987   6.115  1.4689  1.0922 -2.1940
  955TIP3    H2 2809   4.863   1.854   6.046  0.4489 -0.1694 -0.1016
  956TIP3   OH2 2810   0.519   3.418   2.068  0.6255 -0.1879 -0.4775
  956TIP3    H1 2811   0.486   3.504   2.092  1.0186 -0.0660 -0.3676
  956TIP3    H2 2812   0.440   3.364   2.058  0.2703  0.5574 -2.0709
  957TIP3   OH2 2813   6.522   2.954   4.221 -0.2095  0.4697  0.1645
  957TIP3    H1 2814   6.508   2.949   4.315 -1.5471  0.3297 -0.0304
  957TIP3    H2 2815   6.550   3.045   4.206  1.3687  0.1357  0.8324
  958TIP3   OH2 2816   4.294   2.665   5.452 -0.1557  0.2528 -0.3734
  958TIP3    H1 2817   4.268   2.742   5.502  0.2054 -0.4637  0.9780
  958TIP3    H2 2818   4.367   2.694   5.397  0.3358  0.7536  0.5288
  959TIP3   OH2 2819   4.819   7.670   3.388  0.1228 -0.4168  0.1731
  959TIP3    H1 2820   4.821   7.576   3.370  1.8580 -0.6269  1.2226
  959TIP3    H2 2821   4.881   7.681   3.460  0.3494  1.6073 -0.2943
  960TIP3   OH2 2822   4.502   2.358   3.578  0.2105 -0.0446  0.0615
  960TIP3    H1 2823   4.467   2.323   3.660  0.1272  0.9813  0.4688
  960TIP3    H2 2824   4.508   2.281   3.521 -0.7533 -0.5840  0.6601
  961TIP3   OH2 2825   7.268   1.467   1.794  0.0527  0.0836 -0.1228
  961TIP3    H1 2826   7.243   1.406   1.863 -0.8037 -0.5367 -0.9453
  961TIP3    H2 2827   7.343   1.515   1.829 -0.6435  0.1005  1.3914
  962TIP3   OH2 2828   1.160   5.144   4.704 -0.4123 -0.9912 -0.1208
  962TIP3    H1 2829   1.155   5.051   4.729 -0.0898 -0.8296  0.5795
  962TIP3    H2 2830   1.233   5.148   4.643 -0.9973 -1.3407 -0.8659
  963TIP3   OH2 2831   6.439   3.186   3.973  0.7260  0.2302  0.6847
  963TIP3    H1 2832   6.354   3.229   3.964  0.2895 -0.0502  2.9640
  963TIP3    H2 2833   6.420   3.094   3.955  1.0243  0.4447 -0.9350
  964TIP3   OH2 2834   4.790   6.037   1.002 -0.1728 -0.0855  0.2542
  964TIP3    H1 2835   4.746   6.115   0.969  0.9899  0.3610 -0.2900
  964TIP3    H2 2836   4.882   6.061   1.004  0.3910 -1.9033 -1.2997
  965TIP3   OH2 2837   6.180   2.818   0.531 -0.9836 -0.1153  0.4170
  965TIP3    H1 2838   6.259   2.821   0.477 -2.2606 -0.3185 -1.5650
  965TIP3    H2 2839   6.171   2.726   0.557 -0.5186 -0.0660  0.7658
  966TIP3   OH2 2840   7.974   3.804   0.929  0.0448 -0.2389 -0.3949
  966TIP3    H1 2841   7.984   3.873   0.995  1.1069 -0.6163 -0.1429
  966TIP3    H2 2842   7.988   3.850   0.845 -0.6539  0.1146 -0.3228
  967TIP3   OH2 2843   1.323   4.324   4.570  0.2344  0.4309  0.3337
  967TIP3    H1 2844   1.282   4.343   4.655 -0.6289 -1.0002  0.2660
  967TIP3    H2 2845   1.261   4.266   4.526  2.0772 -1.4139  0.0101
  968TIP3   OH2 2846   0.082   0.181   0.389 -0.5302 -0.0687 -0.2778
  968TIP3    H1 2847  -0.005   0.181   0.430  0.2339 -1.3165  1.4742
  968TIP3    H2 2848   0.109   0.089   0.390 -0.0044 -0.0002 -2.6944
  969TIP3   OH2 2849   2.394   0.881   5.347  0.0521 -0.3935  0.2753
  969TIP3    H1 2850   2.433   0.797   5.370 -1.4820 -1.1067  0.3963
  969TIP3    H2 2851   2.392   0.881   5.251  0.7673 -0.1412  0.2561
  970TIP3   OH2 2852   3.623   4.416   6.086  0.3486  0.6560  0.2926
  970TIP3    H1 2853   3.646   4.346   6.025  0.8041  1.3719 -0.3723
  970TIP3    H2 2854   3.533   4.439   6.062  0.7722  1.4273 -0.6099
  971TIP3   OH2 2855   2.513   0.218   4.963 -0.8655  0.2816  0.4695
  971TIP3    H1 2856   2.539   0.256   4.879  0.6205  1.5434  1.4416
  971TIP3    H2 2857   2.501   0.125   4.944  2.1077 -0.0115 -0.6300
  972TIP3   OH2 2858   2.698   1.687   4.708  0.4023  0.0210 -0.1750
  972TIP3    H1 2859   2.625   1.749   4.711  0.5220  0.1348  0.5100
  972TIP3    H2 2860   2.743   1.699   4.791  2.7222  1.7895 -1.5732
  973TIP3   OH2 2861   7.835   3.647   1.522 -0.2517  0.8900  0.2377
  973TIP3    H1 2862   7.896   3.711   1.487  0.2606  0.0726 -0.4200
  973TIP3    H2 2863   7.763   3.646   1.460  0.3624 -0.1029 -0.5010
  974TIP3   OH2 2864   3.297   3.857   3.292 -0.1200  0.2355 -0.2053
  974TIP3    H1 2865   3.324   3.925   3.354  0.2483  0.7063 -0.8644
  974TIP3    H2 2866   3.202   3.851   3.304 -0.0656  0.3810  0.3424
  975TIP3   OH2 2867   5.378   3.324   4.166  0.1004 -0.4518  0.3302
  975TIP3    H1 2868   5.351   3.390   4.230  0.5040 -0.6193  0.6760
  975TIP3    H2 2869   5.470   3.344   4.148 -1.1016  2.4805 -3.6902
  976TIP3   OH2 2870   0.130   7.634   4.575 -0.2576  0.3806 -0.3872
  976TIP3    H1 2871   0.219   7.648   4.609 -0.0921 -1.4198  0.0562
  976TIP3    H2 2872   0.077   7.699   4.621  0.3428 -0.5412  1.7442
  977TIP3   OH2 2873   5.482   0.005   1.763  0.7171 -0.0688  0.4456
  977TIP3    H1 2874   5.505   0.087   1.720  1.0662 -0.7517 -0.7038
  977TIP3    H2 2875   5.433   0.032   1.841  0.5808  1.2140 -0.0585
  978TIP3   OH2 2876   3.405   2.020   0.930  0.3340 -0.0258  0.2113
  978TIP3    H1 2877   3.499   2.036   0.940  0.6694 -0.7588 -1.4411
  978TIP3    H2 2878   3.400   1.937   0.882 -1.1394  0.4028 -0.4212
  979TIP3   OH2 2879   5.630   5.775   0.082  0.4867 -0.8333 -0.0127
  979TIP3    H1 2880   5.549   5.763   0.132  0.7317 -0.4625  0.4871
  979TIP3    H2 2881   5.602   5.800  -0.005  0.0544 -1.1128  0.0432
  980TIP3   OH2 2882   7.030   4.401   3.090 -0.1208  0.2763  0.1837
  980TIP3    H1 2883   7.030   4.375   3.182  0.7333 -0.2844  0.0345
  980TIP3    H2 2884   6.937   4.410   3.068 -0.4677 -1.9741  0.4497
  981TIP3   OH2 2885   7.374   6.980   1.236  0.0999  0.2143  0.8715
  981TIP3    H1 2886   7.395   6.889   1.213 -1.0549  0.1777 -0.1067
  981TIP3    H2 2887   7.458   7.025   1.231  0.7342 -0.8410  1.6201
  982TIP3   OH2 2888   6.467   5.260   3.938  0.4816 -0.0448  0.3823
  982TIP3    H1 2889   6.436   5.304   3.858 -0.2694  0.9612  1.1962
  982TIP3    H2 2890   6.563   5.262   3.931  0.4372  0.8440 -0.0758
  983TIP3   OH2 2891   6.995   0.881   4.367  0.2071  0.1483 -0.0739
  983TIP3    H1 2892   7.065   0.908   4.427  0.0620 -1.5159  0.9200
  983TIP3    H2 2893   6.939   0.958   4.359  1.1614  0.9352  0.5819
  984TIP3   OH2 2894   4.019   2.329   1.736  0.0203  0.3720 -0.4559
  984TIP3    H1 2895   4.022   2.236   1.718 -0.9690  0.2400 -0.0146
  984TIP3    H2 2896   3.926   2.351   1.738  0.1411  0.9375  1.4939
  985TIP3   OH2 2897   7.810   7.738   3.671  0.3936 -0.3401 -0.2767
  985TIP3    H1 2898   7.739   7.765   3.612  1.1809  0.5072 -0.8619
  985TIP3    H2 2899   7.856   7.819   3.692  0.7639 -0.7799  0.6752
  986TIP3   OH2 2900   7.652   2.584   5.815 -0.1566  0.8252  0.2597
  986TIP3    H1 2901   7.698   2.510   5.853 -1.7409 -2.1493 -2.9969
  986TIP3    H2 2902   7.562   2.575   5.846 -0.3533  1.4097 -0.1189
  987TIP3   OH2 2903   6.725   1.234   3.394 -0.0997  0.0535 -0.0539
  987TIP3    H1 2904   6.793   1.288   3.435  0.7852 -0.3215 -0.9835
  987TIP3    H2 2905   6.734   1.251   3.300 -1.7865  0.5454 -0.1606
  988TIP3   OH2 2906   3.911   2.029   0.387  0.2610  0.0827  0.5448
  988TIP3    H1 2907   3.861   2.098   0.430 -0.2624  0.8803 -1.2654
  988TIP3    H2 2908   3.845   1.969   0.353  0.5966  0.1388 -0.2284
  989TIP3   OH2 2909   5.898   5.408   3.503  0.1802  0.6173 -0.3755
  989TIP3    H1 2910   5.932   5.493   3.530  1.3685 -0.1213  0.5391
  989TIP3    H2 2911   5.975   5.357   3.479 -0.4606 -0.3878 -0.3868
  990TIP3   OH2 2912   0.972   4.603   5.364  0.2193  0.2440  0.2009
  990TIP3    H1 2913   1.023   4.527   5.338  1.6979  0.2979  2.6585
  990TIP3    H2 2914   1.003   4.674   5.307  0.9399 -0.3338 -0.1275
  991TIP3   OH2 2915   1.387   5.066   5.121  0.2170  0.0002 -0.5295
  991TIP3    H1 2916   1.324   5.138   5.131  1.2605  0.8822 -0.0515
  991TIP3    H2 2917   1.373   5.034   5.032 -0.7113  0.3671 -0.5242
  992TIP3   OH2 2918   3.823   1.721   2.763 -0.3380  0.0274  0.0256
  992TIP3    H1 2919   3.903   1.750   2.718 -1.6928  0.2804 -2.3727
  992TIP3    H2 2920   3.767   1.689   2.693 -2.4193 -0.0279  1.6423
  993TIP3   OH2 2921   1.481   2.886   0.392 -0.2307 -0.0006 -0.1955
  993TIP3    H1 2922   1.406   2.829   0.376 -0.5933  0.6045 -0.6775
  993TIP3    H2 2923   1.494   2.931   0.309 -0.4176  1.1802  0.4028
  994TIP3   OH2 2924   6.545   0.086   5.274  0.3954 -0.0724  0.1512
  994TIP3    H1 2925   6.628   0.089   5.322  0.5904  0.8922 -0.2273
  994TIP3    H2 2926   6.536   0.173   5.237 -1.3076  0.1647  1.0527
  995TIP3   OH2 2927   2.766   1.982   4.585  0.3380 -0.7216 -0.2570
  995TIP3    H1 2928   2.818   2.025   4.517  4.1936 -2.5222  1.2524
  995TIP3    H2 2929   2.780   2.036   4.663  1.2917 -2.0487  0.5284
  996TIP3   OH2 2930   1.503   0.247   1.648  0.1481 -0.1915  0.4327
  996TIP3    H1 2931   1.579   0.298   1.620  0.6218 -1.4127 -0.6377
  996TIP3    H2 2932   1.533   0.200   1.726  0.7218 -1.1501 -0.3468
  997TIP3   OH2 2933   2.406   6.604   0.032  0.2325 -0.1613 -0.1530
  997TIP3    H1 2934   2.424   6.546   0.106  3.1250 -0.5540 -1.0523
  997TIP3    H2 2935   2.386   6.545  -0.041  2.0399 -0.0727 -0.7805
  998TIP3   OH2 2936   6.003   4.344   4.416  0.1830 -0.0795 -0.0050
  998TIP3    H1 2937   5.917   4.385   4.416  0.1237 -0.1567 -1.3755
  998TIP3    H2 2938   5.988   4.258   4.455 -0.4892 -0.3063 -0.7311
  999TIP3   OH2 2939   1.415   5.342   4.820  0.0978  0.1145 -0.3227
  999TIP3    H1 2940   1.405   5.251   4.846 -1.7045  0.6606  1.1042
  999TIP3    H2 2941   1.363   5.351   4.740 -0.0824 -0.0252 -0.2217
 1000TIP3   OH2 2942   0.876   1.463   2.918 -0.1719 -0.4721  0.8302
 1000TIP3    H1 2943   0.852   1.373   2.942  2.4171 -0.6671  3.1432
 1000TIP3    H2 2944   0.820   1.517   2.973 -1.6219 -0.5971 -0.4501
 1001TIP3   OH2 2945   6.181   3.247   0.066 -0.5071  0.3896  0.1580
 1001TIP3    H1 2946   6.257   3.189   0.063 -0.1896  0.8339 -1.2486
 1001TIP3    H2 2947   6.119   3.203   0.124 -0.0934 -1.1438 -0.5064
 1002TIP3   OH2 2948   6.816   0.962   5.413 -0.0329 -0.3430  0.8235
 1002TIP3    H1 2949   6.747   0.997   5.470  1.1294  0.0789  2.0220
 1002TIP3    H2 2950   6.823   0.870   5.437 -1.0414 -0.7126 -0.2192
 1003TIP3   OH2 2951   1.340   2.316   3.571 -0.4471 -0.3315  0.5304
 1003TIP3    H1 2952   1.333   2.322   3.667  0.2966  1.7117  0.5041
 1003TIP3    H2 2953   1.252   2.333   3.539 -0.7043 -1.0384  0.8299
 1004TIP3   OH2 2954   2.869   4.969   6.737 -0.2704  0.1587 -0.4099
 1004TIP3    H1 2955   2.829   4.956   6.651 -0.8112 -1.1406  0.0166
 1004TIP3    H2 2956   2.796   4.963   6.799  0.2847 -0.1659  0.2264
 1005TIP3   OH2 2957   4.154   2.148   2.470  0.1796  0.1007  0.2426
 1005TIP3    H1 2958   4.232   2.175   2.421  0.1457 -0.6119 -0.2152
 1005TIP3    H2 2959   4.119   2.230   2.507 -1.5240  1.2179 -3.4112
 1006TIP3   OH2 2960   4.390   3.720   0.560  0.1225 -0.0176 -0.6100
 1006TIP3    H1 2961   4.434   3.751   0.639  1.7741 -2.1213 -0.6083
 1006TIP3    H2 2962   4.316   3.669   0.592 -0.1737  0.4758 -0.4950
 1007TIP3   OH2 2963   0.180   0.729   0.772 -0.1965 -0.2545  0.3208
 1007TIP3    H1 2964   0.162   0.635   0.775 -3.1451  0.2249  1.6822
 1007TIP3    H2 2965   0.132   0.765   0.847  0.3620  2.4272 -0.4812
 1008TIP3   OH2 2966   0.301   6.070   3.232 -0.4540  0.5002  0.4022
 1008TIP3    H1 2967   0.225   6.058   3.175  0.4641 -1.9212 -0.4993
 1008TIP3    H2 2968   0.288   6.007   3.303  0.7519 -0.0967  0.1233
 1009TIP3   OH2 2969   3.382   6.936   1.955  0.2341 -0.1359 -0.7778
 1009TIP3    H1 2970   3.328   6.901   1.884  1.0220  3.4150 -3.3532
 1009TIP3    H2 2971   3.336   7.015   1.983  0.5393 -0.8426  2.0303
 1010TIP3   OH2 2972   1.068   6.267   6.308 -0.0017  0.0599 -0.0306
 1010TIP3    H1 2973   0.980   6.262   6.271  0.4250 -1.7039 -0.9358
 1010TIP3    H2 2974   1.125   6.284   6.233  0.5743 -0.4875  0.2732
 1011TIP3   OH2 2975   1.861   4.756   4.021 -0.2466  0.5368  0.4663
 1011TIP3    H1 2976   1.795   4.824   4.034  1.0056  1.8961 -0.0111
 1011TIP3    H2 2977   1.853   4.732   3.929 -1.4654 -0.8384  0.9032
 1012TIP3   OH2 2978   6.577   7.104   4.664  0.3332  0.3183 -0.7545
 1012TIP3    H1 2979   6.579   7.040   4.735 -2.1354  1.6851  0.7165
 1012TIP3    H2 2980   6.608   7.056   4.587  1.8962 -1.5833  0.9561
 1013TIP3   OH2 2981   3.773   3.468   6.529  0.5185 -0.0880 -0.4892
 1013TIP3    H1 2982   3.842   3.446   6.592 -0.1295 -0.7388  0.0144
 1013TIP3    H2 2983   3.697   3.488   6.583  0.1034 -0.1177 -1.0562
 1014TIP3   OH2 2984   7.954   6.290   1.607 -0.8231  0.0064 -0.2227
 1014TIP3    H1 2985   7.886   6.252   1.552 -0.5547 -0.1639 -0.4387
 1014TIP3    H2 2986   7.907   6.345   1.669 -1.2168 -0.6691  0.0871
 1015TIP3   OH2 2987   6.675   7.324   4.830  0.4023  0.3401  0.4181
 1015TIP3    H1 2988   6.768   7.323   4.809  0.5657  0.5402  1.1006
 1015TIP3    H2 2989   6.636   7.261   4.770  1.4238 -2.0097  2.0621
 1016TIP3   OH2 2990   6.349   4.633   3.700 -0.1980  0.1414  0.0248
 1016TIP3    H1 2991   6.435   4.653   3.663  0.1811 -2.1341 -0.4951
 1016TIP3    H2 2992   6.302   4.590   3.629 -0.8405 -0.8893  1.0461
 1017TIP3   OH2 2993   2.814   0.879   3.828  0.2606 -0.7973  0.2930
 1017TIP3    H1 2994   2.772   0.917   3.905 -0.9667 -0.5511 -0.4647
 1017TIP3    H2 2995   2.908   0.892   3.843 -0.0484  1.3294  0.6935
 1018TIP3   OH2 2996   5.461   7.043   2.498 -0.1853 -0.4262  0.0467
 1018TIP3    H1 2997   5.405   7.069   2.571  1.9871  1.1525  1.2681
 1018TIP3    H2 2998   5.428   7.092   2.423  0.0031  1.0821  0.9221
 1019TIP3   OH2 2999   5.900   3.661   5.750  0.4480  0.0350 -0.0978
 1019TIP3    H1 3000   5.884   3.662   5.655  0.4055 -1.2082 -0.1193
 1019TIP3    H2 3001   5.812   3.669   5.788  0.5698  1.9607 -0.1222
 1020TIP3   OH2 3002   6.041   0.291   6.248 -0.0761  0.4537 -0.1824
 1020TIP3    H1 3003   6.003   0.265   6.332  0.0893 -1.0666 -0.5412
 1020TIP3    H2 3004   5.986   0.363   6.218 -0.6481  0.4619  0.8394
 1021TIP3   OH2 3005   3.136   3.009   1.164  0.0357 -0.0778 -0.0670
 1021TIP3    H1 3006   3.149   3.044   1.253 -1.3461 -1.0933  0.5707
 1021TIP3    H2 3007   3.048   3.037   1.140  0.6694  0.8457 -1.4806
 1022TIP3   OH2 3008   1.699   1.512   5.324  0.0003 -1.1728 -0.5539
 1022TIP3    H1 3009   1.754   1.463   5.385  2.8240  0.6342 -1.4448
 1022TIP3    H2 3010   1.720   1.604   5.341 -1.1468 -0.5054 -2.4352
 1023TIP3   OH2 3011   7.041   0.434   6.139 -0.1579  0.1473  0.8388
 1023TIP3    H1 3012   6.993   0.438   6.221 -1.8655 -1.2676 -0.0129
 1023TIP3    H2 3013   7.036   0.341   6.113  0.1549  0.5846 -0.9418
 1024TIP3   OH2 3014   1.873   0.661   6.328  0.1580  0.1070  0.3028
 1024TIP3    H1 3015   1.855   0.694   6.415  0.0477  0.3146  0.2017
 1024TIP3    H2 3016   1.960   0.622   6.334 -0.6396 -1.6973  1.0324
 1025TIP3   OH2 3017   6.775   0.339   6.677 -0.1791 -0.2771 -0.4780
 1025TIP3    H1 3018   6.870   0.333   6.667 -0.2006 -0.0762 -0.8169
 1025TIP3    H2 3019   6.744   0.250   6.662 -0.0914 -0.2370 -0.9117
 1026TIP3   OH2 3020   5.410   4.489   4.029 -0.2083 -0.1772  0.7392
 1026TIP3    H1 3021   5.452   4.572   4.052  1.9249 -0.5714 -1.2242
 1026TIP3    H2 3022   5.323   4.513   3.998  0.2817  1.3253  0.4387
 1027TIP3   OH2 3023   6.629   5.575   3.857 -0.3020  0.3082  0.3537
 1027TIP3    H1 3024   6.647   5.488   3.822 -2.3588  0.4596 -1.3050
 1027TIP3    H2 3025   6.567   5.559   3.929 -0.4893  0.3681  0.2077
 1028TIP3   OH2 3026   6.328   7.125   3.743  0.1442  0.2959  0.1315
 1028TIP3    H1 3027   6.394   7.062   3.715  1.0735  1.7503 -1.1406
 1028TIP3    H2 3028   6.376   7.207   3.753 -1.0713  0.8977  1.4675
 1029TIP3   OH2 3029   1.110   6.382   4.182  0.2768 -0.5877  0.0419
 1029TIP3    H1 3030   1.192   6.334   4.169  0.1109 -0.8382 -0.1050
 1029TIP3    H2 3031   1.046   6.335   4.127 -0.2939 -1.2581  1.2479
 1030TIP3   OH2 3032   7.467   5.839   6.545  0.0548  0.3526 -0.2852
 1030TIP3    H1 3033   7.507   5.807   6.464  1.8921  0.7154  0.4224
 1030TIP3    H2 3034   7.375   5.852   6.523  0.4573  0.2193 -2.2416
 1031TIP3   OH2 3035   5.467   4.826   1.830  0.4205  0.5778  0.3522
 1031TIP3    H1 3036   5.526   4.901   1.824 -0.5931  1.4448  0.9025
 1031TIP3    H2 3037   5.480   4.779   1.748 -0.0785  2.2365 -0.7314
 1032TIP3   OH2 3038   6.783   0.516   0.495  0.1800  0.4293 -0.2935
 1032TIP3    H1 3039   6.751   0.443   0.548  0.9447  1.0426  1.0712
 1032TIP3    H2 3040   6.730   0.590   0.523  0.0065  0.5955 -1.0363
 1033TIP3   OH2 3041   3.027   4.902   3.701 -0.0260 -0.2565  0.1468
 1033TIP3    H1 3042   3.061   4.972   3.647 -0.8472  0.6097  0.7182
 1033TIP3    H2 3043   3.076   4.908   3.783 -1.1006  0.6538  0.7681
 1034TIP3   OH2 3044   2.620   1.387   2.174 -0.1949  0.5274  0.0477
 1034TIP3    H1 3045   2.708   1.394   2.136 -0.0899 -1.1025 -0.0864
 1034TIP3    H2 3046   2.596   1.477   2.195 -0.2524  1.5895 -3.8486
 1035TIP3   OH2 3047   7.626   7.546   4.640  0.5759  0.1427  0.1141
 1035TIP3    H1 3048   7.605   7.453   4.639 -0.0454  0.2816  0.1083
 1035TIP3    H2 3049   7.657   7.565   4.552  0.1685  0.0665 -0.0444
 1036TIP3   OH2 3050   7.112   2.435   5.090  0.0298 -0.5437  0.4535
 1036TIP3    H1 3051   7.074   2.480   5.165 -0.8107 -2.9939  1.6038
 1036TIP3    H2 3052   7.143   2.352   5.125 -0.7435 -1.9440 -1.9546
 1037TIP3   OH2 3053   5.003   5.365   6.335 -0.4679 -0.2026 -0.0857
 1037TIP3    H1 3054   4.926   5.335   6.383 -0.8135  1.4883  0.4602
 1037TIP3    H2 3055   4.969   5.390   6.249  0.0383 -2.5421 -1.0615
 1038TIP3   OH2 3056   5.618   1.888   0.637  0.3621 -0.0269  0.0156
 1038TIP3    H1 3057   5.575   1.972   0.656 -2.2587 -1.7503  2.5071
 1038TIP3    H2 3058   5.570   1.852   0.563 -0.2089 -0.4360  0.5819
 1039TIP3   OH2 3059   1.497   4.711   6.176  0.1566  0.2518 -0.5847
 1039TIP3    H1 3060   1.430   4.691   6.241 -0.1073 -2.4599 -1.5461
 1039TIP3    H2 3061   1.579   4.711   6.225 -0.0852 -1.2959 -0.1041
 1040TIP3   OH2 3062   0.283   4.650   3.949  0.4068 -0.5074  0.0224
 1040TIP3    H1 3063   0.222   4.678   3.881 -0.2734 -2.2892 -0.1691
 1040TIP3    H2 3064   0.251   4.691   4.030  0.5028  0.6338 -0.4997
 1041TIP3   OH2 3065   6.894   7.137   2.220 -0.2247 -0.3850 -0.4867
 1041TIP3    H1 3066   6.806   7.158   2.252 -0.6789 -0.2527 -1.7443
 1041TIP3    H2 3067   6.915   7.208   2.160  0.6959 -0.4881 -0.2966
 1042TIP3   OH2 3068   5.924   2.597   1.506 -0.1036  0.5101  0.3335
 1042TIP3    H1 3069   5.912   2.509   1.470  1.1852  0.8190 -0.9841
 1042TIP3    H2 3070   5.887   2.655   1.439  1.5925  1.0718 -0.1708
 1043TIP3   OH2 3071   1.336   6.595   1.873 -0.1427 -0.0990 -0.5185
 1043TIP3    H1 3072   1.297   6.565   1.955  0.3132  2.4101  0.7163
 1043TIP3    H2 3073   1.278   6.561   1.805 -1.6909 -0.5729  0.9650
 1044TIP3   OH2 3074   7.963   2.974   0.530  0.3657  0.4609  0.5158
 1044TIP3    H1 3075   7.937   2.923   0.607 -0.3174  0.3306  0.2060
 1044TIP3    H2 3076   7.992   3.058   0.565 -1.2284  0.9121  0.8413
 1045TIP3   OH2 3077   4.110   5.135   4.136  0.0209  0.0427  0.0440
 1045TIP3    H1 3078   4.123   5.087   4.054 -0.2542 -1.5785  0.9077
 1045TIP3    H2 3079   4.175   5.098   4.196 -1.3570 -0.5046  1.2420
 1046TIP3   OH2 3080   3.530   0.425   1.286  0.5955 -0.3600 -0.0037
 1046TIP3    H1 3081   3.555   0.421   1.378 -2.0432 -1.9833  0.7674
 1046TIP3    H2 3082   3.556   0.339   1.250 -0.7087 -0.7740 -0.0282
 1047TIP3   OH2 3083   5.933   0.401   2.478  0.8345 -0.1977 -0.2589
 1047TIP3    H1 3084   5.937   0.485   2.523 -0.1608  1.1598 -2.4986
 1047TIP3    H2 3085   5.856   0.358   2.514  1.0707  0.0402  0.5589
 1048TIP3   OH2 3086   5.778   0.885   2.137  0.0366  0.5738  0.4130
 1048TIP3    H1 3087   5.707   0.948   2.150 -0.3725 -0.0222  1.2359
 1048TIP3    H2 3088   5.833   0.923   2.069 -2.0768  0.2266 -1.6278
 1049TIP3   OH2 3089   1.695   7.112   6.464  0.6133 -0.5475  0.5490
 1049TIP3    H1 3090   1.698   7.047   6.534 -0.3325 -1.2178 -0.0147
 1049TIP3    H2 3091   1.611   7.156   6.475  0.7343 -0.2225  0.2129
 1050TIP3   OH2 3092   7.625   0.715   2.671 -0.5108 -0.0759  0.3852
 1050TIP3    H1 3093   7.544   0.758   2.644 -0.5355 -0.5367 -0.2837
 1050TIP3    H2 3094   7.602   0.673   2.754 -1.4118 -1.4576 -0.5124
 1051TIP3   OH2 3095   2.661   4.370   3.415 -0.3732  0.2244  0.3917
 1051TIP3    H1 3096   2.756   4.368   3.427 -0.5199 -1.4256  1.5617
 1051TIP3    H2 3097   2.647   4.436   3.347  1.6665 -0.1309 -0.4458
 1052TIP3   OH2 3098   7.570   7.321   2.390  0.2428  0.0536  0.3155
 1052TIP3    H1 3099   7.598   7.411   2.408 -0.5202  0.0590  1.5564
 1052TIP3    H2 3100   7.545   7.286   2.475 -2.6301 -0.2608 -0.5702
 1053TIP3   OH2 3101   3.788   1.280   0.942  0.4572  0.6095 -0.5283
 1053TIP3    H1 3102   3.749   1.363   0.969  0.9211  1.0576 -1.2200
 1053TIP3    H2 3103   3.823   1.297   0.855  0.2689 -0.4054 -0.8142
 1054TIP3   OH2 3104   5.703   4.736   4.588 -0.3817 -0.0953  0.4089
 1054TIP3    H1 3105   5.617   4.772   4.564 -0.3524 -0.0209  0.4143
 1054TIP3    H2 3106   5.686   4.688   4.669 -0.5613 -0.7018  0.0160
 1055TIP3   OH2 3107   6.973   6.266   4.127  0.6000 -0.1025  0.0331
 1055TIP3    H1 3108   7.059   6.287   4.092  0.7925 -1.7918 -0.6109
 1055TIP3    H2 3109   6.912   6.302   4.063  0.8539  0.2550 -0.0109
 1056TIP3   OH2 3110   0.027   1.454   4.347  0.3125  0.1404  0.2655
 1056TIP3    H1 3111   0.018   1.437   4.253  1.4321 -0.7311  0.2872
 1056TIP3    H2 3112   0.114   1.493   4.355  0.1170  0.4399  0.9113
 1057TIP3   OH2 3113   3.304   4.211   6.108  0.6239 -0.0296 -0.4864
 1057TIP3    H1 3114   3.353   4.236   6.187  1.2280 -0.4586 -0.7108
 1057TIP3    H2 3115   3.316   4.116   6.102 -0.4585 -0.1795 -0.4156
 1058TIP3   OH2 3116   4.578   7.293   5.995  0.4845  0.3277 -0.2908
 1058TIP3    H1 3117   4.485   7.291   5.972  0.3981 -0.3054  0.0878
 1058TIP3    H2 3118   4.617   7.354   5.933 -0.4195  1.6547  0.3882
 1059TIP3   OH2 3119   1.938   4.303   4.994 -0.2996  0.1505 -0.5125
 1059TIP3    H1 3120   1.844   4.289   4.989 -0.4882  0.7652  0.8164
 1059TIP3    H2 3121   1.956   4.314   5.088  1.2991 -1.3153 -0.5944
 1060TIP3   OH2 3122   5.436   2.530   6.650 -0.0368 -0.1715  0.1849
 1060TIP3    H1 3123   5.446   2.553   6.742 -0.5511  0.7126  0.0342
 1060TIP3    H2 3124   5.420   2.436   6.650  1.3015 -0.4267  0.8901
 1061TIP3   OH2 3125   2.189   4.902   4.889 -0.2820 -0.1005  0.1435
 1061TIP3    H1 3126   2.198   4.996   4.873  0.6728 -0.1496  0.3550
 1061TIP3    H2 3127   2.267   4.879   4.939 -0.5610 -0.9932  0.1763
 1062TIP3   OH2 3128   4.597   3.355   1.436  0.3891 -0.0915  0.0767
 1062TIP3    H1 3129   4.512   3.392   1.413  1.8228  2.9588 -0.9165
 1062TIP3    H2 3130   4.590   3.262   1.413 -2.3284  0.2398 -0.8512
 1063TIP3   OH2 3131   5.419   6.238   4.561  0.0873  0.0344  0.0597
 1063TIP3    H1 3132   5.400   6.332   4.571  1.2114  0.2451  0.3456
 1063TIP3    H2 3133   5.511   6.235   4.535 -0.6097 -0.8870 -2.5704
 1064TIP3   OH2 3134   1.643   3.236   2.332 -0.8274  0.3387  0.3240
 1064TIP3    H1 3135   1.686   3.237   2.247 -0.4175 -0.5747  0.5064
 1064TIP3    H2 3136   1.680   3.311   2.379  0.4855 -0.3543  0.4253
 1065TIP3   OH2 3137   2.107   0.718   0.133  0.0095  0.2623 -0.1131
 1065TIP3    H1 3138   2.024   0.723   0.181  0.3945 -1.2535  0.7656
 1065TIP3    H2 3139   2.111   0.801   0.084 -1.5222  0.8122  0.6196
 1066TIP3   OH2 3140   4.164   5.153   6.244 -0.1715  0.1290 -0.4528
 1066TIP3    H1 3141   4.188   5.073   6.197  1.2567 -1.0862  2.1153
 1066TIP3    H2 3142   4.244   5.205   6.246  0.3853 -0.6962  2.0903
 1067TIP3   OH2 3143   4.052   6.840   6.054  0.3377  0.6555 -0.6736
 1067TIP3    H1 3144   4.074   6.776   6.122  2.6392  2.6684  0.6084
 1067TIP3    H2 3145   3.994   6.902   6.098  0.7749  1.2369 -0.9073
 1068TIP3   OH2 3146   7.339   3.617   0.358 -0.1275 -0.2140 -0.0759
 1068TIP3    H1 3147   7.430   3.587   0.358  0.3741  1.1472 -1.1796
 1068TIP3    H2 3148   7.310   3.607   0.448  0.8327 -1.4686  0.1224
 1069TIP3   OH2 3149   4.937   3.480   0.723  0.0980 -0.0365  0.5441
 1069TIP3    H1 3150   5.023   3.452   0.753  0.9070 -1.5304 -2.6794
 1069TIP3    H2 3151   4.887   3.398   0.714 -0.5368  0.4404 -0.5780
 1070TIP3   OH2 3152   5.776   2.785   3.342 -0.4164  0.2366 -0.9686
 1070TIP3    H1 3153   5.839   2.819   3.278  0.2581 -1.4495 -1.2339
 1070TIP3    H2 3154   5.786   2.844   3.417 -0.7061  1.8062 -2.1102
 1071TIP3   OH2 3155   3.133   2.306   4.333 -0.2353 -0.1421 -0.5247
 1071TIP3    H1 3156   3.070   2.375   4.313 -0.2341 -0.1889 -0.6920
 1071TIP3    H2 3157   3.208   2.353   4.369 -0.3138 -0.0745 -0.4467
 1072TIP3   OH2 3158   5.874   3.955   2.515 -0.2842  0.2717  0.6988
 1072TIP3    H1 3159   5.851   3.980   2.604  1.5626  0.4487  1.1678
 1072TIP3    H2 3160   5.896   3.862   2.521 -0.5840  0.1742  0.3268
 1073TIP3   OH2 3161   7.133   0.820   2.594  0.0333 -0.8241  0.3727
 1073TIP3    H1 3162   7.087   0.896   2.559  2.0237  0.7720  1.0027
 1073TIP3    H2 3163   7.139   0.758   2.521 -0.0690  0.3970 -0.6933
 1074TIP3   OH2 3164   2.395   2.920   3.290 -0.0262 -0.0304  0.3934
 1074TIP3    H1 3165   2.432   2.883   3.209 -0.3363 -0.8268  0.6127
 1074TIP3    H2 3166   2.303   2.894   3.289 -0.1268  0.2968  0.8143
 1075TIP3   OH2 3167   2.059   7.724   5.656 -0.5650  0.1454  0.1186
 1075TIP3    H1 3168   2.030   7.665   5.586 -0.5180  0.1945  0.0565
 1075TIP3    H2 3169   2.113   7.789   5.610  0.2633 -0.3743  0.3372
 1076TIP3   OH2 3170   7.011   5.105   6.251  0.2593 -0.0780 -0.0127
 1076TIP3    H1 3171   7.070   5.171   6.288  0.4664  0.4927 -1.3210
 1076TIP3    H2 3172   7.069   5.039   6.212  0.0468  0.2464 -0.8964
 1077TIP3   OH2 3173   0.811   4.433   0.902  0.2304  0.4215 -0.0944
 1077TIP3    H1 3174   0.865   4.374   0.851 -1.0252  0.4884 -1.5702
 1077TIP3    H2 3175   0.831   4.411   0.993  0.0314 -2.0865 -0.5776
 1078TIP3   OH2 3176   2.091   7.394   2.793 -0.6190  0.2566 -0.2833
 1078TIP3    H1 3177   2.089   7.352   2.879  0.2625  0.1213 -0.3116
 1078TIP3    H2 3178   2.000   7.411   2.772 -0.9640 -1.1074 -0.0098
 1079TIP3   OH2 3179   1.645   5.712   1.307  0.3148 -0.1965 -0.3155
 1079TIP3    H1 3180   1.669   5.779   1.371  0.6903 -0.6111 -0.0166
 1079TIP3    H2 3181   1.685   5.742   1.225 -0.3739  0.4619 -0.4230
 1080TIP3   OH2 3182   5.211   4.213   2.727 -0.0984 -0.1649  0.0615
 1080TIP3    H1 3183   5.155   4.215   2.649  0.6373 -2.5918 -0.5953
 1080TIP3    H2 3184   5.233   4.121   2.739  2.8056  0.5533  0.9929
 1081TIP3   OH2 3185   2.962   0.236   1.324  0.0132  0.1186  0.1368
 1081TIP3    H1 3186   3.022   0.285   1.380 -0.2352 -0.9373  1.3460
 1081TIP3    H2 3187   2.880   0.285   1.328  0.6803  1.4618 -1.3735
 1082TIP3   OH2 3188   2.846   0.996   6.234 -0.1562 -0.0816 -0.2045
 1082TIP3    H1 3189   2.762   0.981   6.191 -1.1738 -0.5320  1.8487
 1082TIP3    H2 3190   2.875   0.909   6.262 -0.0485  0.3173  0.9594
 1083TIP3   OH2 3191   4.508   6.077   4.934  0.1740 -0.0926  0.2531
 1083TIP3    H1 3192   4.543   5.990   4.915 -0.8561 -0.4732  0.0031
 1083TIP3    H2 3193   4.425   6.080   4.885  1.0757  1.7240 -1.2977
 1084TIP3   OH2 3194   8.103   1.392   3.620  0.0391 -0.1605  0.7710
 1084TIP3    H1 3195   8.101   1.465   3.558 -1.4993  0.0762  1.0560
 1084TIP3    H2 3196   8.015   1.355   3.616 -0.4392  0.4763  3.5395
 1085TIP3   OH2 3197   7.983   4.169   0.058 -0.3813  0.0307  0.3127
 1085TIP3    H1 3198   7.987   4.199   0.148 -0.4498 -1.1960  0.7459
 1085TIP3    H2 3199   8.068   4.191   0.021 -0.3813  0.6072  0.6500
 1086TIP3   OH2 3200   1.837   3.571   4.046  0.4416  0.3027  0.1467
 1086TIP3    H1 3201   1.751   3.537   4.020  0.6125  0.7373 -1.0582
 1086TIP3    H2 3202   1.819   3.624   4.124 -0.3032 -0.0254  0.2097
 1087TIP3   OH2 3203   2.669   4.369   5.257  0.3088  0.3692  0.3191
 1087TIP3    H1 3204   2.727   4.331   5.323 -0.4286  0.0930  0.8076
 1087TIP3    H2 3205   2.712   4.452   5.234  1.1398 -0.0434  0.3354
 1088TIP3   OH2 3206   1.403   0.932   0.882 -0.2222 -1.1858 -0.0453
 1088TIP3    H1 3207   1.340   0.878   0.834 -1.1893  0.3645 -0.6124
 1088TIP3    H2 3208   1.352   0.969   0.954 -0.1527  0.5322 -0.8298
 1089TIP3   OH2 3209   3.974   1.226   2.709  0.3949 -0.1009 -0.2646
 1089TIP3    H1 3210   3.986   1.313   2.748  0.7790 -0.6847  0.9772
 1089TIP3    H2 3211   4.007   1.166   2.775  1.4919 -1.1348 -1.6701
 1090TIP3   OH2 3212   5.931   4.150   0.724 -0.7597 -0.3348  0.1055
 1090TIP3    H1 3213   5.968   4.092   0.790 -1.1643  0.8571  1.4460
 1090TIP3    H2 3214   5.890   4.092   0.661  3.3318 -1.7916 -1.5663
 1091TIP3   OH2 3215   3.333   4.537   4.547 -0.8087 -0.6403 -0.5679
 1091TIP3    H1 3216   3.393   4.550   4.474  0.8592  0.2140  0.8901
 1091TIP3    H2 3217   3.376   4.471   4.602 -1.6843 -0.7239  0.0366
 1092TIP3   OH2 3218   3.152   4.524   5.289 -0.2025 -0.2269 -0.4714
 1092TIP3    H1 3219   3.248   4.525   5.292 -0.2209 -0.7114  0.4263
 1092TIP3    H2 3220   3.131   4.470   5.213  0.2318 -0.6459 -0.2991
 1093TIP3   OH2 3221   4.367   0.996   6.178  0.1078 -0.0970 -0.2260
 1093TIP3    H1 3222   4.274   0.976   6.183  0.3709 -1.3279  0.1728
 1093TIP3    H2 3223   4.385   1.047   6.257  0.0087 -0.9534  0.3639
 1094TIP3   OH2 3224   7.512   0.812   1.781 -0.4518 -0.1098  0.1870
 1094TIP3    H1 3225   7.421   0.783   1.785 -0.4120 -0.0861  1.8622
 1094TIP3    H2 3226   7.511   0.900   1.820  0.1489  0.3328 -0.7372
 1095TIP3   OH2 3227   0.457   3.615   0.774  0.1681  0.0601  0.0129
 1095TIP3    H1 3228   0.468   3.536   0.721 -0.3767 -0.0941  0.1227
 1095TIP3    H2 3229   0.544   3.633   0.808  0.1087 -1.0953  0.8332
 1096TIP3   OH2 3230   2.953   2.513   4.292  0.5804 -0.0851  0.1322
 1096TIP3    H1 3231   2.942   2.510   4.197 -1.1388 -0.1402  0.2869
 1096TIP3    H2 3232   2.864   2.499   4.326  0.9570  1.1848  1.7316
 1097TIP3   OH2 3233   4.052   7.056   5.060 -0.2428 -0.2952  0.0582
 1097TIP3    H1 3234   4.147   7.047   5.064 -0.1305  1.0596  1.0568
 1097TIP3    H2 3235   4.019   6.980   5.108  0.3857 -0.0211  0.9517
 1098TIP3   OH2 3236   0.474   0.602   3.135  0.1051  0.0215  0.4473
 1098TIP3    H1 3237   0.395   0.595   3.081  0.1733  0.5531  0.2779
 1098TIP3    H2 3238   0.508   0.690   3.118 -0.1130  0.3599  1.6967
 1099TIP3   OH2 3239   0.865   1.924   3.365 -0.3094  0.0552  0.6323
 1099TIP3    H1 3240   0.800   1.923   3.294  0.1733  2.0120  0.1123
 1099TIP3    H2 3241   0.949   1.918   3.320 -0.0221  0.8065  1.0560
 1100TIP3   OH2 3242   3.168   2.504   2.611 -0.0029  0.4850  0.1459
 1100TIP3    H1 3243   3.194   2.412   2.604 -0.4007  0.3968 -0.2093
 1100TIP3    H2 3244   3.128   2.511   2.698 -0.8187  0.0975 -0.1853
 1101TIP3   OH2 3245   2.687   4.187   5.949 -0.2211  0.5785 -1.0534
 1101TIP3    H1 3246   2.612   4.149   5.902  0.4504 -0.0752 -1.6238
 1101TIP3    H2 3247   2.733   4.238   5.883  0.3546  0.2074 -0.9484
 1102TIP3   OH2 3248   6.445   0.444   1.571  0.1917 -0.6031 -0.0086
 1102TIP3    H1 3249   6.508   0.509   1.541 -1.3225  0.6531 -0.6533
 1102TIP3    H2 3250   6.365   0.495   1.586 -1.1724 -2.3808 -0.9586
 1103TIP3   OH2 3251   0.330   2.804   6.299  0.2894 -0.2261  0.0721
 1103TIP3    H1 3252   0.372   2.740   6.242 -0.4931  0.3930 -1.2485
 1103TIP3    H2 3253   0.248   2.763   6.325 -0.6974  0.5928 -1.6090
 1104TIP3   OH2 3254   4.155   4.413   1.965 -0.9917 -0.1311 -0.1493
 1104TIP3    H1 3255   4.126   4.448   2.050 -2.7676 -0.9362 -0.3747
 1104TIP3    H2 3256   4.209   4.482   1.928 -1.5440  0.9207  0.9301
 1105TIP3   OH2 3257   7.092   7.274   4.135 -0.4858  0.3936  0.0468
 1105TIP3    H1 3258   7.146   7.206   4.174 -0.2379  0.8271  0.4786
 1105TIP3    H2 3259   7.148   7.314   4.068 -0.0651  1.1932  0.8551
 1106TIP3   OH2 3260   4.892   6.983   6.182 -0.1778  0.3887  0.0634
 1106TIP3    H1 3261   4.986   6.966   6.188 -0.2258  0.4324  1.0743
 1106TIP3    H2 3262   4.881   7.071   6.217 -0.5914  0.4019 -0.0948
 1107TIP3   OH2 3263   6.924   2.165   2.844 -0.0926 -0.1538  0.1872
 1107TIP3    H1 3264   7.012   2.131   2.857  0.7157  0.7611 -2.3875
 1107TIP3    H2 3265   6.916   2.237   2.907  0.8897 -0.4115  0.6164
 1108TIP3   OH2 3266   4.382   4.478   3.900 -0.2114  0.2014  0.0477
 1108TIP3    H1 3267   4.445   4.510   3.836  0.5495  1.0006  1.1677
 1108TIP3    H2 3268   4.297   4.504   3.865  0.0588 -0.6264 -1.3249
 1109TIP3   OH2 3269   0.528   6.205   6.222  0.9460  0.0393 -0.2357
 1109TIP3    H1 3270   0.476   6.244   6.152  0.3643  0.7259  0.5523
 1109TIP3    H2 3271   0.566   6.127   6.183  1.8935  1.2197 -1.7696
 1110TIP3   OH2 3272   0.705   2.380   0.331 -0.2051  0.3561  0.5458
 1110TIP3    H1 3273   0.756   2.457   0.304 -0.0874 -0.7003 -2.7000
 1110TIP3    H2 3274   0.625   2.385   0.278 -1.1879 -0.6808  1.8640
 1111TIP3   OH2 3275   6.494   6.834   2.077  0.5074  0.0920 -0.1542
 1111TIP3    H1 3276   6.505   6.822   2.171  1.0649 -1.5201 -0.3792
 1111TIP3    H2 3277   6.583   6.825   2.042  0.0947 -1.0522 -0.9687
 1112TIP3   OH2 3278  -0.019   2.872   3.326  0.0501 -0.1066 -0.1763
 1112TIP3    H1 3279  -0.033   2.929   3.250 -0.9263  0.0592  0.1110
 1112TIP3    H2 3280   0.075   2.854   3.326  0.2841  1.0202 -0.6239
 1113TIP3   OH2 3281   6.144   7.573   2.868 -0.3519  0.2017 -0.4708
 1113TIP3    H1 3282   6.175   7.482   2.862 -0.2715 -0.0262  2.0900
 1113TIP3    H2 3283   6.158   7.597   2.960  0.1380  3.0298 -1.1882
 1114TIP3   OH2 3284   6.961   3.979   3.446 -0.0257 -0.1975 -0.0788
 1114TIP3    H1 3285   6.977   3.968   3.540 -0.5777 -0.8038 -0.0485
 1114TIP3    H2 3286   7.044   4.013   3.412  1.0294 -2.2628  0.2418
 1115TIP3   OH2 3287   2.104   4.836   0.242 -0.0296 -0.8592  0.0536
 1115TIP3    H1 3288   2.145   4.917   0.212 -0.5610 -1.1131 -1.3885
 1115TIP3    H2 3289   2.062   4.861   0.325  1.6600 -0.2173  0.7755
 1116TIP3   OH2 3290   4.618   4.021   5.469 -0.5976  0.0230  0.2475
 1116TIP3    H1 3291   4.546   3.963   5.492 -1.3695  0.9778  0.2763
 1116TIP3    H2 3292   4.656   4.048   5.552  0.7257 -1.5771  0.2203
 1117TIP3   OH2 3293   3.115   3.692   2.783 -0.7692 -0.2559 -0.0731
 1117TIP3    H1 3294   3.179   3.637   2.827  0.4698 -2.4573 -4.0701
 1117TIP3    H2 3295   3.167   3.759   2.739 -1.0664 -1.6930 -2.8516
 1118TIP3   OH2 3296   0.355   3.587   1.025 -0.2674 -0.1267 -0.1932
 1118TIP3    H1 3297   0.369   3.599   0.931 -0.1587 -1.2533 -0.3350
 1118TIP3    H2 3298   0.444   3.587   1.062 -0.2645 -0.3996 -0.1944
 1119TIP3   OH2 3299   1.862   2.507   4.107 -0.2713  0.3041 -0.1994
 1119TIP3    H1 3300   1.853   2.599   4.082  2.5064  0.1682 -2.1274
 1119TIP3    H2 3301   1.884   2.510   4.200  1.3505  1.7582 -0.5766
 1120TIP3   OH2 3302   1.784   3.958   0.979 -0.3419  0.0668 -0.5275
 1120TIP3    H1 3303   1.877   3.978   0.973 -0.5119  1.2820  0.3195
 1120TIP3    H2 3304   1.745   4.001   0.903 -0.3613  0.6803 -0.1785
 1121TIP3   OH2 3305   0.565   1.284   1.728  1.1772  0.0007 -0.2856
 1121TIP3    H1 3306   0.610   1.360   1.764 -0.1205  1.5041 -1.6237
 1121TIP3    H2 3307   0.588   1.285   1.635  1.9480 -1.8830 -0.1398
 1122TIP3   OH2 3308   2.432   2.942   2.372 -0.0684 -0.1892 -0.0661
 1122TIP3    H1 3309   2.388   2.906   2.295 -1.7614  0.9755  0.2820
 1122TIP3    H2 3310   2.502   2.997   2.338  0.6227 -1.4038 -0.6720
 1123TIP3   OH2 3311   3.906   2.500   6.695 -0.1291  0.2295  0.2924
 1123TIP3    H1 3312   3.821   2.462   6.674 -0.6675  0.8410  1.2653
 1123TIP3    H2 3313   3.943   2.440   6.761 -0.7310  1.0419  1.4046
 1124TIP3   OH2 3314   0.791   5.166   3.198 -0.1901  0.4234 -0.2396
 1124TIP3    H1 3315   0.819   5.257   3.205 -0.0700  0.3573  0.1346
 1124TIP3    H2 3316   0.809   5.142   3.107  1.5838  0.1861  0.1300
 1125TIP3   OH2 3317   0.204   6.153   3.844  0.2831  0.0997  0.6273
 1125TIP3    H1 3318   0.110   6.173   3.843 -0.3481 -2.1043  3.1768
 1125TIP3    H2 3319   0.209   6.063   3.814  1.2636 -0.5408  2.5318
 1126TIP3   OH2 3320   2.994   6.694   1.888  0.4202 -0.5422  0.7574
 1126TIP3    H1 3321   3.012   6.775   1.937  1.8253 -1.2094  1.4070
 1126TIP3    H2 3322   2.899   6.683   1.894 -0.3496  2.6746 -1.9918
 1127TIP3   OH2 3323   0.404   0.376   5.718 -0.4384 -0.4381 -0.7963
 1127TIP3    H1 3324   0.453   0.441   5.669 -1.7010  1.4261  0.2749
 1127TIP3    H2 3325   0.312   0.395   5.698 -0.8791 -1.1173  0.4573
 1128TIP3   OH2 3326   5.821   4.294   0.366 -0.7973 -0.2667  0.4250
 1128TIP3    H1 3327   5.912   4.313   0.388 -0.4071  0.1097 -1.3538
 1128TIP3    H2 3328   5.774   4.305   0.449  0.5170  1.2570  1.0370
 1129TIP3   OH2 3329   0.671   0.713   1.187 -0.2056 -0.1800  0.2062
 1129TIP3    H1 3330   0.619   0.759   1.253  0.3786  0.3702  0.2922
 1129TIP3    H2 3331   0.734   0.663   1.238  0.5932  0.6602  0.0637
 1130TIP3   OH2 3332   7.870   1.171   1.499 -0.0176 -0.3166  0.6781
 1130TIP3    H1 3333   7.789   1.195   1.453 -0.5986 -1.6896  0.9437
 1130TIP3    H2 3334   7.900   1.253   1.539  0.3118  0.8701 -1.7858
 1131TIP3   OH2 3335   5.037   1.824   4.678  0.6681  0.1136  0.2922
 1131TIP3    H1 3336   5.066   1.769   4.750  0.8583  2.7841  2.3985
 1131TIP3    H2 3337   5.085   1.906   4.689 -1.9972  1.9391 -0.6618
 1132TIP3   OH2 3338   0.213   2.117   5.958 -0.4159  0.1833 -0.0126
 1132TIP3    H1 3339   0.144   2.125   6.023 -1.0759 -0.8085 -0.5733
 1132TIP3    H2 3340   0.168   2.122   5.873  0.3668  0.9102 -0.4054
 1133TIP3   OH2 3341   5.729   3.972   3.489  0.9786  0.0785  0.5241
 1133TIP3    H1 3342   5.683   3.898   3.528  1.1819 -0.0638  0.4938
 1133TIP3    H2 3343   5.757   3.941   3.403  1.7525 -0.0765  0.8227
 1134TIP3   OH2 3344   6.088   5.102   3.108  0.4279  0.1726  0.3740
 1134TIP3    H1 3345   6.072   5.162   3.036  1.7656  0.3919  0.2233
 1134TIP3    H2 3346   6.001   5.080   3.142 -0.3722 -1.1870 -2.2736
 1135TIP3   OH2 3347   2.939   0.743   6.292  0.2069 -0.0574  0.5565
 1135TIP3    H1 3348   2.929   0.736   6.387 -1.1753 -1.5814  0.3335
 1135TIP3    H2 3349   2.908   0.659   6.258  1.1427  0.2731 -1.2216
 1136TIP3   OH2 3350   0.417   5.105   3.441  0.1696  0.0002 -0.6474
 1136TIP3    H1 3351   0.373   5.167   3.499 -2.6035 -2.0353 -0.3992
 1136TIP3    H2 3352   0.443   5.033   3.498  0.5027 -0.4819 -1.3984
 1137TIP3   OH2 3353   2.067   0.703   5.385  0.2035  0.3975 -0.6996
 1137TIP3    H1 3354   2.000   0.753   5.432  0.9567  0.0621  0.7614
 1137TIP3    H2 3355   2.100   0.764   5.319 -0.2892  1.1562 -0.2630
 1138TIP3   OH2 3356   3.633   3.411   1.652  0.4029  0.0844 -0.6436
 1138TIP3    H1 3357   3.565   3.457   1.701  0.5650  1.8870 -1.9756
 1138TIP3    H2 3358   3.588   3.375   1.575  0.6329 -0.2807 -0.6099
 1139TIP3   OH2 3359   5.936   5.067   3.712 -0.0160  0.4411 -0.1347
 1139TIP3    H1 3360   5.893   5.039   3.792 -0.3372  1.7261  0.1708
 1139TIP3    H2 3361   6.020   5.102   3.740  0.5621 -0.5546 -0.5536
 1140TIP3   OH2 3362   0.321   7.717   3.431 -0.2142  0.1302 -0.3464
 1140TIP3    H1 3363   0.277   7.634   3.448 -0.9292  0.6764  0.5485
 1140TIP3    H2 3364   0.271   7.757   3.360 -2.1505  1.4211  1.6459
 1141TIP3   OH2 3365   3.472   4.527   1.438 -0.1768 -0.7749 -0.4093
 1141TIP3    H1 3366   3.515   4.613   1.442 -0.5271 -0.4658 -2.2771
 1141TIP3    H2 3367   3.522   4.479   1.372 -0.3598 -1.8036  0.1920
 1142TIP3   OH2 3368   1.973   4.630   1.718 -0.2058  0.0615 -0.5620
 1142TIP3    H1 3369   2.047   4.590   1.673 -1.6202 -0.4594 -2.5612
 1142TIP3    H2 3370   1.956   4.572   1.792  2.5821  1.3007  1.2060
 1143TIP3   OH2 3371   3.621   1.278   3.332  0.5385  0.4296 -0.5504
 1143TIP3    H1 3372   3.703   1.232   3.312 -0.0202 -0.3634 -1.0714
 1143TIP3    H2 3373   3.649   1.360   3.373  1.5717 -0.1543 -0.0498
 1144TIP3   OH2 3374   3.794   5.830   4.895 -0.0263 -0.1222  0.0763
 1144TIP3    H1 3375   3.821   5.760   4.835  0.8328  0.3022 -0.0457
 1144TIP3    H2 3376   3.844   5.906   4.866 -1.6521  0.8171 -0.4144
 1145TIP3   OH2 3377   2.210   2.630   0.636 -0.0280 -0.9096  0.1545
 1145TIP3    H1 3378   2.242   2.587   0.557  0.0877 -1.1015  0.3038
 1145TIP3    H2 3379   2.230   2.568   0.707  1.5479  0.0172  0.5926
 1146TIP3   OH2 3380   5.462   7.624   2.178  0.0303 -0.3451 -0.8586
 1146TIP3    H1 3381   5.403   7.668   2.240 -0.0573 -1.5913 -0.0167
 1146TIP3    H2 3382   5.513   7.695   2.140 -0.2049  0.5045  0.3430
 1147TIP3   OH2 3383   8.183   3.878   6.314 -0.6805 -0.1196 -0.0979
 1147TIP3    H1 3384   8.119   3.910   6.250 -0.5898 -0.5137 -0.3933
 1147TIP3    H2 3385   8.226   3.957   6.346 -1.0397  0.1175 -0.1914
 1148TIP3   OH2 3386   1.402   7.027   1.726 -0.0874 -0.3496 -0.2410
 1148TIP3    H1 3387   1.339   6.956   1.736  0.8775 -1.5238 -1.8797
 1148TIP3    H2 3388   1.439   7.014   1.638  0.9049  1.5469 -0.1564
 1149TIP3   OH2 3389   7.422   5.643   0.621 -0.4205  0.6430 -0.5566
 1149TIP3    H1 3390   7.425   5.576   0.689  2.2861  1.4048  0.2181
 1149TIP3    H2 3391   7.459   5.600   0.544 -0.1188  0.8042 -0.5021
 1150TIP3   OH2 3392   5.184   4.727   4.896  0.0183  0.5850  0.2394
 1150TIP3    H1 3393   5.243   4.799   4.916  0.9511 -0.0034 -0.3260
 1150TIP3    H2 3394   5.238   4.648   4.903 -1.2061 -0.1827  1.8154
 1151TIP3   OH2 3395   7.623   4.894   2.954 -0.4058 -0.5336 -0.1773
 1151TIP3    H1 3396   7.609   4.823   2.892  0.5357 -0.0631 -0.9709
 1151TIP3    H2 3397   7.717   4.891   2.973 -0.3328  0.5248 -0.2887
 1152TIP3   OH2 3398   1.744   0.709   4.010  0.1280  0.3690  0.0821
 1152TIP3    H1 3399   1.672   0.718   3.947  2.0442 -0.8983 -2.5053
 1152TIP3    H2 3400   1.752   0.795   4.050 -1.5062  1.0988 -1.0480
 1153TIP3   OH2 3401   1.820   1.209   2.920  0.1932 -0.3632 -0.1536
 1153TIP3    H1 3402   1.727   1.222   2.900  0.1876  0.1833  0.2121
 1153TIP3    H2 3403   1.832   1.248   3.007  0.2366 -2.5977  0.9235
 1154TIP3   OH2 3404   5.260   7.143   0.267  0.5036  0.5202  0.2575
 1154TIP3    H1 3405   5.296   7.058   0.241 -0.1423  0.3626 -0.1388
 1154TIP3    H2 3406   5.167   7.138   0.244 -0.1538  0.3294  2.7099
 1155TIP3   OH2 3407   4.269   7.759   3.938 -0.3875 -0.6440 -0.0512
 1155TIP3    H1 3408   4.252   7.850   3.915 -1.7509 -0.3947  1.7003
 1155TIP3    H2 3409   4.298   7.719   3.856 -0.6639  1.1308 -1.0834
 1156TIP3   OH2 3410   2.026   4.979   3.455 -0.2182  0.4886 -0.2604
 1156TIP3    H1 3411   2.089   5.039   3.414 -0.0024 -0.7814 -1.8971
 1156TIP3    H2 3412   2.076   4.899   3.470 -1.2765 -0.3461 -1.0715
 1157TIP3   OH2 3413   7.312   5.893   3.092  0.1412 -0.0994 -0.0794
 1157TIP3    H1 3414   7.313   5.852   3.005 -0.7694 -0.9330  0.2791
 1157TIP3    H2 3415   7.356   5.828   3.148 -2.2624 -1.1522  0.7041
 1158TIP3   OH2 3416   8.103   4.988   3.778 -0.0173  0.5864  0.5244
 1158TIP3    H1 3417   8.087   5.066   3.831  1.2387  1.5362 -0.4344
 1158TIP3    H2 3418   8.023   4.978   3.726  0.3727  2.2029 -0.4677
 1159TIP3   OH2 3419   1.446   7.659   4.796  0.1718 -0.1088  0.0732
 1159TIP3    H1 3420   1.467   7.675   4.704 -0.6971 -2.0861 -0.5326
 1159TIP3    H2 3421   1.470   7.740   4.841  1.2095  0.6763 -1.7885
 1160TIP3   OH2 3422   4.727   3.430   4.548 -0.7329  0.1121  0.2705
 1160TIP3    H1 3423   4.764   3.362   4.492  0.3083 -0.1642  1.2592
 1160TIP3    H2 3424   4.642   3.450   4.509  0.0423  0.0767 -1.5011
 1161TIP3   OH2 3425   1.262   2.701   1.897  0.4756  0.4157  0.8517
 1161TIP3    H1 3426   1.307   2.634   1.948  0.6608 -1.5586 -1.7054
 1161TIP3    H2 3427   1.331   2.742   1.845 -0.1845 -0.6275 -0.9409
 1162TIP3   OH2 3428   7.300   6.740   5.599  0.2297  0.4688  0.3503
 1162TIP3    H1 3429   7.322   6.779   5.515  0.2475  1.7478  0.9306
 1162TIP3    H2 3430   7.361   6.779   5.661 -0.1016 -0.0844  1.0399
 1163TIP3   OH2 3431   5.784   7.245   5.448 -0.0959 -0.5223  0.0257
 1163TIP3    H1 3432   5.696   7.280   5.464  0.4404  1.0878 -0.3999
 1163TIP3    H2 3433   5.811   7.283   5.365  1.2716 -0.4421  0.4753
 1164TIP3   OH2 3434   3.811   7.360   3.049 -0.3664  0.0780 -0.1944
 1164TIP3    H1 3435   3.816   7.266   3.063  0.7787  0.1851  0.2478
 1164TIP3    H2 3436   3.902   7.389   3.049 -0.7243  1.2633  0.2218
 1165TIP3   OH2 3437   3.588   4.082   5.756 -0.3012 -0.3903  0.1194
 1165TIP3    H1 3438   3.531   4.005   5.762 -1.0592  0.2681  1.9681
 1165TIP3    H2 3439   3.617   4.097   5.845  0.4929  1.0063 -0.3493
 1166TIP3   OH2 3440   5.434   4.080   3.024 -0.0412  0.1434 -0.0949
 1166TIP3    H1 3441   5.411   3.998   2.981  2.1967 -0.6245  0.0530
 1166TIP3    H2 3442   5.495   4.123   2.965  0.9025  0.3974  1.0183
 1167TIP3   OH2 3443   3.999   7.116   4.008 -0.7283  0.3341 -0.4862
 1167TIP3    H1 3444   3.924   7.141   4.062 -1.3009  1.2446 -1.6694
 1167TIP3    H2 3445   4.040   7.199   3.984  0.8014 -0.1497  0.2947
 1168TIP3   OH2 3446   4.011   0.801   6.548  0.2128  0.3297 -0.6531
 1168TIP3    H1 3447   4.008   0.854   6.468  0.8316 -0.1135 -0.9744
 1168TIP3    H2 3448   4.104   0.796   6.570 -0.0797  3.0646  1.8678
 1169TIP3   OH2 3449   5.231   5.949   4.792  0.2273 -0.3876  0.6859
 1169TIP3    H1 3450   5.241   5.957   4.697  0.2144  0.4257  0.7480
 1169TIP3    H2 3451   5.189   5.864   4.805 -0.2934 -0.2520 -0.0767
 1170TIP3   OH2 3452   1.984   7.221   1.993  0.4453 -0.8282  0.3714
 1170TIP3    H1 3453   2.045   7.294   1.979 -0.0572 -0.5551 -0.5098
 1170TIP3    H2 3454   1.990   7.169   1.913 -0.4123 -0.8399  0.3012
 1171TIP3   OH2 3455   5.955   5.293   3.908 -0.1915  0.2486 -0.0668
 1171TIP3    H1 3456   5.896   5.221   3.930 -0.5019  0.7658  0.8515
 1171TIP3    H2 3457   6.034   5.276   3.958 -0.6442  1.0662  0.9626
 1172TIP3   OH2 3458   1.909   7.534   3.215 -0.2014  0.1769  0.3316
 1172TIP3    H1 3459   1.860   7.453   3.197  0.0895 -0.0248  0.4431
 1172TIP3    H2 3460   1.954   7.517   3.298  0.4690  0.1674 -0.0243
 1173TIP3   OH2 3461   5.793   6.120   4.732  0.3092  0.0368 -0.0359
 1173TIP3    H1 3462   5.787   6.151   4.822  0.2270  1.5475 -0.5384
 1173TIP3    H2 3463   5.720   6.058   4.723  0.6717 -0.5723  1.0872
 1174TIP3   OH2 3464   8.100   7.594   0.467  0.3203  0.0316 -0.1278
 1174TIP3    H1 3465   8.144   7.587   0.382 -0.9705 -2.0752 -0.7205
 1174TIP3    H2 3466   8.165   7.564   0.530  0.3187 -1.5065 -0.7995
 1175TIP3   OH2 3467   4.030   3.641   1.425 -0.8870  0.2494 -0.1780
 1175TIP3    H1 3468   3.945   3.599   1.411 -2.1167  1.9573  1.5132
 1175TIP3    H2 3469   4.008   3.732   1.446  1.3005  0.5091  1.3039
 1176TIP3   OH2 3470   1.731   6.102   4.920  0.6752  0.3101  0.3373
 1176TIP3    H1 3471   1.794   6.096   4.849  0.5371 -1.1926  0.3062
 1176TIP3    H2 3472   1.708   6.195   4.925  2.6417  0.8363  0.1581
 1177TIP3   OH2 3473   4.023   5.401   3.771 -0.0776 -0.1598  0.3520
 1177TIP3    H1 3474   4.027   5.489   3.810 -0.5035 -0.1205  0.3077
 1177TIP3    H2 3475   4.082   5.349   3.826  0.6927  0.2979 -0.0124
 1178TIP3   OH2 3476   3.158   4.108   6.382 -0.3589 -0.2490 -0.0160
 1178TIP3    H1 3477   3.151   4.076   6.292 -1.1048 -0.1541  0.0022
 1178TIP3    H2 3478   3.116   4.041   6.435  1.7746 -1.2712  0.5123
 1179TIP3   OH2 3479   3.809   4.606   1.087  0.1465  0.1459  0.0633
 1179TIP3    H1 3480   3.893   4.579   1.049 -0.2748  1.9599 -2.4966
 1179TIP3    H2 3481   3.833   4.667   1.157  0.9448 -2.2854  2.0365
 1180TIP3   OH2 3482   2.823   1.813   0.223  0.2318  0.5560  0.2049
 1180TIP3    H1 3483   2.816   1.815   0.127 -0.3597  1.0485  0.2493
 1180TIP3    H2 3484   2.758   1.748   0.250  1.3872 -0.6442  0.2096
 1181TIP3   OH2 3485   5.338   6.160   0.292  0.2925  0.3264 -0.1202
 1181TIP3    H1 3486   5.312   6.224   0.358 -0.3188 -0.4040  0.3646
 1181TIP3    H2 3487   5.302   6.193   0.210  0.3062  0.7898  0.0585
 1182TIP3   OH2 3488   2.382   1.219   6.728 -0.0219  0.1493  0.3979
 1182TIP3    H1 3489   2.305   1.190   6.778  0.0654  0.6717  0.8460
 1182TIP3    H2 3490   2.352   1.219   6.637 -1.0032  1.6987  0.6903
 1183TIP3   OH2 3491   0.337   2.056   6.212  0.1152 -0.2155 -0.2160
 1183TIP3    H1 3492   0.310   2.070   6.122 -1.2012  3.4052  0.5738
 1183TIP3    H2 3493   0.257   2.030   6.258  0.0666  0.9240  0.3882
 1184TIP3   OH2 3494   2.837   1.437   4.956  0.0087 -0.1802  0.6610
 1184TIP3    H1 3495   2.923   1.420   4.917 -0.1833  2.5641 -1.2672
 1184TIP3    H2 3496   2.779   1.374   4.914  0.7874 -1.0025  0.7860
 1185TIP3   OH2 3497   0.380   4.239   5.035 -0.0620  0.4075  0.0841
 1185TIP3    H1 3498   0.440   4.309   5.059  0.0608  0.1321  0.6167
 1185TIP3    H2 3499   0.326   4.227   5.114 -1.0320  0.8706 -0.4962
 1186TIP3   OH2 3500   5.943   4.168   3.775  0.1398  0.5473 -0.7019
 1186TIP3    H1 3501   6.024   4.183   3.825  0.2439  0.1307 -0.7436
 1186TIP3    H2 3502   5.913   4.256   3.751 -0.2385  0.8100  0.6182
 1187TIP3   OH2 3503   3.491   3.458   6.008 -0.4921 -1.3293  0.2571
 1187TIP3    H1 3504   3.542   3.523   6.057 -1.8516  0.0724 -0.1064
 1187TIP3    H2 3505   3.556   3.395   5.978  1.8485  2.4357 -3.7043
 1188TIP3   OH2 3506   6.722   6.048   1.965 -0.1427  0.1047  0.4044
 1188TIP3    H1 3507   6.793   6.084   1.912 -0.4907 -0.8083 -0.7273
 1188TIP3    H2 3508   6.642   6.081   1.924 -0.4200 -0.6194  0.3495
 1189TIP3   OH2 3509   0.540   1.325   6.672  0.7508 -0.0424 -0.5152
 1189TIP3    H1 3510   0.561   1.385   6.601  0.1268 -0.6822 -1.2764
 1189TIP3    H2 3511   0.504   1.380   6.741  0.9139  0.5457 -0.8947
 1190TIP3   OH2 3512   4.851   3.284   5.655  0.3571  0.1573  0.1344
 1190TIP3    H1 3513   4.915   3.213   5.666 -0.5458 -0.9024 -1.1320
 1190TIP3    H2 3514   4.767   3.244   5.676 -0.1728  0.8340 -0.6339
 1191TIP3   OH2 3515   1.700   1.929   5.569  0.3944  0.0429 -0.1332
 1191TIP3    H1 3516   1.616   1.974   5.558 -0.5269 -1.8752 -1.3233
 1191TIP3    H2 3517   1.685   1.866   5.639  1.5827  1.2315  1.2768
 1192TIP3   OH2 3518   6.793   6.665   4.960 -0.1204  0.0005 -0.0377
 1192TIP3    H1 3519   6.702   6.634   4.955  0.1828 -1.1452  0.9566
 1192TIP3    H2 3520   6.846   6.586   4.946  0.7166  0.6134 -0.3719
 1193TIP3   OH2 3521   7.033   2.235   4.372  0.1819  0.3260 -0.2485
 1193TIP3    H1 3522   7.041   2.311   4.314 -0.6683  0.2898 -0.4262
 1193TIP3    H2 3523   7.085   2.167   4.330  2.1127  1.2010  0.6234
 1194TIP3   OH2 3524   2.342   4.164   4.546 -0.3636  0.1332 -0.1298
 1194TIP3    H1 3525   2.374   4.141   4.634 -0.4420  0.0120 -0.1327
 1194TIP3    H2 3526   2.307   4.082   4.511  2.4644 -0.6173 -1.5238
 1195TIP3   OH2 3527   1.314   3.921   4.316  0.2559  0.8240  0.3547
 1195TIP3    H1 3528   1.327   3.833   4.352  2.4376  1.0787  0.2724
 1195TIP3    H2 3529   1.310   3.907   4.221 -2.4534  0.5202  0.4257
 1196TIP3   OH2 3530   6.897   4.089   2.197  0.0658 -0.1445  0.1501
 1196TIP3    H1 3531   6.895   4.006   2.246  0.0852 -0.0150  0.3724
 1196TIP3    H2 3532   6.966   4.077   2.132 -0.4345 -0.5760 -0.3074
 1197TIP3   OH2 3533   5.837   1.283   3.236  0.3727 -0.3980 -0.1466
 1197TIP3    H1 3534   5.860   1.191   3.251 -0.8439 -0.6976 -0.0564
 1197TIP3    H2 3535   5.838   1.322   3.324 -1.0487 -0.8038  0.0745
 1198TIP3   OH2 3536   4.763   1.042   4.630  0.0134 -0.0286 -0.2177
 1198TIP3    H1 3537   4.790   1.125   4.670 -0.8008 -0.1303  0.5747
 1198TIP3    H2 3538   4.671   1.056   4.607 -0.6470 -1.2442  1.4678
 1199TIP3   OH2 3539   7.950   5.366   5.370  0.3455 -0.1639 -0.4634
 1199TIP3    H1 3540   7.888   5.343   5.300 -2.5362 -0.1756  1.9209
 1199TIP3    H2 3541   7.938   5.460   5.383  2.1268  0.1785 -1.0559
 1200TIP3   OH2 3542   6.085   1.483   5.005  0.3028  0.0337  0.1283
 1200TIP3    H1 3543   6.135   1.414   4.962  0.5365  0.1136  0.2718
 1200TIP3    H2 3544   6.111   1.479   5.097 -0.2496 -0.1813  0.2785
 1201TIP3   OH2 3545   5.381   1.809   4.911  0.2126 -0.0079 -0.4499
 1201TIP3    H1 3546   5.397   1.888   4.963  0.0612 -0.6872  0.6572
 1201TIP3    H2 3547   5.295   1.778   4.941  1.7184 -2.4876  1.6429
 1202TIP3   OH2 3548   1.246   3.997   4.739  0.2725  0.3788 -0.3099
 1202TIP3    H1 3549   1.177   3.938   4.711  0.0297  0.1183  0.7704
 1202TIP3    H2 3550   1.314   3.940   4.775  0.0319  0.7357  0.7464
 1203TIP3   OH2 3551   5.515   7.484   1.093  0.1416  0.2980  0.3230
 1203TIP3    H1 3552   5.600   7.483   1.049 -0.2872  0.7112 -0.5505
 1203TIP3    H2 3553   5.501   7.577   1.114 -0.5777  0.4021 -0.5462
 1204TIP3   OH2 3554   5.345   4.655   3.388 -0.1099  0.1946 -0.3774
 1204TIP3    H1 3555   5.301   4.625   3.309 -0.1550 -1.0236  0.0828
 1204TIP3    H2 3556   5.433   4.619   3.382 -0.1959 -0.1411  0.2391
 1205TIP3   OH2 3557   7.847   1.932   0.158  0.6036 -0.2856 -0.6256
 1205TIP3    H1 3558   7.772   1.985   0.184  0.9054  0.5602 -1.4189
 1205TIP3    H2 3559   7.809   1.855   0.115  0.1978  0.2237 -1.1801
 1206TIP3   OH2 3560   2.415   5.106   3.600 -0.4646 -0.6406 -0.2897
 1206TIP3    H1 3561   2.396   5.060   3.682  0.5123 -1.0844 -0.2954
 1206TIP3    H2 3562   2.445   5.192   3.627  3.1625 -1.8537  0.0886
 1207TIP3   OH2 3563   0.347   1.897   5.851  0.0659  0.2166  0.9848
 1207TIP3    H1 3564   0.304   1.983   5.853 -1.1846 -0.3319 -0.1450
 1207TIP3    H2 3565   0.439   1.916   5.832 -0.1775  1.3098  0.8455
 1208TIP3   OH2 3566   5.054   0.531   4.286  0.2823 -0.0128  0.1817
 1208TIP3    H1 3567   4.963   0.523   4.314  0.2714  1.0874  0.5019
 1208TIP3    H2 3568   5.050   0.570   4.199  0.4546 -0.0642  0.1488
 1209TIP3   OH2 3569   4.487   0.009   5.253  0.1299  0.5811 -0.5870
 1209TIP3    H1 3570   4.564   0.054   5.219  1.3010 -1.7041 -1.2221
 1209TIP3    H2 3571   4.486   0.029   5.347  2.5701 -0.6618 -0.2227
 1210TIP3   OH2 3572   2.583   6.893   0.695  0.3376 -0.4575 -0.7890
 1210TIP3    H1 3573   2.678   6.900   0.696  0.2768  0.6764 -1.5014
 1210TIP3    H2 3574   2.561   6.861   0.608  0.0209  0.0281 -0.8887
 1211TIP3   OH2 3575   1.293   7.131   2.118 -0.5425 -0.1053  0.6983
 1211TIP3    H1 3576   1.373   7.094   2.079 -0.4252 -0.0477  0.8833
 1211TIP3    H2 3577   1.226   7.119   2.051  0.3260  2.9279 -0.8993
 1212TIP3   OH2 3578   3.952   1.079   3.549  0.2300 -0.1139 -0.2524
 1212TIP3    H1 3579   3.883   1.047   3.490 -0.2112  0.5604 -0.1135
 1212TIP3    H2 3580   4.003   1.139   3.495 -0.3893  0.7799  0.1369
 1213TIP3   OH2 3581   5.118   4.731   6.317  0.7299  0.4656  0.2705
 1213TIP3    H1 3582   5.056   4.695   6.381 -1.3200 -0.5333 -2.0916
 1213TIP3    H2 3583   5.158   4.654   6.276  1.6424  1.0644  0.0008
 1214TIP3   OH2 3584   7.601   0.086   5.956  0.4447  0.1555 -0.1978
 1214TIP3    H1 3585   7.562   0.133   5.883 -2.2705  0.9344  1.6222
 1214TIP3    H2 3586   7.644   0.154   6.008 -0.2113  0.0944  0.4480
 1215TIP3   OH2 3587   7.243   1.140   1.090 -0.0617 -0.0167 -0.5334
 1215TIP3    H1 3588   7.258   1.189   1.009  0.4286  0.0323 -0.4163
 1215TIP3    H2 3589   7.327   1.098   1.108 -0.3153 -0.4381 -0.3208
 1216TIP3   OH2 3590   3.972   3.489   2.420 -0.0444 -0.3195  0.2466
 1216TIP3    H1 3591   4.004   3.424   2.483  2.9969  0.1462 -0.6576
 1216TIP3    H2 3592   3.967   3.441   2.337 -1.1297 -0.1976  0.2289
 1217TIP3   OH2 3593   5.120   6.070   4.166 -0.1327  0.0785 -0.4576
 1217TIP3    H1 3594   5.174   6.142   4.201 -0.2041  0.1112 -0.4149
 1217TIP3    H2 3595   5.183   6.014   4.120  0.2047 -0.6993  0.8829
 1218TIP3   OH2 3596   7.185   2.111   2.840  0.2616  0.7440  0.2153
 1218TIP3    H1 3597   7.249   2.145   2.903  0.8278 -1.8485  1.1714
 1218TIP3    H2 3598   7.238   2.067   2.773 -0.4399  0.3751 -0.1103
 1219TIP3   OH2 3599   6.569   2.771   3.238 -0.2876 -0.2565 -0.3347
 1219TIP3    H1 3600   6.493   2.728   3.276 -0.4142 -1.8245 -2.2133
 1219TIP3    H2 3601   6.538   2.807   3.155  1.2973 -2.4454 -2.0047
 1220TIP3   OH2 3602   7.591   4.206   6.494  0.0735 -0.3082  0.0508
 1220TIP3    H1 3603   7.637   4.160   6.564 -0.6100 -1.0543  0.0216
 1220TIP3    H2 3604   7.620   4.297   6.502 -0.5703 -0.2172  1.7944
 1221TIP3   OH2 3605   7.846   0.470   0.541 -0.2475 -0.7986  0.1730
 1221TIP3    H1 3606   7.801   0.488   0.458  0.1275 -0.6089  0.0088
 1221TIP3    H2 3607   7.877   0.556   0.570 -0.7834 -0.7971  0.7472
 1222TIP3   OH2 3608   0.915   7.061   4.328 -0.4684  0.2222 -0.5004
 1222TIP3    H1 3609   0.916   6.983   4.273 -0.5308 -0.7899  0.8763
 1222TIP3    H2 3610   0.965   7.126   4.278 -0.4234 -0.6809 -1.6790
 1223TIP3   OH2 3611   0.446   7.429   6.271  0.3170 -0.0891  0.3759
 1223TIP3    H1 3612   0.432   7.338   6.244 -2.0275  0.1053  0.7270
 1223TIP3    H2 3613   0.462   7.476   6.189  1.1190 -0.7220  0.1532
 1224TIP3   OH2 3614   2.306   3.366   4.912  0.1727 -0.7017  0.5462
 1224TIP3    H1 3615   2.371   3.434   4.894 -0.7490 -0.4466 -2.2355
 1224TIP3    H2 3616   2.316   3.303   4.841 -0.9510 -1.9600  1.4554
 1225TIP3   OH2 3617   6.857   1.012   5.136 -0.6778  0.2052 -0.1126
 1225TIP3    H1 3618   6.853   0.991   5.229  0.3909  1.0140  0.1377
 1225TIP3    H2 3619   6.837   1.106   5.132 -1.4151  0.0334 -0.7861
 1226TIP3   OH2 3620   3.878   3.965   6.215  0.5346 -0.0797 -0.3079
 1226TIP3    H1 3621   3.969   3.996   6.211  0.2244  0.7246 -1.6848
 1226TIP3    H2 3622   3.857   3.941   6.125 -0.6295 -0.2441 -0.0088
 1227TIP3   OH2 3623   0.155   1.410   2.615 -0.4418  0.1860 -0.0838
 1227TIP3    H1 3624   0.205   1.393   2.694  2.2724  1.7997 -1.3110
 1227TIP3    H2 3625   0.096   1.482   2.639  0.6902  0.9777  0.3908
 1228TIP3   OH2 3626   0.445   6.978   1.487 -0.1806 -0.8437  0.4011
 1228TIP3    H1 3627   0.417   6.982   1.579  1.6242  0.2589  0.9451
 1228TIP3    H2 3628   0.540   6.967   1.491  0.1609  1.0056 -1.3285
 1229TIP3   OH2 3629   2.785   5.595   0.638  0.2938 -0.1045 -0.0748
 1229TIP3    H1 3630   2.724   5.592   0.565 -0.6635  0.6920  0.6521
 1229TIP3    H2 3631   2.747   5.537   0.704 -1.2500  2.4617  1.4761
 1230TIP3   OH2 3632   4.821   5.948   3.976 -0.0544  0.1237  0.2103
 1230TIP3    H1 3633   4.820   6.021   4.038  0.0393 -0.6970  1.2045
 1230TIP3    H2 3634   4.914   5.924   3.969 -0.0327  0.3911 -0.4695
 1231TIP3   OH2 3635   7.853   1.504   2.313 -0.3922  0.1106 -0.4255
 1231TIP3    H1 3636   7.831   1.416   2.343 -1.0566  0.1150 -0.8787
 1231TIP3    H2 3637   7.894   1.546   2.388 -1.2728 -0.1487  0.2155
 1232TIP3   OH2 3638   0.960   0.008   1.443  0.1516 -0.7200  0.1567
 1232TIP3    H1 3639   1.037  -0.001   1.387  0.1994 -4.3151  0.5559
 1232TIP3    H2 3640   0.893   0.047   1.387  1.8159  1.2484 -0.5717
 1233TIP3   OH2 3641   3.579   1.782   0.829 -0.1344  0.1503 -0.1728
 1233TIP3    H1 3642   3.633   1.822   0.760 -1.5880 -0.9037 -2.0356
 1233TIP3    H2 3643   3.534   1.710   0.785 -2.7907  0.7410  1.3406
 1234TIP3   OH2 3644   6.646   3.699   1.883  0.8269  0.0570  0.2569
 1234TIP3    H1 3645   6.661   3.765   1.815 -1.9645  0.3652 -0.1650
 1234TIP3    H2 3646   6.613   3.623   1.836  0.1647 -0.2084  1.1272
 1235TIP3   OH2 3647   2.156   4.623   4.029  1.0002 -0.0675  0.1587
 1235TIP3    H1 3648   2.158   4.536   4.069 -0.2353  0.8093  2.2678
 1235TIP3    H2 3649   2.097   4.674   4.084  1.3670  2.0282 -1.2554
 1236TIP3   OH2 3650   8.012   5.195   4.952  0.2097  0.1530 -0.3239
 1236TIP3    H1 3651   7.991   5.148   4.871 -0.3751 -1.4138  0.6955
 1236TIP3    H2 3652   8.108   5.197   4.954  0.2908 -1.7109 -0.0560
 1237TIP3   OH2 3653   4.146   5.996   2.907  0.4986 -0.2181  0.2188
 1237TIP3    H1 3654   4.055   6.023   2.901  0.9971  1.6247  0.2002
 1237TIP3    H2 3655   4.152   5.917   2.854 -0.9441  0.0097 -0.3158
 1238TIP3   OH2 3656   5.357   5.453   4.949 -0.0985 -0.2268  0.7006
 1238TIP3    H1 3657   5.362   5.421   5.039  0.2882 -2.0616  0.0563
 1238TIP3    H2 3658   5.447   5.475   4.926 -0.1258 -0.2510  0.5721
 1239TIP3   OH2 3659   5.470   1.323   2.790  0.0581  0.4346  0.1759
 1239TIP3    H1 3660   5.542   1.338   2.851 -0.6134 -0.5101  1.2384
 1239TIP3    H2 3661   5.473   1.229   2.773 -1.9703  0.0437  1.6343
 1240TIP3   OH2 3662   7.535   5.435   4.535 -0.4291 -0.2005 -0.0175
 1240TIP3    H1 3663   7.510   5.488   4.459  0.2645 -0.4667 -0.4435
 1240TIP3    H2 3664   7.453   5.411   4.576 -0.7680  2.3743  1.0143
 1241TIP3   OH2 3665   6.302   4.854   3.867 -0.6324 -0.0013 -0.6889
 1241TIP3    H1 3666   6.297   4.797   3.790 -0.5128  0.8991 -1.3883
 1241TIP3    H2 3667   6.370   4.815   3.922  0.4254  0.2093 -1.7986
 1242TIP3   OH2 3668   5.793   5.682   0.273  0.0298  0.1837 -0.0283
 1242TIP3    H1 3669   5.755   5.729   0.199  1.4056  0.1785 -0.7632
 1242TIP3    H2 3670   5.878   5.725   0.288 -0.3091  0.3377  1.6937
 1243TIP3   OH2 3671   2.428   0.550   3.001 -0.2267  0.2856 -0.1459
 1243TIP3    H1 3672   2.517   0.586   3.000  0.6819 -1.8318 -0.6594
 1243TIP3    H2 3673   2.387   0.587   2.922  1.0709 -0.6933 -1.3300
 1244TIP3   OH2 3674   7.266   1.140   0.155 -0.2231  0.3240  0.7086
 1244TIP3    H1 3675   7.330   1.209   0.136  1.2025 -1.4795 -1.5573
 1244TIP3    H2 3676   7.194   1.157   0.095 -1.2079  1.4289  2.1485
 1245TIP3   OH2 3677   3.899   7.387   3.724 -0.6015  0.2459  0.3087
 1245TIP3    H1 3678   3.935   7.440   3.796 -0.2134  1.2571 -0.6116
 1245TIP3    H2 3679   3.819   7.348   3.761  0.4672 -0.6434  1.8313
 1246TIP3   OH2 3680   7.784   2.756   3.240  0.4252 -0.3786  0.6735
 1246TIP3    H1 3681   7.819   2.846   3.238  0.1920 -0.2907  0.5161
 1246TIP3    H2 3682   7.738   2.746   3.157  2.7453 -1.5860 -0.5706
 1247TIP3   OH2 3683   4.490   0.969   4.918 -0.2099 -0.0786  0.1275
 1247TIP3    H1 3684   4.542   1.041   4.954  1.1611 -1.2968  0.6850
 1247TIP3    H2 3685   4.463   0.919   4.995  1.1867 -1.6764 -0.3750
 1248TIP3   OH2 3686   2.197   0.511   1.660 -0.3851 -0.0365 -0.0331
 1248TIP3    H1 3687   2.163   0.598   1.638 -2.6056 -1.3771 -2.5518
 1248TIP3    H2 3688   2.139   0.480   1.730  0.1772  0.3342  0.6091
 1249TIP3   OH2 3689   3.930   5.048   6.364 -0.2437 -0.4235 -0.4254
 1249TIP3    H1 3690   3.906   5.100   6.441 -0.8041 -1.3659  0.0608
 1249TIP3    H2 3691   4.004   5.094   6.325 -0.5350  0.5586  0.1683
 1250TIP3   OH2 3692   7.903   3.805   6.386  0.2073 -0.3450 -0.5848
 1250TIP3    H1 3693   7.872   3.797   6.476  0.1881  1.0115 -0.4556
 1250TIP3    H2 3694   7.991   3.843   6.394  0.1943 -0.1840 -1.1396
 1251TIP3   OH2 3695   6.559   6.400   2.990  0.1413 -0.0575  0.2706
 1251TIP3    H1 3696   6.649   6.369   2.984  0.7181  1.5671 -0.0912
 1251TIP3    H2 3697   6.528   6.370   3.075  1.3511  0.1508  0.8044
 1252TIP3   OH2 3698   4.454   4.886   2.451 -0.8326  1.2498 -0.3383
 1252TIP3    H1 3699   4.534   4.914   2.406 -1.1313  0.5186 -1.3503
 1252TIP3    H2 3700   4.476   4.801   2.488 -0.9413  1.3394 -0.0699
 1253TIP3   OH2 3701   3.483   5.751   4.524 -0.0870 -0.0022 -0.2670
 1253TIP3    H1 3702   3.438   5.668   4.508  1.1259 -0.4677 -1.3723
 1253TIP3    H2 3703   3.530   5.770   4.443 -1.0458  2.2452 -0.3796
 1254TIP3   OH2 3704   4.147   0.220   0.732 -0.2713 -0.2462 -0.1959
 1254TIP3    H1 3705   4.185   0.219   0.644 -1.8932  1.5675 -0.9903
 1254TIP3    H2 3706   4.069   0.164   0.724 -0.6637  0.2721 -0.0606
 1255TIP3   OH2 3707   4.445   1.587   4.009 -0.2123  0.2776 -0.3284
 1255TIP3    H1 3708   4.455   1.607   3.916 -1.0916  1.0811 -0.2661
 1255TIP3    H2 3709   4.416   1.669   4.048  2.8646  0.8124  1.1671
 1256TIP3   OH2 3710   5.898   3.182   6.200  0.8850  0.1734 -0.0341
 1256TIP3    H1 3711   5.876   3.149   6.287  0.6458 -1.0415 -0.5372
 1256TIP3    H2 3712   5.838   3.256   6.186  0.4944 -0.0218  0.5737
 1257TIP3   OH2 3713   8.226   2.770   1.696  0.2964 -0.2156  0.0076
 1257TIP3    H1 3714   8.174   2.840   1.658  2.7650  1.5904 -0.2847
 1257TIP3    H2 3715   8.181   2.749   1.778 -0.9582  1.1001 -0.3011
 1258TIP3   OH2 3716   1.664   4.965   5.508  0.0036  0.0488 -0.4508
 1258TIP3    H1 3717   1.714   5.044   5.526 -0.8647  0.6316 -0.5290
 1258TIP3    H2 3718   1.670   4.914   5.589 -0.5420  0.8154  0.0831
 1259TIP3   OH2 3719   6.819   5.706   5.977  0.0497 -0.1879 -0.4738
 1259TIP3    H1 3720   6.743   5.749   6.014  0.8043 -0.5807  1.6606
 1259TIP3    H2 3721   6.785   5.658   5.901 -1.1369  2.4764 -1.7566
 1260TIP3   OH2 3722   3.003   6.494   0.259  0.1052  0.4719  0.0574
 1260TIP3    H1 3723   3.065   6.567   0.258  1.5713 -0.7017  0.8367
 1260TIP3    H2 3724   2.966   6.493   0.171 -1.8627  3.6465  0.6739
 1261TIP3   OH2 3725   5.119   3.886   0.992 -0.0956 -0.0775 -0.5134
 1261TIP3    H1 3726   5.152   3.966   0.952 -0.7508 -0.4372 -1.8033
 1261TIP3    H2 3727   5.042   3.862   0.940  1.0205 -2.4450 -1.2274
 1262TIP3   OH2 3728   5.711   0.768   1.569 -0.3149  0.5479 -0.0718
 1262TIP3    H1 3729   5.627   0.764   1.523 -0.0432 -1.7538 -0.4995
 1262TIP3    H2 3730   5.689   0.792   1.659 -1.5504 -0.8225  0.0226
 1263TIP3   OH2 3731   0.044   2.010   3.836 -0.2465  0.3332 -0.0782
 1263TIP3    H1 3732  -0.029   2.068   3.812  0.5662  1.0498 -0.8882
 1263TIP3    H2 3733   0.011   1.922   3.820 -1.1324  0.6166  0.1292
 1264TIP3   OH2 3734   7.254   5.581   0.090  0.3555 -0.4889 -0.9511
 1264TIP3    H1 3735   7.321   5.571   0.023  1.2874  1.0239 -0.2960
 1264TIP3    H2 3736   7.289   5.535   0.167 -1.2527 -3.3056 -1.7614
 1265TIP3   OH2 3737   7.131   0.735   1.166  0.2869 -0.1837  0.1128
 1265TIP3    H1 3738   7.079   0.727   1.245  0.8690 -0.7772  0.4522
 1265TIP3    H2 3739   7.210   0.781   1.194 -0.6667  2.0877 -0.7087
 1266TIP3   OH2 3740   3.028   4.094   2.720 -0.0323 -0.0040  0.2816
 1266TIP3    H1 3741   2.959   4.060   2.663  0.8759  0.0852 -0.9003
 1266TIP3    H2 3742   3.042   4.023   2.784 -2.0826  0.4838  1.3873
 1267TIP3   OH2 3743   6.608   7.715   5.427  0.0368  0.4883 -0.2378
 1267TIP3    H1 3744   6.652   7.690   5.346 -0.4791 -0.8566 -0.1308
 1267TIP3    H2 3745   6.672   7.697   5.496  0.4761  1.6351 -0.3333
 1268TIP3   OH2 3746   4.340   0.498   1.157 -0.4756  0.5106 -0.1383
 1268TIP3    H1 3747   4.370   0.582   1.123  0.0198 -0.2089 -1.5891
 1268TIP3    H2 3748   4.321   0.446   1.078 -3.4387  0.1655  0.6749
 1269TIP3   OH2 3749   7.964   3.846   5.056  0.4501  0.1770 -0.1253
 1269TIP3    H1 3750   7.976   3.836   4.962  0.7635  1.1553 -0.1951
 1269TIP3    H2 3751   7.870   3.856   5.068  0.4561  0.5115 -0.3757
 1270TIP3   OH2 3752   6.441   4.627   6.737 -0.4065  0.6620  0.2211
 1270TIP3    H1 3753   6.453   4.664   6.825  1.4799 -0.5438  0.5108
 1270TIP3    H2 3754   6.482   4.691   6.679 -0.7777  0.9785  0.2986
 1271TIP3   OH2 3755   2.745   1.732   2.620  0.2723 -0.2482 -0.2577
 1271TIP3    H1 3756   2.775   1.662   2.561 -2.1217 -1.7787  0.1806
 1271TIP3    H2 3757   2.825   1.769   2.656  1.6812 -2.1801 -1.2038
 1272TIP3   OH2 3758   4.596   0.702   0.864  0.2384  0.2506  0.2051
 1272TIP3    H1 3759   4.506   0.669   0.857  1.3305 -2.8016 -1.5332
 1272TIP3    H2 3760   4.629   0.663   0.945  0.4711 -0.0613 -0.0349
 1273TIP3   OH2 3761   5.872   2.333   5.638 -0.3416  0.0330 -0.5091
 1273TIP3    H1 3762   5.855   2.303   5.549 -0.9058  0.6084 -0.6063
 1273TIP3    H2 3763   5.902   2.424   5.627 -0.7856  0.2351 -0.0956
 1274TIP3   OH2 3764   2.619   7.619   5.862  0.1180  0.6646  0.1752
 1274TIP3    H1 3765   2.660   7.699   5.895  1.7585  0.3508 -0.9572
 1274TIP3    H2 3766   2.525   7.633   5.874  0.4923  1.3842  3.0394
 1275TIP3   OH2 3767   6.884   6.273   1.033 -0.1446  0.1170  0.4064
 1275TIP3    H1 3768   6.874   6.244   1.124 -0.2675  0.6197  0.5556
 1275TIP3    H2 3769   6.972   6.311   1.030 -0.0999  0.0021  0.2908
 1276TIP3   OH2 3770   0.865   5.310   5.259  0.6060  0.4793  0.0785
 1276TIP3    H1 3771   0.826   5.390   5.222 -0.6443  0.6584  1.6644
 1276TIP3    H2 3772   0.957   5.332   5.272  0.4352  1.4009 -0.1996
 1277TIP3   OH2 3773   4.393   5.807   1.859 -0.4735 -0.3214  0.0293
 1277TIP3    H1 3774   4.342   5.731   1.831 -1.6964 -0.0806  1.4698
 1277TIP3    H2 3775   4.466   5.769   1.910  0.7148 -0.6513 -1.8348
 1278TIP3   OH2 3776   1.741   2.143   2.652 -0.5131 -0.3360 -0.6302
 1278TIP3    H1 3777   1.822   2.181   2.685 -1.3256 -0.2057  1.3676
 1278TIP3    H2 3778   1.767   2.096   2.572  1.3405  0.4396 -0.5277
 1279TIP3   OH2 3779   0.429   0.320   3.590 -0.3461 -0.7513 -0.0672
 1279TIP3    H1 3780   0.365   0.264   3.546 -0.8955 -0.3453  0.2060
 1279TIP3    H2 3781   0.387   0.406   3.594  0.4456 -0.3420 -0.3898
 1280TIP3   OH2 3782   6.364   6.488   2.204 -0.0490  0.0738 -0.5915
 1280TIP3    H1 3783   6.432   6.441   2.253 -1.5258 -1.3692  0.1888
 1280TIP3    H2 3784   6.388   6.476   2.112  0.0742 -1.5681 -0.3828
 1281TIP3   OH2 3785   6.920   7.160   5.055 -0.3544  0.0671  0.6291
 1281TIP3    H1 3786   6.908   7.065   5.055 -1.2894  0.1268  2.3655
 1281TIP3    H2 3787   6.947   7.181   4.966  1.6078 -2.0197  0.6355
 1282TIP3   OH2 3788   2.089   0.167   2.107 -0.0555 -0.4902  0.0595
 1282TIP3    H1 3789   2.135   0.223   2.169  0.6179 -1.0442  0.0757
 1282TIP3    H2 3790   2.021   0.124   2.158 -0.7910  0.5507 -0.0249
 1283TIP3   OH2 3791   7.817   0.080   2.005 -0.1014  1.0438 -0.5031
 1283TIP3    H1 3792   7.912   0.083   1.998 -0.0850 -1.3204 -2.9389
 1283TIP3    H2 3793   7.786   0.115   1.921 -1.3217  0.2439 -0.4091
 1284TIP3   OH2 3794   1.968   0.947   2.026  0.2792  0.3320 -0.2825
 1284TIP3    H1 3795   1.908   0.914   1.958 -0.0806 -0.0616  0.2199
 1284TIP3    H2 3796   1.925   1.024   2.061 -0.3657 -0.4348  0.6716
 1285TIP3   OH2 3797   6.314   5.988   2.832 -0.1993 -0.3490 -0.1806
 1285TIP3    H1 3798   6.331   5.898   2.805  0.6820 -0.1219 -0.4262
 1285TIP3    H2 3799   6.219   5.994   2.840 -0.4305 -0.7156 -2.1911
 1286TIP3   OH2 3800   0.724   4.262   2.971  0.0403  0.0209 -0.0504
 1286TIP3    H1 3801   0.701   4.177   2.934 -0.4266 -0.6893  1.7229
 1286TIP3    H2 3802   0.818   4.269   2.959  0.0457 -0.6269 -0.4452
 1287TIP3   OH2 3803   3.157   4.038   0.336 -0.3867 -0.2317 -0.6193
 1287TIP3    H1 3804   3.124   3.985   0.264 -0.8163  0.5965 -1.0537
 1287TIP3    H2 3805   3.177   4.123   0.296 -2.2037  0.7964  0.5235
 1288TIP3   OH2 3806   1.017   7.368   2.033 -0.0568 -0.6235 -0.7078
 1288TIP3    H1 3807   0.936   7.324   2.006 -0.3983 -0.5483  0.1503
 1288TIP3    H2 3808   0.987   7.440   2.089  0.5593 -0.0172 -1.1375
 1289TIP3   OH2 3809   6.475   7.103   3.006  0.3060 -0.2609 -0.7738
 1289TIP3    H1 3810   6.496   7.096   3.099 -0.1948  0.3248 -0.6127
 1289TIP3    H2 3811   6.402   7.042   2.994  2.9437 -3.5487 -1.6626
 1290TIP3   OH2 3812   7.652   6.594   6.248  0.4188  0.5289 -0.6831
 1290TIP3    H1 3813   7.624   6.585   6.340 -2.3500  0.3860 -1.4573
 1290TIP3    H2 3814   7.707   6.516   6.233 -1.1619 -0.8313  0.1893
 1291TIP3   OH2 3815   5.725   6.271   3.767  0.5563  0.1117  0.1020
 1291TIP3    H1 3816   5.695   6.316   3.847 -1.7790 -2.3845  0.7956
 1291TIP3    H2 3817   5.695   6.328   3.696  0.6078  1.2412  0.9404
 1292TIP3   OH2 3818   6.086   5.963   2.652 -0.0168  0.6371 -0.7955
 1292TIP3    H1 3819   6.146   5.991   2.583 -0.8370  1.5138 -1.1748
 1292TIP3    H2 3820   6.011   6.022   2.644  0.7523  2.1865  2.1931
 1293TIP3   OH2 3821   2.343   3.889   3.615 -0.4411  0.0473 -0.4623
 1293TIP3    H1 3822   2.368   3.825   3.681  1.8027  1.0801 -0.2176
 1293TIP3    H2 3823   2.348   3.974   3.660 -2.3538  0.5265 -1.0501
 1294TIP3   OH2 3824   6.849   6.910   6.412 -0.4458 -0.1592 -0.4442
 1294TIP3    H1 3825   6.935   6.929   6.373  0.0087 -0.8955  0.1700
 1294TIP3    H2 3826   6.834   6.983   6.472 -0.2454 -0.0281 -0.5504
 1295TIP3   OH2 3827   3.718   6.323   3.829 -0.5276 -0.0297  0.6604
 1295TIP3    H1 3828   3.722   6.235   3.792  0.5988  0.1381  0.3659
 1295TIP3    H2 3829   3.696   6.310   3.921  0.8039 -0.6973  0.8980
 1296TIP3   OH2 3830   5.686   2.778   4.925 -0.0828  0.5531 -0.3421
 1296TIP3    H1 3831   5.698   2.719   5.000 -1.5232 -0.7369 -1.0933
 1296TIP3    H2 3832   5.773   2.783   4.885  0.2261 -0.4728  0.1686
 1297TIP3   OH2 3833   6.633   3.262   2.754 -0.0399  0.5360  0.1694
 1297TIP3    H1 3834   6.719   3.289   2.722 -0.2187 -0.1003 -0.9152
 1297TIP3    H2 3835   6.642   3.259   2.849  1.3767 -0.3124  0.0366
 1298TIP3   OH2 3836   7.682   0.696   0.736 -0.0692 -1.0426 -0.0035
 1298TIP3    H1 3837   7.772   0.700   0.703  0.7141  1.0211  2.1390
 1298TIP3    H2 3838   7.652   0.608   0.712  2.4216 -1.7106 -0.9770
 1299TIP3   OH2 3839   4.827   3.786   0.401  0.1753  0.3509  0.5330
 1299TIP3    H1 3840   4.750   3.779   0.344  0.3897  1.7737  0.0354
 1299TIP3    H2 3841   4.790   3.794   0.489 -0.2096 -0.0252  0.4096
 1300TIP3   OH2 3842   4.185   1.038   5.484 -0.5737 -0.5876 -0.2356
 1300TIP3    H1 3843   4.141   1.122   5.498 -0.6403 -0.7405  0.5451
 1300TIP3    H2 3844   4.155   1.009   5.398 -0.5734  0.1701 -0.5026
 1301TIP3   OH2 3845   8.181   3.945   5.697 -0.2458  0.1247 -0.4397
 1301TIP3    H1 3846   8.238   3.872   5.720 -1.6549 -1.3997 -1.4795
 1301TIP3    H2 3847   8.186   3.950   5.601 -1.8035 -0.0719 -0.5589
 1302TIP3   OH2 3848   4.751   2.488   3.733  0.3581  0.1241 -0.8430
 1302TIP3    H1 3849   4.795   2.530   3.659  1.2276 -1.9839 -1.6163
 1302TIP3    H2 3850   4.675   2.445   3.694 -0.7103  1.2265 -0.0155
 1303TIP3   OH2 3851   8.257   2.210   4.633  0.0194 -0.3879  0.2064
 1303TIP3    H1 3852   8.190   2.223   4.700  0.6146 -0.8054  0.8934
 1303TIP3    H2 3853   8.294   2.297   4.618 -0.4380 -0.2156  0.0724
 1304TIP3   OH2 3854   6.271   5.169   5.207  0.0104 -0.7079 -0.3189
 1304TIP3    H1 3855   6.187   5.132   5.234 -1.0239  1.4585 -0.3629
 1304TIP3    H2 3856   6.310   5.102   5.150 -0.6827 -2.6322  1.3782
 1305TIP3   OH2 3857   4.550   1.940   4.351  0.3444 -0.2925 -0.3543
 1305TIP3    H1 3858   4.466   1.978   4.325  0.6265 -0.6554 -1.9129
 1305TIP3    H2 3859   4.587   1.907   4.269  1.9031 -0.3461  0.3480
 1306TIP3   OH2 3860   2.940   3.554   0.196  0.2063 -0.5904  0.0514
 1306TIP3    H1 3861   3.026   3.596   0.200 -1.7080  3.9213  2.7006
 1306TIP3    H2 3862   2.903   3.582   0.112  0.8335 -1.4495 -0.5168
 1307TIP3   OH2 3863   4.356   6.101   1.639 -0.1011  0.2573  0.2262
 1307TIP3    H1 3864   4.345   6.070   1.729  0.5387  0.3253  0.3351
 1307TIP3    H2 3865   4.445   6.137   1.637  0.7784 -1.7734 -1.0088
 1308TIP3   OH2 3866   0.874   3.841   0.148 -0.8324 -0.5398  0.4178
 1308TIP3    H1 3867   0.883   3.764   0.204 -0.4117 -0.7805  0.0233
 1308TIP3    H2 3868   0.868   3.806   0.059 -1.3735 -0.1554  0.2932
 1309TIP3   OH2 3869   1.521   2.485   2.535  0.2966  0.3474 -0.5319
 1309TIP3    H1 3870   1.514   2.568   2.581 -1.2390  0.1702 -0.3713
 1309TIP3    H2 3871   1.498   2.505   2.444 -2.0223 -0.1570 -0.1333
 1310TIP3   OH2 3872   0.571   3.671   3.397  0.6962  0.9975 -0.0666
 1310TIP3    H1 3873   0.560   3.579   3.375 -0.1426  0.3552  2.6117
 1310TIP3    H2 3874   0.664   3.689   3.381  0.9675 -0.4506 -0.2156
 1311TIP3   OH2 3875   0.378   5.854   5.216 -0.1482 -0.6433  0.1111
 1311TIP3    H1 3876   0.442   5.858   5.145  0.2267  0.7423  0.5005
 1311TIP3    H2 3877   0.340   5.942   5.219 -1.1064 -1.0622  0.7734
 1312TIP3   OH2 3878   6.132   7.655   6.265 -0.3728 -0.5420 -0.0885
 1312TIP3    H1 3879   6.114   7.569   6.227 -2.8142 -0.6985  1.2811
 1312TIP3    H2 3880   6.206   7.688   6.213 -0.0219 -3.0030 -1.3157
 1313TIP3   OH2 3881   6.029   1.030   6.074 -0.3608  0.6033 -0.4868
 1313TIP3    H1 3882   6.069   0.944   6.073  0.0073  0.7689 -0.3470
 1313TIP3    H2 3883   6.049   1.067   5.988  1.0973  1.2653  0.0963
 1314TIP3   OH2 3884   1.109   1.956   3.226  0.1779 -0.0480 -0.3270
 1314TIP3    H1 3885   1.161   1.993   3.297  0.1052  2.4123 -1.4564
 1314TIP3    H2 3886   1.140   2.001   3.147 -0.5557 -1.8327 -1.7090
 1315TIP3   OH2 3887   6.291   2.151   2.818 -0.4457 -0.1129 -0.0007
 1315TIP3    H1 3888   6.359   2.167   2.752 -1.9844  2.8691 -1.0017
 1315TIP3    H2 3889   6.257   2.064   2.796  1.3409 -0.6307 -0.9574
 1316TIP3   OH2 3890   1.939   3.839   2.090  0.0541  0.3359  0.3901
 1316TIP3    H1 3891   1.951   3.754   2.133 -1.3669  0.3225  0.8186
 1316TIP3    H2 3892   1.988   3.900   2.145  0.9658 -0.1649  0.1645
 1317TIP3   OH2 3893   2.924   4.176   5.154  0.1907  0.3333 -0.7317
 1317TIP3    H1 3894   2.986   4.240   5.118 -0.0417  0.4795 -0.8661
 1317TIP3    H2 3895   2.910   4.205   5.244 -0.4395  0.8606 -0.9962
 1318TIP3   OH2 3896   6.557   3.534   1.690 -0.0373 -0.2510 -0.3467
 1318TIP3    H1 3897   6.512   3.610   1.653  1.4813  0.4856 -0.7229
 1318TIP3    H2 3898   6.557   3.469   1.619 -0.1532 -0.1085 -0.4767
 1319TIP3   OH2 3899   7.298   4.452   3.853 -0.2114  0.1356 -0.0250
 1319TIP3    H1 3900   7.379   4.487   3.889 -1.0630 -0.9907  3.2783
 1319TIP3    H2 3901   7.290   4.494   3.767  3.6695  0.4956 -0.3768
 1320TIP3   OH2 3902   0.090   2.248   0.927 -0.0101  0.6029 -0.1271
 1320TIP3    H1 3903   0.109   2.214   1.015 -1.4164 -0.0922 -0.0552
 1320TIP3    H2 3904   0.094   2.343   0.936 -0.7113  0.5534  0.8426
 1321TIP3   OH2 3905   2.234   0.516   4.278 -0.4705  0.2188  0.4208
 1321TIP3    H1 3906   2.248   0.531   4.185 -0.4856  0.4590  0.4580
 1321TIP3    H2 3907   2.176   0.587   4.306  1.0366  1.2567  1.0209
 1322TIP3   OH2 3908   8.159   6.718   3.937  0.1380 -0.5943  0.3633
 1322TIP3    H1 3909   8.230   6.682   3.883  0.5686  0.3057  0.3017
 1322TIP3    H2 3910   8.151   6.809   3.907  0.4708 -0.0350  1.9032
 1323TIP3   OH2 3911   1.143   6.262   1.518  0.1692 -0.3455  0.5687
 1323TIP3    H1 3912   1.053   6.228   1.518  0.0532 -0.0526  1.1151
 1323TIP3    H2 3913   1.198   6.186   1.537  0.0375 -0.5189  0.2689
 1324TIP3   OH2 3914   5.599   3.748   6.258  0.3010 -0.4687 -0.1241
 1324TIP3    H1 3915   5.523   3.696   6.283  0.0095  0.0977  0.2107
 1324TIP3    H2 3916   5.629   3.711   6.175 -1.9110  0.8715 -1.6307
 1325TIP3   OH2 3917   3.440   6.510   6.076  0.2005 -0.3310 -0.5349
 1325TIP3    H1 3918   3.405   6.478   5.993 -0.2333 -0.2110 -0.4030
 1325TIP3    H2 3919   3.415   6.444   6.140 -0.5401  0.1647 -0.2932
 1326TIP3   OH2 3920   3.904   0.518   0.132 -0.0624 -0.1614  0.1812
 1326TIP3    H1 3921   3.911   0.613   0.141 -1.3341  0.1043 -1.2405
 1326TIP3    H2 3922   3.870   0.504   0.044 -0.2766 -1.9246  0.4956
 1327TIP3   OH2 3923   0.908   6.675   0.909 -0.0279 -0.1426 -0.3151
 1327TIP3    H1 3924   0.839   6.634   0.858  0.0588 -0.1230 -0.4484
 1327TIP3    H2 3925   0.882   6.767   0.916  0.1024 -0.0861 -0.5641
 1328TIP3   OH2 3926   7.554   3.777   0.086  0.4313  0.1494  0.1136
 1328TIP3    H1 3927   7.568   3.682   0.082  0.1752 -0.0201  1.9812
 1328TIP3    H2 3928   7.488   3.795   0.019  0.7509 -0.9364 -0.5114
 1329TIP3   OH2 3929   5.655   4.793   1.118  0.1272  0.7370 -0.4131
 1329TIP3    H1 3930   5.730   4.829   1.069 -0.1447  1.0585 -0.6028
 1329TIP3    H2 3931   5.658   4.838   1.202  0.3332  0.5144 -0.3008
 1330TIP3   OH2 3932   1.810   1.445   0.273  0.1505  0.0262 -0.5228
 1330TIP3    H1 3933   1.857   1.390   0.336  1.8220  1.3193 -0.5727
 1330TIP3    H2 3934   1.813   1.397   0.191  0.5018 -0.3655 -0.2793
 1331TIP3   OH2 3935   5.937   4.221   2.130  0.3241 -0.6073 -0.2698
 1331TIP3    H1 3936   5.926   4.193   2.039 -0.5104 -1.0700 -0.0357
 1331TIP3    H2 3937   5.924   4.316   2.127 -0.2611 -0.6937 -0.5525
 1332TIP3   OH2 3938   3.640   2.084   5.653 -0.0210 -0.1691  0.3691
 1332TIP3    H1 3939   3.734   2.065   5.642  0.2254  0.8979  0.5459
 1332TIP3    H2 3940   3.608   2.095   5.563  0.3309  0.8410  0.3557
 1333TIP3   OH2 3941   4.608   3.551   5.462 -0.0565 -0.1510  0.0113
 1333TIP3    H1 3942   4.556   3.594   5.394  0.5264  2.7053  1.2135
 1333TIP3    H2 3943   4.582   3.595   5.543  0.6834 -2.0771  1.3549
 1334TIP3   OH2 3944   6.103   5.872   1.044  0.2539 -0.0641  0.0673
 1334TIP3    H1 3945   6.087   5.883   0.950  0.2372  0.3004  0.1099
 1334TIP3    H2 3946   6.021   5.899   1.085  0.8420  1.5126  0.2698
 1335TIP3   OH2 3947   5.725   7.388   0.711  0.6094  0.1330 -0.0057
 1335TIP3    H1 3948   5.711   7.371   0.618  1.7545 -0.6646 -0.0482
 1335TIP3    H2 3949   5.689   7.475   0.726 -0.0706  0.0421 -1.0774
 1336TIP3   OH2 3950   2.474   5.108   1.943  0.1184  0.5477  0.2786
 1336TIP3    H1 3951   2.514   5.114   1.856 -2.0966  1.3673 -0.7447
 1336TIP3    H2 3952   2.381   5.126   1.928 -0.4707 -0.1599  2.7074
 1337TIP3   OH2 3953   0.653   5.177   5.383 -0.2551  0.0473 -0.2148
 1337TIP3    H1 3954   0.717   5.211   5.320  2.3437 -1.4829  1.4058
 1337TIP3    H2 3955   0.608   5.254   5.416  1.2517  1.2916 -0.9164
 1338TIP3   OH2 3956   7.450   6.745   6.151 -0.2871 -0.1096 -0.2456
 1338TIP3    H1 3957   7.384   6.720   6.216  1.4972 -1.0349  1.3260
 1338TIP3    H2 3958   7.530   6.700   6.180  1.5812  2.5854 -0.8302
 1339TIP3   OH2 3959   0.929   1.944   3.745  0.1167 -0.8807 -0.3205
 1339TIP3    H1 3960   0.865   1.970   3.811  1.3182 -0.5445  0.7510
 1339TIP3    H2 3961   0.882   1.883   3.688 -1.8383  1.0959 -0.9690
 1340TIP3   OH2 3962   0.163   3.702   6.015  0.3611  0.3635 -0.1650
 1340TIP3    H1 3963   0.158   3.787   6.058 -2.9698  0.3592 -0.3177
 1340TIP3    H2 3964   0.156   3.722   5.922  1.2499  0.0003 -0.3172
 1341TIP3   OH2 3965   5.332   7.535   5.462  0.1705  0.1681 -0.2239
 1341TIP3    H1 3966   5.425   7.515   5.469  0.3417  0.3911 -1.6212
 1341TIP3    H2 3967   5.328   7.631   5.469 -0.2387  0.0534  2.2829
 1342TIP3   OH2 3968   7.262   2.859   0.531 -0.0090  0.6094  0.1811
 1342TIP3    H1 3969   7.316   2.937   0.536  0.9094  0.0231 -0.2931
 1342TIP3    H2 3970   7.284   2.808   0.609  0.1925  0.3264 -0.0583
 1343TIP3   OH2 3971   3.938   5.826   1.346  0.2207  0.0296  0.2767
 1343TIP3    H1 3972   3.941   5.735   1.377 -1.5707 -0.2149 -0.1490
 1343TIP3    H2 3973   3.845   5.843   1.330  0.5213  1.9386  0.3024
 1344TIP3   OH2 3974   5.369   4.100   1.690  0.4945  0.4718  0.0391
 1344TIP3    H1 3975   5.456   4.133   1.713 -0.1138 -0.0291  3.8590
 1344TIP3    H2 3976   5.375   4.005   1.701 -0.2603  0.3104 -0.7995
 1345TIP3   OH2 3977   0.446   4.013   2.103  0.2212  0.0357  0.5786
 1345TIP3    H1 3978   0.379   3.980   2.164  0.1478  0.5827  0.7968
 1345TIP3    H2 3979   0.406   4.091   2.064  0.1838 -0.4297 -0.3304
 1346TIP3   OH2 3980   1.238   4.918   5.718 -0.1142  0.2248 -0.6041
 1346TIP3    H1 3981   1.323   4.962   5.716 -0.5611  1.0990 -0.9300
 1346TIP3    H2 3982   1.252   4.837   5.669  1.2105 -0.9568  1.5979
 1347TIP3   OH2 3983   3.611   3.228   6.590 -0.0078  0.1370  0.7998
 1347TIP3    H1 3984   3.689   3.174   6.575  1.3438  2.0084  0.6565
 1347TIP3    H2 3985   3.644   3.303   6.639 -0.8735  2.8772 -2.4190
 1348TIP3   OH2 3986   2.845   2.765   4.992  0.8717 -0.0450 -0.1042
 1348TIP3    H1 3987   2.798   2.711   5.056 -0.1727 -0.6972 -1.3795
 1348TIP3    H2 3988   2.933   2.772   5.028  0.9213 -2.2138  0.3706
 1349TIP3   OH2 3989   5.067   5.575   6.506 -0.8198 -0.0604  0.0166
 1349TIP3    H1 3990   4.981   5.555   6.543 -1.0590 -0.6752 -0.8524
 1349TIP3    H2 3991   5.077   5.513   6.434  0.5272 -0.2785  0.3598
 1350TIP3   OH2 3992   4.509   3.867   0.771  0.2045 -0.4213  0.2596
 1350TIP3    H1 3993   4.515   3.953   0.813 -0.0112 -0.5409  0.5434
 1350TIP3    H2 3994   4.481   3.808   0.841 -2.7906 -0.1624 -0.5612
 1351TIP3   OH2 3995   4.846   4.339   0.170  0.0788  0.6870  0.1686
 1351TIP3    H1 3996   4.799   4.418   0.143  1.7031  1.2968 -1.0048
 1351TIP3    H2 3997   4.932   4.369   0.196  0.9223 -0.7279 -0.8220
 1352TIP3   OH2 3998   1.083   1.161   4.007  0.2666  0.5149  0.2785
 1352TIP3    H1 3999   1.176   1.183   4.015  0.4678 -0.2843  0.1856
 1352TIP3    H2 4000   1.050   1.222   3.941  0.9332  0.2090 -0.3501
 1353TIP3   OH2 4001   0.883   6.516   6.155 -0.2213  0.0845 -0.0570
 1353TIP3    H1 4002   0.911   6.508   6.064 -0.9432 -0.3593 -0.2476
 1353TIP3    H2 4003   0.872   6.426   6.186 -0.6253  0.2380  0.2600
 1354TIP3   OH2 4004   2.506   5.143   5.361  0.1737  0.1190 -0.2440
 1354TIP3    H1 4005   2.437   5.094   5.407  0.7367 -1.5057 -1.0397
 1354TIP3    H2 4006   2.460   5.187   5.289 -0.1296 -0.6149 -0.5155
 1355TIP3   OH2 4007   3.806   1.599   5.961 -0.1131  0.2349  0.7540
 1355TIP3    H1 4008   3.787   1.535   5.892  3.1487 -1.4367  1.2413
 1355TIP3    H2 4009   3.735   1.664   5.953 -1.2386 -1.1729 -2.5068
 1356TIP3   OH2 4010   1.912   3.656   0.816 -0.1991  0.3698 -0.0819
 1356TIP3    H1 4011   1.908   3.637   0.722  0.2456  0.6091 -0.1500
 1356TIP3    H2 4012   1.828   3.697   0.836  0.3377  1.8405 -0.7141
 1357TIP3   OH2 4013   7.945   3.675   1.161  0.0474 -0.6839 -0.4458
 1357TIP3    H1 4014   7.940   3.697   1.068  2.5810  2.8815  0.0460
 1357TIP3    H2 4015   7.868   3.717   1.200  0.2654 -0.0977 -0.6422
 1358TIP3   OH2 4016   7.665   0.692   5.693 -0.8197 -0.0017  0.5715
 1358TIP3    H1 4017   7.581   0.677   5.737 -1.6464 -1.3295 -1.3037
 1358TIP3    H2 4018   7.715   0.613   5.710 -0.6886 -0.0148  0.1216
 1359TIP3   OH2 4019   7.485   6.069   1.865 -0.2119  0.3014 -0.3943
 1359TIP3    H1 4020   7.557   6.017   1.829 -0.0268 -1.2276  1.9687
 1359TIP3    H2 4021   7.407   6.034   1.823  0.1185 -0.5317 -0.3400
 1360TIP3   OH2 4022   1.873   2.580   3.346  0.3282 -0.3905  0.3109
 1360TIP3    H1 4023   1.817   2.587   3.423  0.0066  0.6484 -0.0041
 1360TIP3    H2 4024   1.838   2.644   3.285 -1.0163 -2.8766 -1.7494
 1361TIP3   OH2 4025   5.481   4.760   4.093  0.2825 -0.2021  0.0177
 1361TIP3    H1 4026   5.511   4.818   4.023  0.9189  0.7258  1.0292
 1361TIP3    H2 4027   5.391   4.789   4.111  0.1027 -0.4666 -0.4120
 1362TIP3   OH2 4028   6.307   5.477   3.187  0.1552  0.6026 -0.3375
 1362TIP3    H1 4029   6.252   5.505   3.114  0.3592  0.5540 -0.5123
 1362TIP3    H2 4030   6.280   5.386   3.203  0.3679  0.4899 -0.6001
 1363TIP3   OH2 4031   1.215   4.350   2.855  0.6434 -0.0690 -0.5490
 1363TIP3    H1 4032   1.148   4.290   2.888  1.2220 -0.1254  0.5708
 1363TIP3    H2 4033   1.166   4.420   2.812 -0.2001  0.4889  1.2487
 1364TIP3   OH2 4034   0.799   2.329   5.050 -0.1408  0.0692  0.1833
 1364TIP3    H1 4035   0.789   2.276   4.971  0.8642 -0.7964  0.6156
 1364TIP3    H2 4036   0.832   2.269   5.116 -1.0581  0.7575  1.3172
 1365TIP3   OH2 4037   5.795   4.392   3.854  0.7696 -0.3189  0.1265
 1365TIP3    H1 4038   5.715   4.356   3.893 -0.8618  1.0715 -1.7754
 1365TIP3    H2 4039   5.821   4.461   3.915 -1.0839  1.0498 -0.5377
 1366TIP3   OH2 4040   5.746   0.380   6.694 -0.4369  0.3785 -0.1350
 1366TIP3    H1 4041   5.735   0.288   6.717  0.1308  0.4626  0.5286
 1366TIP3    H2 4042   5.667   0.403   6.646 -0.5145 -0.4928 -0.4434
 1367TIP3   OH2 4043   7.529   6.650   2.530 -0.3319 -0.1626 -0.0456
 1367TIP3    H1 4044   7.522   6.645   2.435  0.2042 -0.3797 -0.0792
 1367TIP3    H2 4045   7.549   6.560   2.557  0.0930  0.0047  0.2164
 1368TIP3   OH2 4046   2.152   3.218   6.691 -0.4534  0.0489  0.2695
 1368TIP3    H1 4047   2.235   3.172   6.702 -0.7075 -0.3222  0.7170
 1368TIP3    H2 4048   2.090   3.166   6.743 -0.8378  0.6618  0.4273
 1369TIP3   OH2 4049   7.960   2.468   5.189 -0.2631 -0.4620  0.2351
 1369TIP3    H1 4050   8.043   2.453   5.144  0.2615 -1.4011  1.4289
 1369TIP3    H2 4051   7.952   2.393   5.249  0.5864  2.1018  3.8533
 1370TIP3   OH2 4052   0.706   6.040   2.160 -0.2812 -0.4156  0.3590
 1370TIP3    H1 4053   0.618   6.037   2.196  0.1996  0.3913  1.6816
 1370TIP3    H2 4054   0.745   5.956   2.184 -0.2204 -0.1897  1.0821
 1371TIP3   OH2 4055   1.519   4.274   5.574  0.0255 -0.6785 -0.1032
 1371TIP3    H1 4056   1.503   4.368   5.589 -0.2492 -0.3656 -2.0042
 1371TIP3    H2 4057   1.614   4.265   5.579  0.0051 -0.4811  0.9138
 1372TIP3   OH2 4058   3.137   4.168   5.862 -0.2158 -0.4805 -0.1719
 1372TIP3    H1 4059   3.170   4.146   5.949 -0.0187  0.3549 -0.0267
 1372TIP3    H2 4060   3.208   4.216   5.821 -0.9689  0.7070 -0.1244
 1373TIP3   OH2 4061   3.579   7.080   6.276 -0.1432 -0.2684 -0.4679
 1373TIP3    H1 4062   3.571   7.065   6.182  0.4721 -0.5157 -0.4822
 1373TIP3    H2 4063   3.495   7.120   6.301  0.2988  1.3587 -1.4141
 1374TIP3   OH2 4064   7.918   4.285   6.094  0.4863 -0.0926 -0.3481
 1374TIP3    H1 4065   7.875   4.350   6.150 -1.2334  0.8697 -2.6190
 1374TIP3    H2 4066   8.000   4.326   6.067  1.4774 -0.6916  1.6168
 1375TIP3   OH2 4067   1.049   7.290   4.226  0.0054 -0.6245 -0.2849
 1375TIP3    H1 4068   0.997   7.287   4.146  0.4451 -0.7708 -0.5718
 1375TIP3    H2 4069   1.039   7.379   4.259 -2.2579 -1.2451  0.9069
 1376TIP3   OH2 4070   3.187   0.492   3.078 -0.5566  0.1327 -0.0299
 1376TIP3    H1 4071   3.136   0.465   3.001 -0.6371 -0.3342  0.1907
 1376TIP3    H2 4072   3.126   0.543   3.130 -0.8606 -0.6017  0.3364
 1377TIP3   OH2 4073   5.242   5.141   5.194  0.1803 -0.3459 -0.3599
 1377TIP3    H1 4074   5.191   5.078   5.142 -0.0796  1.6016 -2.6237
 1377TIP3    H2 4075   5.180   5.172   5.260 -1.2281  0.9178 -2.1688
 1378TIP3   OH2 4076   0.104   6.005   4.893 -0.0452 -0.3265 -0.2158
 1378TIP3    H1 4077   0.151   6.079   4.854 -1.2564 -1.4825 -4.3469
 1378TIP3    H2 4078   0.154   5.928   4.866 -1.4575 -1.2884 -0.1673
 1379TIP3   OH2 4079   2.611   6.234   2.711 -0.4001  0.0834 -0.2892
 1379TIP3    H1 4080   2.593   6.325   2.735  0.2402 -0.0087  0.5955
 1379TIP3    H2 4081   2.542   6.212   2.648 -0.2808  1.3239 -0.8790
 1380TIP3   OH2 4082   2.105   2.592   6.401  0.2455  0.0396  0.4758
 1380TIP3    H1 4083   2.043   2.664   6.396  2.3355  1.8775 -0.8639
 1380TIP3    H2 4084   2.131   2.576   6.310  1.6034 -0.7634  0.9598
 1381TIP3   OH2 4085   6.820   5.410   3.002  0.1921  0.1710  0.1060
 1381TIP3    H1 4086   6.738   5.410   2.954 -0.5307  0.6719  1.3013
 1381TIP3    H2 4087   6.817   5.490   3.055  1.0617 -0.2411  0.8036
 1382TIP3   OH2 4088   5.623   6.278   1.937  0.2257 -0.1899  0.1699
 1382TIP3    H1 4089   5.709   6.267   1.895  0.4863 -2.0345  1.0941
 1382TIP3    H2 4090   5.620   6.210   2.004 -1.7580  0.1847  0.5235
 1383TIP3   OH2 4091   3.312   0.510   1.466  0.2978  0.2669 -0.2038
 1383TIP3    H1 4092   3.385   0.495   1.406 -0.0101 -1.5887 -0.1717
 1383TIP3    H2 4093   3.328   0.451   1.539  0.1827  1.8375  1.1447
 1384TIP3   OH2 4094   0.012   6.143   1.034 -0.6853  0.0777  0.8564
 1384TIP3    H1 4095   0.080   6.185   0.982  1.1155 -2.2075  1.1785
 1384TIP3    H2 4096  -0.033   6.085   0.972 -0.6125 -0.3314  1.1808
 1385TIP3   OH2 4097   1.230   3.430   2.541 -0.0107 -0.1597  0.1510
 1385TIP3    H1 4098   1.263   3.362   2.599  1.3259  0.5000  0.1968
 1385TIP3    H2 4099   1.192   3.496   2.600  2.1780  0.9589  0.4132
 1386TIP3   OH2 4100   6.137   7.067   5.355 -0.2736 -0.2886  0.2222
 1386TIP3    H1 4101   6.201   7.077   5.286 -1.6669 -0.4142 -1.1468
 1386TIP3    H2 4102   6.143   7.148   5.406 -0.5178  0.6613 -1.2108
 1387TIP3   OH2 4103   5.532   1.457   4.899 -0.0664 -0.3428 -0.1801
 1387TIP3    H1 4104   5.563   1.368   4.879 -0.7022 -0.8260  0.8993
 1387TIP3    H2 4105   5.611   1.504   4.925  0.0006 -1.2126  1.3341
 1388TIP3   OH2 4106   0.236   2.932   4.062 -0.7044  0.1662 -0.6586
 1388TIP3    H1 4107   0.309   2.977   4.020 -0.6840  0.3613 -0.4180
 1388TIP3    H2 4108   0.251   2.944   4.156 -0.7983 -0.1870 -0.5963
 1389TIP3   OH2 4109   1.657   1.326   0.593 -0.4978 -0.1116  0.2659
 1389TIP3    H1 4110   1.733   1.369   0.632 -0.7033  1.4214 -0.9018
 1389TIP3    H2 4111   1.628   1.263   0.659  0.2328  1.1019  1.8169
 1390TIP3   OH2 4112   2.997   6.458   1.498 -0.4146 -0.3906  0.3340
 1390TIP3    H1 4113   3.059   6.446   1.427 -0.4718 -0.8022  0.3536
 1390TIP3    H2 4114   2.912   6.434   1.461 -0.4886 -0.3289  0.4580
 1391TIP3   OH2 4115   2.632   3.899   4.393  0.2926 -0.5716 -0.7113
 1391TIP3    H1 4116   2.693   3.902   4.320 -0.4587 -1.7814 -1.4178
 1391TIP3    H2 4117   2.547   3.879   4.353  0.1427 -2.8973  0.6016
 1392TIP3   OH2 4118   6.726   1.888   5.201 -0.1603 -0.0886  0.5418
 1392TIP3    H1 4119   6.675   1.822   5.248 -0.4553 -0.5061 -0.3431
 1392TIP3    H2 4120   6.662   1.957   5.180  0.0129  0.1888  0.9248
 1393TIP3   OH2 4121   5.316   6.747   5.327 -0.0412  0.0812  0.5101
 1393TIP3    H1 4122   5.241   6.710   5.281 -1.3238  1.8467  1.1081
 1393TIP3    H2 4123   5.351   6.813   5.268  0.8258 -0.4365  0.4124
 1394TIP3   OH2 4124   4.937   4.777   4.116  1.0960 -0.6198 -0.2684
 1394TIP3    H1 4125   4.930   4.840   4.044  1.4320  0.2414  0.4315
 1394TIP3    H2 4126   5.028   4.786   4.146  0.6350 -0.0965  1.0291
 1395TIP3   OH2 4127   5.207   5.837   2.054 -0.6777 -0.5583  0.0949
 1395TIP3    H1 4128   5.171   5.866   2.138  0.2659 -0.8117  0.5987
 1395TIP3    H2 4129   5.131   5.828   1.997 -1.1410  1.6677  0.2838
 1396TIP3   OH2 4130   0.027   4.732   4.176  0.0652  0.5246 -0.0511
 1396TIP3    H1 4131   0.017   4.734   4.081  1.2132 -1.7220 -0.2766
 1396TIP3    H2 4132   0.119   4.754   4.191  0.7585 -2.2245  0.2440
 1397TIP3   OH2 4133   4.211   1.634   5.466  0.3513  0.1578 -0.5109
 1397TIP3    H1 4134   4.231   1.553   5.513 -0.0149  0.4311  0.1401
 1397TIP3    H2 4135   4.118   1.625   5.442  0.2676  0.4470 -0.2997
 1398TIP3   OH2 4136   6.723   0.765   2.870 -0.2917  0.4844  0.2697
 1398TIP3    H1 4137   6.680   0.724   2.945  0.7906 -1.2062  0.0344
 1398TIP3    H2 4138   6.742   0.854   2.898  0.5824 -0.2616  2.2136
 1399TIP3   OH2 4139   1.511   2.454   5.544  0.2536  0.1122  0.0734
 1399TIP3    H1 4140   1.484   2.527   5.489 -2.6776 -0.2874  0.8254
 1399TIP3    H2 4141   1.531   2.494   5.629 -1.0244  0.1057  0.3881
 1400TIP3   OH2 4142   0.183   0.650   3.194  0.2049  0.2833  0.7526
 1400TIP3    H1 4143   0.248   0.705   3.237  0.7006 -0.5964  1.1679
 1400TIP3    H2 4144   0.190   0.672   3.102  2.4557 -1.0807  0.5058
 1401TIP3   OH2 4145   2.518   7.538   0.348 -0.1925  0.6879  0.4864
 1401TIP3    H1 4146   2.579   7.535   0.422  0.6115  0.3075 -0.1682
 1401TIP3    H2 4147   2.505   7.446   0.324  3.3604  0.8060 -2.8261
 1402TIP3   OH2 4148   7.856   6.107   0.763 -0.3220  0.2806 -0.4622
 1402TIP3    H1 4149   7.837   6.176   0.699 -1.0352  0.1997 -0.3470
 1402TIP3    H2 4150   7.908   6.043   0.716 -0.5792  0.3739 -0.8767
 1403TIP3   OH2 4151   0.466   2.628   4.248 -0.3364  0.2256 -0.1254
 1403TIP3    H1 4152   0.535   2.693   4.268 -1.1463  1.5841 -1.5350
 1403TIP3    H2 4153   0.387   2.665   4.288 -0.7521 -0.0106 -0.7156
 1404TIP3   OH2 4154   1.964   1.897   6.254 -0.1679 -0.1319  0.0666
 1404TIP3    H1 4155   1.901   1.965   6.278  0.1554  0.0378  0.4560
 1404TIP3    H2 4156   2.029   1.942   6.201 -1.2514 -0.6484 -1.7945
 1405TIP3   OH2 4157   7.938   6.076   2.433 -0.1426 -0.2811  0.2964
 1405TIP3    H1 4158   7.963   5.984   2.421 -0.4587 -0.4103  0.6420
 1405TIP3    H2 4159   8.019   6.125   2.415  0.0903 -0.6405  0.3611
 1406TIP3   OH2 4160   1.669   1.620   6.706  0.0658  0.1384  0.7850
 1406TIP3    H1 4161   1.725   1.587   6.636  2.9081  0.5005  2.7338
 1406TIP3    H2 4162   1.621   1.692   6.666 -0.2128 -1.1248 -1.3630
 1407TIP3   OH2 4163   4.860   7.584   2.288  0.4289 -0.2049  0.1858
 1407TIP3    H1 4164   4.774   7.621   2.269  1.2034  1.3087 -0.5633
 1407TIP3    H2 4165   4.915   7.660   2.306  2.0174 -1.0089 -1.0532
 1408TIP3   OH2 4166   6.796   0.883   4.124 -0.1159  0.4592  0.4797
 1408TIP3    H1 4167   6.823   0.814   4.185  0.3982  1.2923  1.2217
 1408TIP3    H2 4168   6.702   0.894   4.140  0.0299  0.7282  1.2052
 1409TIP3   OH2 4169   0.245   6.216   2.903 -0.0611  0.2040 -0.6056
 1409TIP3    H1 4170   0.323   6.212   2.848  1.0138  2.1586  0.6724
 1409TIP3    H2 4171   0.249   6.302   2.945 -1.1585 -0.9081  2.0209
 1410TIP3   OH2 4172   2.666   2.549   0.217 -0.0504  0.1922 -0.8307
 1410TIP3    H1 4173   2.695   2.460   0.196 -0.8512 -0.5108  0.8054
 1410TIP3    H2 4174   2.683   2.600   0.138  0.7054 -1.3504 -1.7020
 1411TIP3   OH2 4175   2.317   3.946   6.306 -0.3511 -0.1177 -0.9425
 1411TIP3    H1 4176   2.330   3.868   6.359 -0.6057  1.1237  1.0907
 1411TIP3    H2 4177   2.227   3.939   6.275 -0.2746 -0.7653 -1.0314
 1412TIP3   OH2 4178   1.840   0.358   0.212 -0.2658 -0.3360  0.4584
 1412TIP3    H1 4179   1.844   0.428   0.147  0.4948  2.9555  3.6966
 1412TIP3    H2 4180   1.932   0.332   0.223  0.4648  2.7250  3.4412
 1413TIP3   OH2 4181   2.174   6.594   2.598  0.1673 -0.0346  0.4124
 1413TIP3    H1 4182   2.092   6.595   2.549  0.4331 -0.2832 -0.0337
 1413TIP3    H2 4183   2.232   6.537   2.548  0.0600 -1.2555  1.6280
 1414TIP3   OH2 4184   7.744   3.435   1.897 -0.2755  0.0241 -0.4234
 1414TIP3    H1 4185   7.736   3.529   1.880  0.4053  0.2043  0.1939
 1414TIP3    H2 4186   7.656   3.408   1.924 -0.4618  0.4868 -0.5501
 1415TIP3   OH2 4187   3.570   3.859   1.661  0.0047 -0.2085  0.5280
 1415TIP3    H1 4188   3.480   3.827   1.659  0.2593 -0.9877  1.3579
 1415TIP3    H2 4189   3.598   3.858   1.569 -1.0572  0.7327  0.1719
 1416TIP3   OH2 4190   2.672   1.236   5.283 -0.0821 -0.0078 -0.7249
 1416TIP3    H1 4191   2.617   1.161   5.304 -0.6251  0.3381 -0.8633
 1416TIP3    H2 4192   2.754   1.221   5.329 -0.4375 -0.3485 -0.2038
 1417TIP3   OH2 4193   1.296   1.054   3.060 -0.0098 -0.4522 -0.1636
 1417TIP3    H1 4194   1.336   1.140   3.047 -0.6450 -0.2458 -0.7937
 1417TIP3    H2 4195   1.203   1.072   3.067 -0.2519 -1.1726 -1.2818
 1418TIP3   OH2 4196   6.588   0.954   0.640  0.0378 -0.0485  0.0657
 1418TIP3    H1 4197   6.508   0.977   0.592 -0.4546 -0.3912  0.7154
 1418TIP3    H2 4198   6.564   0.964   0.732  0.8817  0.2836  0.2526
 1419TIP3   OH2 4199   4.989   6.247   4.834 -0.1181  0.2298 -0.6539
 1419TIP3    H1 4200   5.021   6.208   4.753 -0.1284 -0.4557 -0.3289
 1419TIP3    H2 4201   4.928   6.315   4.805  1.6785  1.6452 -1.2966
 1420TIP3   OH2 4202   0.454   2.670   0.820 -0.6663  0.3355 -0.0062
 1420TIP3    H1 4203   0.368   2.696   0.852 -1.7746 -1.0590 -1.6916
 1420TIP3    H2 4204   0.481   2.599   0.878 -0.8191  0.5393  0.3149
 1421TIP3   OH2 4205   0.094   4.220   5.542 -0.2470 -0.3662 -0.7856
 1421TIP3    H1 4206   0.066   4.249   5.455 -1.5204  0.8112 -0.0284
 1421TIP3    H2 4207   0.088   4.298   5.596  2.4264 -0.5923 -0.0164
 1422TIP3   OH2 4208   5.303   7.188   0.744  0.1991  0.0145  0.7786
 1422TIP3    H1 4209   5.324   7.143   0.662  1.9474  1.1099  0.5765
 1422TIP3    H2 4210   5.386   7.229   0.771 -0.5510  0.4039  2.6387
 1423TIP3   OH2 4211   0.504   6.263   5.701 -0.3269  0.2672 -0.4450
 1423TIP3    H1 4212   0.471   6.322   5.634  0.4240 -0.9913 -2.0054
 1423TIP3    H2 4213   0.442   6.190   5.702 -1.1203  0.9045  1.2962
 1424TIP3   OH2 4214   1.975   6.404   4.954 -0.1228 -0.1362 -0.0491
 1424TIP3    H1 4215   1.889   6.439   4.928 -0.0011 -0.2008 -0.5496
 1424TIP3    H2 4216   2.030   6.415   4.876  0.0444 -1.0262 -0.0630
 1425TIP3   OH2 4217   7.953   1.405   0.693 -0.1537 -0.1889 -0.1704
 1425TIP3    H1 4218   7.934   1.496   0.670 -1.5063 -0.2223  0.6700
 1425TIP3    H2 4219   8.043   1.407   0.726  1.1245  0.1962 -3.3286
 1426TIP3   OH2 4220   7.950   0.418   6.055 -0.3402  0.3224  0.0766
 1426TIP3    H1 4221   7.948   0.490   5.992 -0.6742 -0.0179 -0.3137
 1426TIP3    H2 4222   7.996   0.453   6.130 -2.0574  1.5473  0.6277
 1427TIP3   OH2 4223   8.099   2.833   5.029 -0.1888  0.2206 -0.3558
 1427TIP3    H1 4224   8.152   2.809   5.104 -0.9544  1.5436  0.6630
 1427TIP3    H2 4225   8.160   2.875   4.968  0.5257 -1.2889 -0.7251
 1428TIP3   OH2 4226   4.629   0.385   2.564  0.1988 -0.2333  0.1661
 1428TIP3    H1 4227   4.699   0.322   2.551 -0.8911 -1.1834 -1.3879
 1428TIP3    H2 4228   4.549   0.338   2.541 -0.6910  1.5869 -0.7235
 1429TIP3   OH2 4229   5.491   7.673   4.694  0.1033 -0.7346 -0.4289
 1429TIP3    H1 4230   5.557   7.713   4.637 -1.8779  3.5130 -0.1816
 1429TIP3    H2 4231   5.524   7.689   4.783 -0.5903  0.3069 -0.3337
 1430TIP3   OH2 4232   0.216   7.499   6.421  0.0947 -0.1587 -0.0975
 1430TIP3    H1 4233   0.273   7.444   6.367 -0.1237 -1.3561  0.8667
 1430TIP3    H2 4234   0.196   7.573   6.364  0.3588 -1.0793 -1.4595
 1431TIP3   OH2 4235   1.246   5.770   2.485  1.3424 -0.0378 -0.4024
 1431TIP3    H1 4236   1.272   5.695   2.537 -0.5129  0.2521  1.0319
 1431TIP3    H2 4237   1.193   5.824   2.544  0.8504  1.3337 -2.0056
 1432TIP3   OH2 4238   5.772   5.493   3.942 -0.5193 -0.1866  0.1666
 1432TIP3    H1 4239   5.701   5.430   3.955 -0.1800 -0.7975 -0.8613
 1432TIP3    H2 4240   5.843   5.442   3.902  0.0879  0.6618  0.1320
 1433TIP3   OH2 4241   2.727   1.472   4.567 -0.0548  0.4450  0.0041
 1433TIP3    H1 4242   2.705   1.551   4.616 -1.4868  1.1276 -1.6525
 1433TIP3    H2 4243   2.678   1.480   4.485 -0.1031 -2.0701 -0.2897
 1434TIP3   OH2 4244   2.080   2.726   0.014  0.1217 -0.1958 -0.1708
 1434TIP3    H1 4245   2.154   2.670  -0.009 -0.2109 -0.4195 -0.7530
 1434TIP3    H2 4246   2.011   2.664   0.041  0.4780  0.0601  1.4166
 1435TIP3   OH2 4247   3.412   2.440   4.911  0.7064  0.2335  0.2265
 1435TIP3    H1 4248   3.457   2.423   4.994 -0.3649 -0.7127  0.6355
 1435TIP3    H2 4249   3.404   2.536   4.907 -0.8428  0.2489  2.1420
 1436TIP3   OH2 4250   4.535   1.037   1.332 -0.0780 -0.3440 -0.4930
 1436TIP3    H1 4251   4.504   0.954   1.369 -1.1869  0.0534 -0.5041
 1436TIP3    H2 4252   4.552   1.017   1.240  0.4738 -0.7571 -0.3105
 1437TIP3   OH2 4253   5.937   0.212   6.480 -0.9589 -0.3290 -0.3145
 1437TIP3    H1 4254   5.971   0.205   6.569 -1.3123  1.3040 -0.0191
 1437TIP3    H2 4255   5.845   0.188   6.487 -1.7371  2.5261  0.3659
 1438TIP3   OH2 4256   1.160   3.592   4.267  0.3593  0.0122  0.1972
 1438TIP3    H1 4257   1.188   3.613   4.356 -0.2821 -1.3257  0.7437
 1438TIP3    H2 4258   1.098   3.661   4.245  1.8365  1.3495  0.0872
 1439TIP3   OH2 4259   2.687   1.165   3.938 -0.2203  0.8340  0.3434
 1439TIP3    H1 4260   2.710   1.104   4.008  0.0639 -0.8417 -1.1466
 1439TIP3    H2 4261   2.595   1.146   3.920  0.0541  0.3512 -0.5826
 1440TIP3   OH2 4262   2.052   1.593   1.468 -0.2923  0.0071  0.2656
 1440TIP3    H1 4263   2.105   1.672   1.470  0.1243 -0.2679  0.2670
 1440TIP3    H2 4264   2.058   1.562   1.378  0.3824 -0.5771  0.5044
 1441TIP3   OH2 4265   7.436   0.738   6.153 -0.2300 -0.3425  0.4971
 1441TIP3    H1 4266   7.389   0.662   6.187 -2.5403  0.0060 -1.6981
 1441TIP3    H2 4267   7.369   0.793   6.114  1.8899  0.6048 -2.1209
 1442TIP3   OH2 4268   5.000   7.456   1.161 -0.0545 -0.0795  0.6622
 1442TIP3    H1 4269   4.972   7.381   1.212 -2.4971 -0.4016 -0.9481
 1442TIP3    H2 4270   4.975   7.435   1.071  1.0908  1.7967 -0.1781
 1443TIP3   OH2 4271   4.567   7.492   0.896 -0.5892 -0.0948 -0.0164
 1443TIP3    H1 4272   4.607   7.576   0.877 -0.8799  0.1558  0.4661
 1443TIP3    H2 4273   4.616   7.458   0.971 -0.2971 -0.4807 -0.3769
 1444TIP3   OH2 4274   1.034   1.727   1.888 -0.3311  0.2014 -0.7825
 1444TIP3    H1 4275   1.021   1.783   1.811  0.2958 -0.2451 -1.2158
 1444TIP3    H2 4276   1.128   1.730   1.904 -0.3909 -0.1626 -0.3767
 1445TIP3   OH2 4277   7.176   2.307   5.659  0.1999  0.1521  0.2787
 1445TIP3    H1 4278   7.137   2.381   5.705 -0.9168  1.4444 -2.5225
 1445TIP3    H2 4279   7.109   2.239   5.661 -0.3713  0.6794 -0.5230
 1446TIP3   OH2 4280   4.054   3.098   1.878  0.7583 -0.0474  0.1327
 1446TIP3    H1 4281   4.030   3.158   1.949  1.0789  1.2329 -0.8045
 1446TIP3    H2 4282   4.065   3.013   1.921  0.6603  0.6312  1.5600
 1447TIP3   OH2 4283   2.559   2.178   3.825  0.1752 -0.0578  0.2130
 1447TIP3    H1 4284   2.641   2.175   3.776 -0.6614 -1.2657 -1.1860
 1447TIP3    H2 4285   2.535   2.087   3.838 -1.0208  0.2718  0.4854
 1448TIP3   OH2 4286   3.078   6.930   5.069  0.4333 -0.1671  0.2986
 1448TIP3    H1 4287   3.079   6.971   5.156 -1.3896 -0.1092  0.3204
 1448TIP3    H2 4288   3.021   6.987   5.017 -1.1187 -1.9343 -0.0255
 1449TIP3   OH2 4289   2.555   2.129   0.759  0.0784  0.5477  0.1945
 1449TIP3    H1 4290   2.585   2.166   0.842 -1.2864  3.2692 -0.3987
 1449TIP3    H2 4291   2.464   2.104   0.776  0.9274 -2.7890  0.5540
 1450TIP3   OH2 4292   8.297   1.176   2.473 -0.6752 -0.1553 -0.4492
 1450TIP3    H1 4293   8.207   1.155   2.498 -0.5063 -0.0690  0.2518
 1450TIP3    H2 4294   8.325   1.243   2.536 -0.3731  0.3640 -1.1313
 1451TIP3   OH2 4295   5.784   7.302   4.380  0.1617  0.1664 -0.3395
 1451TIP3    H1 4296   5.802   7.396   4.382 -0.5130  0.2952  0.4014
 1451TIP3    H2 4297   5.723   7.290   4.308 -0.3222  0.4206  0.0183
 1452TIP3   OH2 4298   3.766   5.942   5.577 -0.2401 -0.1236  0.0037
 1452TIP3    H1 4299   3.846   5.902   5.611 -0.3958 -1.8960 -1.5443
 1452TIP3    H2 4300   3.777   5.939   5.482 -0.6848  2.7753 -0.2099
 1453TIP3   OH2 4301   6.025   0.044   1.723  0.2191 -0.0445 -0.9977
 1453TIP3    H1 4302   6.011   0.139   1.714 -1.2892 -0.1862 -0.4246
 1453TIP3    H2 4303   5.939   0.009   1.744  0.9606 -1.4340 -0.1541
 1454TIP3   OH2 4304   4.393   2.458   2.889  0.1244 -0.0836 -0.0997
 1454TIP3    H1 4305   4.485   2.478   2.875  0.3001 -0.4357  0.5123
 1454TIP3    H2 4306   4.364   2.521   2.954  0.0682 -0.3002  0.0865
 1455TIP3   OH2 4307   1.395   5.019   6.414  0.0182 -0.2174 -0.3391
 1455TIP3    H1 4308   1.481   4.979   6.426  0.8074  0.5353 -2.8032
 1455TIP3    H2 4309   1.335   4.961   6.460  1.7733 -0.9789  1.1377
 1456TIP3   OH2 4310   7.353   2.223   2.406  0.3940  0.4026  0.4616
 1456TIP3    H1 4311   7.327   2.294   2.348  0.9089  0.2242  0.0039
 1456TIP3    H2 4312   7.284   2.158   2.396  0.5321  0.3264 -0.0453
 1457TIP3   OH2 4313   1.935   0.769   4.726  0.5803 -0.6444  0.0284
 1457TIP3    H1 4314   1.950   0.862   4.710 -1.2585 -0.1487  0.9787
 1457TIP3    H2 4315   1.910   0.764   4.818 -0.3243 -1.9592 -0.2636
 1458TIP3   OH2 4316   0.195   0.349   2.528 -0.5357 -0.1859  0.2795
 1458TIP3    H1 4317   0.168   0.359   2.437  0.5525  1.5013  0.1048
 1458TIP3    H2 4318   0.155   0.423   2.574  0.0690 -0.2206  0.8844
 1459TIP3   OH2 4319   8.056   5.635   1.105 -0.1531 -0.5298  0.2250
 1459TIP3    H1 4320   8.007   5.646   1.023 -0.7417 -1.1273  0.4937
 1459TIP3    H2 4321   7.993   5.652   1.174 -0.6702 -3.5058  0.6425
 1460TIP3   OH2 4322   2.230   4.396   3.738 -0.5911  0.4634 -0.1279
 1460TIP3    H1 4323   2.211   4.390   3.644  0.3403 -0.1107 -0.2922
 1460TIP3    H2 4324   2.300   4.460   3.744 -0.3161  0.1459  0.1193
 1461TIP3   OH2 4325   5.695   3.308   5.773 -0.1385  0.1613 -0.1685
 1461TIP3    H1 4326   5.677   3.383   5.830 -1.5979 -2.4805  3.2523
 1461TIP3    H2 4327   5.608   3.269   5.757  0.7503 -2.5427  0.9965
 1462TIP3   OH2 4328   4.494   6.523   0.636  0.1275  0.6093 -0.3577
 1462TIP3    H1 4329   4.567   6.518   0.574  0.4254  0.6121 -0.0122
 1462TIP3    H2 4330   4.528   6.576   0.708  0.4685 -1.0020  0.7210
 1463TIP3   OH2 4331   1.228   6.752   3.996 -0.5691  0.1265 -0.0520
 1463TIP3    H1 4332   1.245   6.684   3.931 -1.2583 -0.2993  0.1939
 1463TIP3    H2 4333   1.312   6.796   4.008 -0.1940 -0.4568 -0.4755
 1464TIP3   OH2 4334   4.080   5.206   4.792 -0.3240  0.5651  0.4287
 1464TIP3    H1 4335   4.077   5.295   4.826  3.2228  0.2816  1.9175
 1464TIP3    H2 4336   4.070   5.150   4.869  0.9692 -0.2103  0.0734
 1465TIP3   OH2 4337   2.445   0.983   6.301  0.3996  0.2678  0.0246
 1465TIP3    H1 4338   2.487   0.900   6.320 -0.7256  0.0047  1.6063
 1465TIP3    H2 4339   2.354   0.960   6.282  0.3187  1.0548 -0.6074
 1466TIP3   OH2 4340   1.163   7.640   2.246 -0.3127 -0.2213  0.3936
 1466TIP3    H1 4341   1.211   7.682   2.175 -0.2198  0.0616  0.6191
 1466TIP3    H2 4342   1.075   7.679   2.243 -0.1728  0.1304  0.7161
 1467TIP3   OH2 4343   3.172   4.513   5.714  0.2163 -0.5674 -0.6183
 1467TIP3    H1 4344   3.201   4.422   5.701 -3.6396 -1.8384 -1.7329
 1467TIP3    H2 4345   3.108   4.527   5.644 -1.6242  1.8955  1.3863
 1468TIP3   OH2 4346   7.931   4.194   0.646 -0.1216 -0.5197  0.4931
 1468TIP3    H1 4347   7.882   4.256   0.593 -0.4332 -2.3514 -1.5316
 1468TIP3    H2 4348   8.013   4.239   0.667 -0.0098  0.3189 -1.5688
 1469TIP3   OH2 4349   4.044   1.732   5.840 -0.2541 -0.1855  0.0085
 1469TIP3    H1 4350   4.094   1.717   5.759 -1.0908 -0.0334 -0.5539
 1469TIP3    H2 4351   4.047   1.648   5.885  0.7261 -0.1056  0.1171
 1470TIP3   OH2 4352   0.481   5.167   1.431 -0.0788  0.1053  0.0135
 1470TIP3    H1 4353   0.455   5.248   1.387  0.2931 -0.1031 -0.5968
 1470TIP3    H2 4354   0.488   5.191   1.523 -0.8329  0.5554 -0.0364
 1471TIP3   OH2 4355   2.110   0.415   0.198  0.6446 -0.3645 -0.6670
 1471TIP3    H1 4356   2.153   0.498   0.179  1.2845 -0.6757 -0.6090
 1471TIP3    H2 4357   2.162   0.376   0.268  0.3076 -0.7785 -0.6400
 1472TIP3   OH2 4358   4.019   5.190   2.460 -0.4444  0.0669 -0.0969
 1472TIP3    H1 4359   4.034   5.281   2.438  1.4245 -0.7137 -2.5655
 1472TIP3    H2 4360   4.107   5.153   2.472 -0.9324 -1.9001 -1.7943
 1473TIP3   OH2 4361   1.813   2.589   1.263 -0.2021 -0.6381  0.4508
 1473TIP3    H1 4362   1.907   2.572   1.258  0.2119  1.0566  1.4796
 1473TIP3    H2 4363   1.775   2.534   1.195  1.4857 -1.5971  0.2072
 1474TIP3   OH2 4364   7.595   1.746   3.773  0.1334  0.2409 -0.2964
 1474TIP3    H1 4365   7.559   1.827   3.809 -1.0025  0.0995 -1.0376
 1474TIP3    H2 4366   7.517   1.697   3.744  0.8461 -0.7859 -0.5206
 1475TIP3   OH2 4367   6.923   1.009   2.907 -0.0141 -0.0264  0.2080
 1475TIP3    H1 4368   6.954   1.024   2.997 -0.9691  0.3909  0.4712
 1475TIP3    H2 4369   6.867   1.084   2.887  0.7230  0.2340 -0.9965
 1476TIP3   OH2 4370   2.048   1.207   4.896 -0.0460  0.7048  0.8258
 1476TIP3    H1 4371   2.079   1.117   4.879 -0.0391  0.6092  1.3486
 1476TIP3    H2 4372   2.117   1.263   4.860  0.7166  0.4938  1.9221
 1477TIP3   OH2 4373   3.275   7.016   4.498 -0.8226  0.3301 -0.0343
 1477TIP3    H1 4374   3.265   6.973   4.583 -0.0668  1.5829  0.7153
 1477TIP3    H2 4375   3.359   7.061   4.504  0.8169 -2.0466 -2.6071
 1478TIP3   OH2 4376   5.061   0.936   6.300  0.3986  0.3896  0.3954
 1478TIP3    H1 4377   5.069   0.920   6.206 -0.7644  0.0610  0.3394
 1478TIP3    H2 4378   5.134   0.994   6.320 -0.0306  1.4642 -0.9473
 1479TIP3   OH2 4379   5.644   2.022   0.961  0.6161  0.1046 -0.6052
 1479TIP3    H1 4380   5.738   2.008   0.947  0.9092  0.4249  0.8522
 1479TIP3    H2 4381   5.610   2.040   0.874  1.1447 -3.9779 -1.9082
 1480TIP3   OH2 4382   2.523   2.136   4.764  0.0459 -0.5294 -0.3021
 1480TIP3    H1 4383   2.607   2.093   4.780 -0.6643 -1.2071  1.9484
 1480TIP3    H2 4384   2.468   2.068   4.724  0.3175 -0.3253 -1.0273
 1481TIP3   OH2 4385   1.593   2.300   1.493  0.0180 -0.4258 -0.8674
 1481TIP3    H1 4386   1.541   2.380   1.491 -1.2547 -1.2308 -1.3311
 1481TIP3    H2 4387   1.547   2.240   1.435  0.9756 -1.4862 -0.5752
 1482TIP3   OH2 4388   1.760   0.456   3.710  0.3949  0.6176  0.4161
 1482TIP3    H1 4389   1.707   0.450   3.631 -1.4525  1.9813  1.4620
 1482TIP3    H2 4390   1.712   0.405   3.775  0.6502  1.4122  1.2437
 1483TIP3   OH2 4391   0.949   1.417   1.300  0.2135 -0.3314  0.5553
 1483TIP3    H1 4392   0.948   1.325   1.273  0.9967 -0.1685 -0.0576
 1483TIP3    H2 4393   1.012   1.419   1.373 -1.0759 -0.5718  1.7198
 1484TIP3   OH2 4394   6.323   3.404   5.125  0.3142  0.8062 -0.0077
 1484TIP3    H1 4395   6.324   3.406   5.221  0.3607  0.1801  0.0083
 1484TIP3    H2 4396   6.294   3.492   5.100  3.1857  2.0149  0.5004
 1485TIP3   OH2 4397   6.324   5.135   5.512  0.1454 -0.0023 -0.1995
 1485TIP3    H1 4398   6.336   5.147   5.418 -0.0462  2.9818  0.0731
 1485TIP3    H2 4399   6.276   5.212   5.540 -1.1768 -1.5736  2.1481
 1486TIP3   OH2 4400   6.615   6.774   3.804  0.0409  0.2474 -0.1932
 1486TIP3    H1 4401   6.694   6.730   3.771 -0.6167 -0.9988 -0.1671
 1486TIP3    H2 4402   6.557   6.703   3.830  0.1447  1.1471  2.8351
 1487TIP3   OH2 4403   4.192   4.956   2.486  0.2412  0.6885  0.4119
 1487TIP3    H1 4404   4.170   4.947   2.579  0.5656  1.4178  0.5668
 1487TIP3    H2 4405   4.288   4.952   2.484  0.1954 -0.2921 -0.0049
 1488TIP3   OH2 4406   1.033   7.494   2.608  0.4895 -0.1985  0.2849
 1488TIP3    H1 4407   0.977   7.505   2.685 -0.4766  1.9297 -0.6412
 1488TIP3    H2 4408   0.972   7.477   2.537  1.2775 -0.8812 -0.2392
 1489TIP3   OH2 4409   8.042   3.268   3.222 -0.1051  0.0920 -0.1290
 1489TIP3    H1 4410   7.955   3.309   3.223 -0.4722 -0.6196 -1.4431
 1489TIP3    H2 4411   8.061   3.254   3.130  1.2250 -0.1902  0.1704
 1490TIP3   OH2 4412   2.315   4.490   4.690  0.1393 -0.1242  0.1245
 1490TIP3    H1 4413   2.361   4.466   4.610  0.0625 -1.7049  0.5269
 1490TIP3    H2 4414   2.284   4.407   4.726 -0.1936  0.5923  1.5715
 1491TIP3   OH2 4415   3.829   1.563   1.917  0.0165 -0.3116  0.0445
 1491TIP3    H1 4416   3.894   1.630   1.935 -1.2699  0.6751  1.2029
 1491TIP3    H2 4417   3.852   1.490   1.975  0.1693 -0.0357  0.3282
 1492TIP3   OH2 4418   5.441   6.781   0.947  0.4607  0.0712  0.3334
 1492TIP3    H1 4419   5.533   6.757   0.938  0.6693 -0.0953  2.3592
 1492TIP3    H2 4420   5.434   6.816   1.036 -1.6171 -0.9091  0.6164
 1493TIP3   OH2 4421   0.927   6.443   5.886  0.0211  0.1598 -0.3566
 1493TIP3    H1 4422   0.945   6.522   5.834 -1.5121  0.3044 -0.7229
 1493TIP3    H2 4423   0.848   6.406   5.847 -1.4232  0.4680  2.0423
 1494TIP3   OH2 4424   5.077   0.366   3.794  0.9449  0.1041  0.0375
 1494TIP3    H1 4425   5.093   0.430   3.863  0.3177 -0.8015  1.0502
 1494TIP3    H2 4426   5.015   0.304   3.832 -1.4214  0.9428 -2.1681
 1495TIP3   OH2 4427   8.097   5.735   3.372  0.4566  0.2638  0.7900
 1495TIP3    H1 4428   8.018   5.682   3.373  0.6826 -0.1270 -0.3963
 1495TIP3    H2 4429   8.073   5.815   3.418 -0.7369  0.2985  0.1399
 1496TIP3   OH2 4430   0.169   2.458   1.496 -0.9666 -0.0575 -0.0347
 1496TIP3    H1 4431   0.152   2.522   1.564 -0.1783  1.5137 -1.2255
 1496TIP3    H2 4432   0.265   2.451   1.493 -1.0496 -1.8681  0.5514
 1497TIP3   OH2 4433   2.720   4.616   3.806  0.0920  0.2067  0.0068
 1497TIP3    H1 4434   2.656   4.567   3.755  1.9111 -2.3732 -0.0079
 1497TIP3    H2 4435   2.748   4.687   3.749  0.5578 -1.3683 -1.8164
 1498TIP3   OH2 4436   8.043   2.062   3.262  0.0220 -0.1210  0.0758
 1498TIP3    H1 4437   8.020   2.028   3.348 -0.5104 -0.0135 -0.0188
 1498TIP3    H2 4438   8.099   1.995   3.223  0.2863 -0.1564  0.5170
 1499TIP3   OH2 4439   1.906   2.108   4.739 -0.2862 -0.3923  0.1622
 1499TIP3    H1 4440   1.878   2.199   4.747  1.4850  0.1687  0.4477
 1499TIP3    H2 4441   1.911   2.077   4.829 -0.2153 -0.5583  0.1011
 1500TIP3   OH2 4442   0.496   1.879   4.528 -0.0075 -0.5293  0.3678
 1500TIP3    H1 4443   0.538   1.962   4.503  0.8977 -0.9149  0.5707
 1500TIP3    H2 4444   0.456   1.848   4.447 -0.4721  0.1716  0.3212
 1501TIP3   OH2 4445   6.668   6.712   5.371 -0.3895  0.4258  0.1926
 1501TIP3    H1 4446   6.687   6.763   5.292 -2.3667  2.5788  1.0012
 1501TIP3    H2 4447   6.754   6.695   5.410  0.6376 -0.6117 -2.2794
 1502TIP3   OH2 4448   7.204   4.277   4.172  0.1132 -0.1768 -0.4885
 1502TIP3    H1 4449   7.155   4.195   4.165  1.4788 -1.0110 -0.5871
 1502TIP3    H2 4450   7.164   4.334   4.107 -1.4081 -0.4475  0.1558
 1503TIP3   OH2 4451   4.398   5.749   1.230 -0.4192  0.5823  0.4408
 1503TIP3    H1 4452   4.362   5.792   1.307  0.6055  1.9360  0.2056
 1503TIP3    H2 4453   4.482   5.794   1.215  0.1106 -0.6773 -0.5615
 1504TIP3   OH2 4454   5.242   2.086   2.089 -0.2754 -0.3543  0.0576
 1504TIP3    H1 4455   5.290   2.100   2.171  0.8444 -1.2996 -0.4065
 1504TIP3    H2 4456   5.150   2.101   2.112  0.1633  0.9676  1.1039
 1505TIP3   OH2 4457   0.235   3.401   5.226 -0.3187 -0.4886 -0.0024
 1505TIP3    H1 4458   0.200   3.313   5.208 -0.8355 -0.0727 -1.1476
 1505TIP3    H2 4459   0.293   3.389   5.301 -1.2700 -1.6013  0.5895
 1506TIP3   OH2 4460   3.387   1.713   2.026 -0.3795 -0.1092 -0.0274
 1506TIP3    H1 4461   3.299   1.676   2.023 -0.4313 -0.0396  0.5542
 1506TIP3    H2 4462   3.432   1.663   2.095 -0.7373  1.5194  1.4560
 1507TIP3   OH2 4463   7.490   6.818   4.683  0.0833 -0.0254 -0.6589
 1507TIP3    H1 4464   7.525   6.812   4.772  0.2169  1.0114 -0.6270
 1507TIP3    H2 4465   7.431   6.893   4.685 -0.4701 -0.4351 -1.2671
 1508TIP3   OH2 4466   6.088   6.891   2.031 -0.1105  0.0178 -0.4907
 1508TIP3    H1 4467   6.081   6.895   2.126  0.1225 -0.1682 -0.4659
 1508TIP3    H2 4468   6.124   6.805   2.012 -0.1949  0.0372 -0.7509
 1509TIP3   OH2 4469   2.352   2.142   4.509 -0.5251 -0.5288  0.4093
 1509TIP3    H1 4470   2.277   2.088   4.535  0.6734 -1.8832  1.1632
 1509TIP3    H2 4471   2.396   2.090   4.441  1.2984 -1.1076  1.9530
 1510TIP3   OH2 4472   5.164   4.631   3.808  0.3769  0.6400  0.3039
 1510TIP3    H1 4473   5.097   4.672   3.753  0.6891  2.0120  0.9030
 1510TIP3    H2 4474   5.129   4.543   3.826  0.1254  0.2769 -1.7686
 1511TIP3   OH2 4475   5.094   6.879   1.591  0.1816 -0.0727 -0.3384
 1511TIP3    H1 4476   5.055   6.825   1.660 -0.1241  1.8873  1.1064
 1511TIP3    H2 4477   5.188   6.877   1.609  0.1658 -0.1040 -0.2573
 1512TIP3   OH2 4478   6.962   1.211   1.046 -0.3121  0.6066  0.5565
 1512TIP3    H1 4479   7.045   1.172   1.020 -0.9243  0.1227 -0.7761
 1512TIP3    H2 4480   6.974   1.235   1.138  1.4312  0.9461  0.2747
 1513TIP3   OH2 4481   3.640   4.409   4.589 -0.0593  0.1263 -0.1514
 1513TIP3    H1 4482   3.678   4.370   4.667 -1.9645  0.6472  1.1168
 1513TIP3    H2 4483   3.573   4.469   4.622 -1.0764  0.2126 -2.1707
 1514TIP3   OH2 4484   0.910   2.686   2.144  0.2798  0.0375 -0.1201
 1514TIP3    H1 4485   0.957   2.610   2.180 -1.0452 -0.0980  1.4423
 1514TIP3    H2 4486   0.874   2.654   2.062  0.1957 -0.8621  0.2542
 1515TIP3   OH2 4487   3.717   1.093   1.424  0.2821 -0.0679  0.2624
 1515TIP3    H1 4488   3.692   1.185   1.430 -2.5071 -0.7522  0.2160
 1515TIP3    H2 4489   3.694   1.067   1.335 -0.6330 -1.2251  0.8069
 1516TIP3   OH2 4490   5.362   6.846   1.616 -0.3162  0.2978 -0.3123
 1516TIP3    H1 4491   5.421   6.912   1.582  1.3748 -1.1691 -0.3621
 1516TIP3    H2 4492   5.397   6.824   1.703  0.6595 -2.2218 -1.2566
 1517TIP3   OH2 4493   1.403   5.952   1.317 -0.1559 -0.1389 -1.1486
 1517TIP3    H1 4494   1.359   6.034   1.294  0.7117  1.6403  2.7057
 1517TIP3    H2 4495   1.474   5.944   1.254  1.6112  3.8608  0.0151
 1518TIP3   OH2 4496   0.914   0.388   1.513 -0.5268  0.4539  0.8135
 1518TIP3    H1 4497   0.929   0.304   1.556  0.0767  0.3324  0.3813
 1518TIP3    H2 4498   0.836   0.424   1.556 -0.3690  0.0011  1.4943
 1519TIP3   OH2 4499   7.718   5.027   1.831  0.7818 -0.4273  0.4540
 1519TIP3    H1 4500   7.753   4.941   1.852 -1.2496 -1.1426  1.1546
 1519TIP3    H2 4501   7.688   5.062   1.916  1.0425  0.7282  0.0922
 1520TIP3   OH2 4502   0.455   2.662   1.345 -0.2813 -0.5297 -0.1554
 1520TIP3    H1 4503   0.482   2.612   1.423 -1.3565 -1.0651 -0.1194
 1520TIP3    H2 4504   0.448   2.597   1.276 -1.8643 -0.4757 -0.0680
 1521TIP3   OH2 4505   3.164   3.510   5.118  0.6621 -0.3894 -0.2594
 1521TIP3    H1 4506   3.227   3.477   5.054  0.4119  1.7678 -1.7377
 1521TIP3    H2 4507   3.153   3.602   5.094  1.6232  0.9723  3.7545
 1522TIP3   OH2 4508   3.198   6.019   5.135  0.3066  0.5284  0.1850
 1522TIP3    H1 4509   3.253   6.095   5.114  0.7294  0.1300 -0.1831
 1522TIP3    H2 4510   3.131   6.053   5.194  0.0069  1.3623 -0.6142
 1523TIP3   OH2 4511   4.611   6.537   1.547 -0.2142  0.6415  0.0524
 1523TIP3    H1 4512   4.516   6.527   1.538  0.0823 -1.3163 -2.1137
 1523TIP3    H2 4513   4.638   6.582   1.467  0.8741 -1.0838 -0.6232
 1524TIP3   OH2 4514   2.585   2.141   1.091 -0.7489 -0.0613  0.6692
 1524TIP3    H1 4515   2.659   2.199   1.108 -0.3023  0.1202 -1.6755
 1524TIP3    H2 4516   2.620   2.053   1.103 -0.0297  0.0112 -0.7836
 1525TIP3   OH2 4517   4.731   6.232   0.518  0.1758  0.4913 -0.0347
 1525TIP3    H1 4518   4.745   6.155   0.462  1.9496  1.5363 -1.1571
 1525TIP3    H2 4519   4.669   6.203   0.584  0.7629 -1.9063 -0.4270
 1526TIP3   OH2 4520   0.970   5.301   5.841 -0.2864  0.1154 -0.1981
 1526TIP3    H1 4521   1.060   5.272   5.856 -0.3904  0.0317  0.2793
 1526TIP3    H2 4522   0.949   5.267   5.754 -0.0625 -0.3862 -0.0628
 1527TIP3   OH2 4523   0.493   4.348   2.175  0.0301  0.1388 -0.0288
 1527TIP3    H1 4524   0.479   4.312   2.262 -0.2641 -0.6379 -0.3885
 1527TIP3    H2 4525   0.422   4.412   2.165 -0.5688 -0.5200 -0.0898
 1528TIP3   OH2 4526   3.154   7.685   5.825 -0.2280  0.3038  0.2420
 1528TIP3    H1 4527   3.219   7.628   5.867 -0.6586 -0.4106 -0.0355
 1528TIP3    H2 4528   3.103   7.721   5.898 -0.3194 -0.1241  0.3938
 1529TIP3   OH2 4529   7.122   6.068   3.216 -0.4097  0.0523  0.0888
 1529TIP3    H1 4530   7.185   6.007   3.177  0.0992  0.2959  0.5157
 1529TIP3    H2 4531   7.144   6.153   3.179 -0.9993  0.0136 -0.3609
 1530TIP3   OH2 4532   5.096   7.510   2.470 -0.4879 -0.2047 -0.1102
 1530TIP3    H1 4533   5.023   7.454   2.496 -0.4264  0.3076  1.2409
 1530TIP3    H2 4534   5.169   7.483   2.526  0.2066 -0.3150 -1.0407
 1531TIP3   OH2 4535   0.488   3.097   5.923 -0.1311  0.3098 -0.4485
 1531TIP3    H1 4536   0.508   3.132   6.009 -1.4041 -0.1507  0.0471
 1531TIP3    H2 4537   0.523   3.008   5.925  2.2562  1.1301 -1.3839
 1532TIP3   OH2 4538   1.478   4.562   1.647  0.3685  0.2301 -0.0502
 1532TIP3    H1 4539   1.569   4.591   1.637  0.3274  0.7634  0.9885
 1532TIP3    H2 4540   1.428   4.644   1.653  0.1154 -0.0092  1.7508
 1533TIP3   OH2 4541   6.822   2.054   0.657 -0.1455  0.0945  0.0747
 1533TIP3    H1 4542   6.761   2.115   0.616 -0.7608 -0.0376  0.7619
 1533TIP3    H2 4543   6.815   2.073   0.751  0.5246 -0.2425  0.1971
 1534TIP3   OH2 4544   5.415   3.316   1.152 -0.1660  0.0678 -0.3349
 1534TIP3    H1 4545   5.434   3.409   1.140  1.6087  0.2207  2.7332
 1534TIP3    H2 4546   5.491   3.271   1.117 -0.0498 -0.0997  0.1291
 1535TIP3   OH2 4547   3.657   4.555   2.090 -0.2622  0.1296 -0.0431
 1535TIP3    H1 4548   3.681   4.642   2.120 -2.2483  0.4109  0.8802
 1535TIP3    H2 4549   3.602   4.570   2.013 -0.9000 -0.2865  0.3271
 1536TIP3   OH2 4550   2.375   2.307   2.982  0.1518 -0.0126  0.5645
 1536TIP3    H1 4551   2.304   2.248   3.008 -0.4870  0.5456  0.1350
 1536TIP3    H2 4552   2.360   2.386   3.033 -0.6260  0.7843 -0.8346
 1537TIP3   OH2 4553   4.377   5.591   1.500 -0.1702  0.1494 -0.5844
 1537TIP3    H1 4554   4.330   5.674   1.494  0.8009  0.6930 -1.0305
 1537TIP3    H2 4555   4.347   5.541   1.424 -0.1111  0.4459 -0.8051
 1538TIP3   OH2 4556   3.297   3.835   1.607 -0.5480 -0.9988  0.0349
 1538TIP3    H1 4557   3.250   3.843   1.523  0.9763 -1.7746 -0.9341
 1538TIP3    H2 4558   3.249   3.768   1.655 -1.1937 -0.8481 -0.3866
 1539TIP3   OH2 4559   1.515   2.122   5.542  0.5244 -0.0401  0.0229
 1539TIP3    H1 4560   1.581   2.167   5.593  0.6902 -0.8342  0.5317
 1539TIP3    H2 4561   1.433   2.166   5.563  0.6416 -0.1420  0.7108
 1540TIP3   OH2 4562   3.610   0.874   3.182  0.3470 -0.0230  0.2923
 1540TIP3    H1 4563   3.614   0.950   3.124 -1.0478  1.1756  1.6626
 1540TIP3    H2 4564   3.613   0.799   3.123  1.0951  1.0929 -1.1660
 1541TIP3   OH2 4565   1.569   1.423   4.176  0.1178 -0.2830  0.2784
 1541TIP3    H1 4566   1.646   1.427   4.120 -0.0391  2.3136  0.1133
 1541TIP3    H2 4567   1.604   1.416   4.265  0.4810 -0.5737  0.1142
 1542TIP3   OH2 4568   3.717   4.418   0.886  0.0939  0.4367 -0.4937
 1542TIP3    H1 4569   3.751   4.495   0.932 -1.1718  0.8369 -0.1782
 1542TIP3    H2 4570   3.722   4.442   0.793 -0.6169  1.0572 -0.3825
 1543TIP3   OH2 4571   7.695   0.588   1.190 -0.0775  0.1947  0.1977
 1543TIP3    H1 4572   7.650   0.518   1.142  0.0246  0.4555 -0.2789
 1543TIP3    H2 4573   7.785   0.586   1.157 -0.2669  1.0748 -0.4121
 1544TIP3   OH2 4574   0.306   2.955   6.744 -0.1610 -0.3899  0.0037
 1544TIP3    H1 4575   0.219   2.952   6.704  0.6171  0.9056 -1.9777
 1544TIP3    H2 4576   0.292   2.995   6.830 -1.8102 -2.5502  0.8097
 1545TIP3   OH2 4577   2.535   6.680   5.639  0.4745 -0.4937  0.6435
 1545TIP3    H1 4578   2.538   6.681   5.735 -0.9841  0.3986  0.7096
 1545TIP3    H2 4579   2.483   6.602   5.617  0.6297 -0.5799  0.5792
 1546TIP3   OH2 4580   6.953   7.112   2.656  0.3250  0.1732  0.1299
 1546TIP3    H1 4581   7.005   7.146   2.584 -1.6623  0.9633 -1.0246
 1546TIP3    H2 4582   6.905   7.038   2.618 -0.3106  0.2247  0.8062
 1547TIP3   OH2 4583   3.346   4.684   4.195  0.2242  0.2015 -0.2144
 1547TIP3    H1 4584   3.356   4.589   4.193 -2.1972 -0.1095 -2.1181
 1547TIP3    H2 4585   3.418   4.718   4.142  2.2177 -0.3302  1.9768
 1548TIP3   OH2 4586   2.819   0.638   5.676 -0.0684  0.7182 -0.5777
 1548TIP3    H1 4587   2.861   0.557   5.646 -2.1287 -0.3955 -0.5795
 1548TIP3    H2 4588   2.879   0.671   5.744  0.7842 -0.8411 -0.5152
 1549TIP3   OH2 4589   6.238   4.591   5.814 -0.2136  0.1316 -0.1608
 1549TIP3    H1 4590   6.190   4.516   5.780  0.5624 -0.5779  0.2824
 1549TIP3    H2 4591   6.325   4.558   5.834 -0.6357  0.4255  2.6484
 1550TIP3   OH2 4592   3.147   0.436   4.587 -0.3546 -0.1833  0.5166
 1550TIP3    H1 4593   3.171   0.462   4.676  0.1012 -0.1931  0.3994
 1550TIP3    H2 4594   3.143   0.518   4.538 -0.2661 -0.2094  0.4656
 1551TIP3   OH2 4595   1.923   3.213   0.429 -0.5559 -0.1794 -0.4068
 1551TIP3    H1 4596   1.902   3.142   0.368  0.7670 -1.8429  0.9410
 1551TIP3    H2 4597   1.992   3.262   0.386 -0.4171 -0.6620 -0.7456
 1552TIP3   OH2 4598   5.030   7.073   2.073  0.7419  0.5246  0.1537
 1552TIP3    H1 4599   4.960   7.134   2.096  0.2187 -0.0873  0.2241
 1552TIP3    H2 4600   5.101   7.093   2.134  0.6629  1.2135  0.0208
 1553TIP3   OH2 4601   0.883   1.066   1.669 -0.5856 -0.6587 -0.2513
 1553TIP3    H1 4602   0.911   1.153   1.695 -1.6913 -0.0306 -1.0913
 1553TIP3    H2 4603   0.825   1.038   1.740  1.3050 -1.5812  1.0227
 1554TIP3   OH2 4604   6.469   7.848   0.270 -0.5109 -0.2204 -0.0753
 1554TIP3    H1 4605   6.477   7.813   0.182  0.2987 -0.7313  0.1954
 1554TIP3    H2 4606   6.476   7.772   0.328  1.4441  0.3689  0.5242
 1555TIP3   OH2 4607   0.803   1.606   3.293 -0.0382  0.1260  0.4972
 1555TIP3    H1 4608   0.748   1.529   3.307  0.8224 -0.2768  1.8572
 1555TIP3    H2 4609   0.815   1.643   3.380 -0.8702  2.1440 -0.1845
 1556TIP3   OH2 4610   8.063   3.025   6.049  0.6544 -0.3021 -0.1574
 1556TIP3    H1 4611   8.041   3.061   5.963  1.2279  2.0461  0.6168
 1556TIP3    H2 4612   8.144   3.068   6.074  2.2061 -3.2338  0.2910
 1557TIP3   OH2 4613   5.300   4.573   3.150  0.0610  0.0077  0.5431
 1557TIP3    H1 4614   5.233   4.633   3.118 -1.2059 -1.9976 -0.7280
 1557TIP3    H2 4615   5.311   4.509   3.080  0.4977 -1.9350  2.2792
 1558TIP3   OH2 4616   4.840   5.282   0.658  0.3609 -0.2524 -0.0356
 1558TIP3    H1 4617   4.782   5.275   0.582 -0.1076 -3.5174  0.4661
 1558TIP3    H2 4618   4.928   5.269   0.621  0.4432  1.0237 -0.3301
 1559TIP3   OH2 4619   0.747   6.510   4.056  0.3605 -0.6776 -0.9275
 1559TIP3    H1 4620   0.736   6.416   4.069  1.1662 -0.7031 -0.3286
 1559TIP3    H2 4621   0.699   6.550   4.129 -0.5686 -0.5887 -1.5714
 1560TIP3   OH2 4622   0.232   2.173   2.783 -0.1625 -0.3405 -0.1239
 1560TIP3    H1 4623   0.225   2.172   2.879 -0.8476 -0.2191 -0.1718
 1560TIP3    H2 4624   0.226   2.266   2.760  1.6048 -0.1918 -0.1855
 1561TIP3   OH2 4625   6.809   4.287   0.791 -0.1593  0.0681  0.3558
 1561TIP3    H1 4626   6.883   4.228   0.802  0.1480  0.3677 -0.0917
 1561TIP3    H2 4627   6.791   4.320   0.879  0.9971  0.9096  0.2966
 1562TIP3   OH2 4628   1.517   1.014   2.166  0.1550 -0.2691  0.2744
 1562TIP3    H1 4629   1.553   1.084   2.111  1.1336  0.5823  1.9193
 1562TIP3    H2 4630   1.588   0.952   2.177 -0.7731 -1.7221 -1.3489
 1563TIP3   OH2 4631   6.070   6.069   2.953 -0.4044  0.0085  0.1015
 1563TIP3    H1 4632   5.987   6.032   2.923 -0.8939  1.0652  0.0903
 1563TIP3    H2 4633   6.055   6.164   2.952  1.2868  0.3141 -1.3624
 1564TIP3   OH2 4634   1.365   1.222   0.531 -0.2192  0.4909  0.0261
 1564TIP3    H1 4635   1.404   1.135   0.541  0.1531  0.7378  0.7853
 1564TIP3    H2 4636   1.409   1.260   0.455  0.2693  0.3658  0.2477
 1565TIP3   OH2 4637   1.739   1.100   0.269 -0.0984  0.2432  0.2281
 1565TIP3    H1 4638   1.646   1.123   0.268 -0.4252 -0.9842 -0.2917
 1565TIP3    H2 4639   1.758   1.081   0.361 -0.4591  0.1601  0.2891
 1566TIP3   OH2 4640   7.785   0.782   5.986  0.0811  0.3810  0.6529
 1566TIP3    H1 4641   7.805   0.840   5.912  0.2406  1.0374  1.2041
 1566TIP3    H2 4642   7.689   0.780   5.989  0.0344 -0.8059 -0.4540
 1567TIP3   OH2 4643   2.194   5.577   3.667  0.6403  0.6035 -0.9408
 1567TIP3    H1 4644   2.127   5.610   3.608 -1.2563 -0.9991  0.2250
 1567TIP3    H2 4645   2.222   5.494   3.629  1.8494  1.1356 -1.2845
 1568TIP3   OH2 4646   7.721   4.108   6.721 -0.1793  0.1547 -0.1949
 1568TIP3    H1 4647   7.699   4.016   6.727  0.9744 -0.0386  2.0726
 1568TIP3    H2 4648   7.817   4.110   6.723 -0.2010  1.4300  0.6096
 1569TIP3   OH2 4649   0.839   7.232   2.265 -0.3832  0.0400 -0.1030
 1569TIP3    H1 4650   0.763   7.203   2.213  0.6943 -1.3318 -1.0089
 1569TIP3    H2 4651   0.897   7.155   2.266  1.1790  1.1814  0.1957
 1570TIP3   OH2 4652   6.058   2.703   3.733  0.1563  0.0511 -0.0677
 1570TIP3    H1 4653   6.020   2.658   3.808 -0.7273 -1.4355 -1.3392
 1570TIP3    H2 4654   6.036   2.795   3.747  0.4973 -0.1127  1.7472
 1571TIP3   OH2 4655   7.444   6.619   4.506  0.2391 -0.0024  0.2254
 1571TIP3    H1 4656   7.492   6.695   4.540  0.6792  0.7168 -1.8148
 1571TIP3    H2 4657   7.359   6.623   4.549  0.8070  0.7279  1.3252
 1572TIP3   OH2 4658   3.621   3.139   1.792 -0.0266 -0.5069 -0.6551
 1572TIP3    H1 4659   3.526   3.138   1.782 -0.1894 -1.1891  0.7511
 1572TIP3    H2 4660   3.645   3.231   1.783 -0.6424 -0.4839 -2.3942
 1573TIP3   OH2 4661   2.441   3.651   0.499  0.2051  0.1877 -0.2374
 1573TIP3    H1 4662   2.502   3.650   0.425  0.2910  2.5701 -0.2774
 1573TIP3    H2 4663   2.456   3.736   0.541 -1.5676 -0.0837  1.0522
 1574TIP3   OH2 4664   0.877   7.764   3.233 -0.1772 -0.2933 -0.2978
 1574TIP3    H1 4665   0.872   7.761   3.137 -1.8740 -0.6034 -0.2220
 1574TIP3    H2 4666   0.787   7.780   3.262  0.5260  1.4367  1.2074
 1575TIP3   OH2 4667   2.305   7.144   2.985  0.6681  0.3064 -0.5266
 1575TIP3    H1 4668   2.221   7.188   2.976  0.1465 -0.6158 -0.2357
 1575TIP3    H2 4669   2.323   7.109   2.897 -0.2104 -1.1714 -0.1499
 1576TIP3   OH2 4670   5.742   1.629   5.889  0.0507 -0.6921  1.0268
 1576TIP3    H1 4671   5.802   1.684   5.840  1.3155 -2.9940 -0.1905
 1576TIP3    H2 4672   5.697   1.689   5.948  2.2693  1.4145  0.7462
 1577TIP3   OH2 4673   6.747   1.848   2.084  0.0772 -0.5855  0.1656
 1577TIP3    H1 4674   6.670   1.897   2.054 -0.8563 -1.9589  0.2319
 1577TIP3    H2 4675   6.813   1.862   2.016  0.0709  1.2817  0.5082
 1578TIP3   OH2 4676   3.239   4.924   1.679 -0.3871 -0.3423 -0.2362
 1578TIP3    H1 4677   3.186   4.995   1.713  1.4001  0.9199  0.0599
 1578TIP3    H2 4678   3.204   4.907   1.591 -0.5521  1.2471 -0.5006
 1579TIP3   OH2 4679   8.086   4.540   3.255 -0.3434  0.2222  0.5737
 1579TIP3    H1 4680   8.139   4.527   3.334 -0.5550 -0.9384  0.5332
 1579TIP3    H2 4681   8.055   4.453   3.232  1.1586  0.2330 -1.8323
 1580TIP3   OH2 4682   3.003   3.284   0.097 -0.3501  0.4078 -0.3405
 1580TIP3    H1 4683   3.082   3.259   0.145 -0.0047  0.3946 -0.9100
 1580TIP3    H2 4684   2.980   3.370   0.131 -0.8605 -0.1329  0.7801
 1581TIP3   OH2 4685   1.242   3.909   6.403  0.3799  0.0446 -0.7164
 1581TIP3    H1 4686   1.268   3.917   6.495  2.3807  0.9769 -1.2990
 1581TIP3    H2 4687   1.256   3.817   6.382  1.2989  0.1091 -0.4394
 1582TIP3   OH2 4688   0.039   6.901   2.021  0.4931  0.6598 -0.2061
 1582TIP3    H1 4689   0.114   6.883   1.965  0.4333  0.8172 -0.3373
 1582TIP3    H2 4690  -0.026   6.940   1.962  0.9482  2.1533  0.2466
 1583TIP3   OH2 4691   6.121   4.966   6.740  0.6277 -0.5495 -0.1831
 1583TIP3    H1 4692   6.188   5.019   6.783  0.6992 -1.1115  0.4162
 1583TIP3    H2 4693   6.098   4.900   6.805 -0.4564 -0.4069 -0.4079
 1584TIP3   OH2 4694   2.532   6.081   4.928  0.7616  0.2553 -0.3755
 1584TIP3    H1 4695   2.596   6.117   4.990 -0.2564  0.2434  0.7224
 1584TIP3    H2 4696   2.570   5.998   4.899  0.8111 -0.2432  1.0435
 1585TIP3   OH2 4697   2.336   0.248   1.638 -0.3712 -0.1470 -0.4734
 1585TIP3    H1 4698   2.291   0.319   1.685 -0.6695 -0.1694 -0.7223
 1585TIP3    H2 4699   2.416   0.234   1.688 -1.3191 -1.1148  0.8584
 1586TIP3   OH2 4700   6.424   0.498   5.959  0.2050  0.0722  0.2034
 1586TIP3    H1 4701   6.515   0.469   5.945 -0.2575 -0.4462 -2.2613
 1586TIP3    H2 4702   6.393   0.444   6.031  1.6769 -0.1308  0.7304
 1587TIP3   OH2 4703   2.070   7.070   5.150 -0.0989  0.1581 -0.0304
 1587TIP3    H1 4704   1.995   7.109   5.105 -0.6059 -1.3245 -0.5123
 1587TIP3    H2 4705   2.111   7.014   5.084 -0.5569 -1.6693  1.1700
 1588TIP3   OH2 4706   1.869   5.822   6.590 -0.0467 -0.1815  0.1670
 1588TIP3    H1 4707   1.940   5.884   6.605 -0.2963  0.1893 -0.1735
 1588TIP3    H2 4708   1.880   5.756   6.659  0.5001 -0.0164  0.2440
 1589TIP3   OH2 4709   3.866   5.244   2.118 -0.1694  0.3085  0.2604
 1589TIP3    H1 4710   3.771   5.234   2.121 -0.5657  2.9045 -1.0883
 1589TIP3    H2 4711   3.890   5.224   2.028  0.5443  0.0426  0.4980
 1590TIP3   OH2 4712   8.205   7.331   0.267  0.1375  0.3463 -0.0300
 1590TIP3    H1 4713   8.198   7.407   0.210 -0.4390  0.3619  0.0533
 1590TIP3    H2 4714   8.283   7.285   0.237 -0.3639  0.1553 -1.0672
 1591TIP3   OH2 4715   0.032   4.374   3.990  0.3620 -0.1336 -0.0687
 1591TIP3    H1 4716   0.010   4.467   3.981  0.0714 -0.1068  0.8547
 1591TIP3    H2 4717   0.088   4.356   3.914  0.0670  0.6814 -0.4965
 1592TIP3   OH2 4718   4.837   0.449   0.794 -0.3549  0.6819 -0.0889
 1592TIP3    H1 4719   4.891   0.496   0.857 -0.8858  3.1393 -1.3351
 1592TIP3    H2 4720   4.765   0.413   0.846  0.2268  0.9997  0.9610
 1593TIP3   OH2 4721   7.864   7.802   5.714  0.1240  0.0023  0.1562
 1593TIP3    H1 4722   7.787   7.849   5.744 -0.4539 -0.1353 -1.0539
 1593TIP3    H2 4723   7.853   7.713   5.747 -0.8760 -0.3405 -1.0569
 1594TIP3   OH2 4724   2.873   0.902   5.813 -0.2186  0.8301  0.2788
 1594TIP3    H1 4725   2.960   0.942   5.820  0.4924 -0.8663  2.1869
 1594TIP3    H2 4726   2.880   0.821   5.864 -2.0917 -0.8305 -1.8987
 1595TIP3   OH2 4727   8.073   2.783   3.469  0.0767 -0.1905  0.6339
 1595TIP3    H1 4728   8.132   2.751   3.538  1.4903 -1.8959 -1.2339
 1595TIP3    H2 4729   8.132   2.817   3.402 -1.2776  1.7259  0.3453
 1596TIP3   OH2 4730   5.946   2.070   3.017  0.3969  0.1593  0.0479
 1596TIP3    H1 4731   6.013   2.135   2.998 -0.2850  0.6897 -0.5719
 1596TIP3    H2 4732   5.864   2.120   3.022 -0.0367 -0.5507  0.2807
 1597TIP3   OH2 4733   5.641   2.127   0.436  0.4424 -0.6194 -0.3728
 1597TIP3    H1 4734   5.552   2.144   0.465  0.1653 -0.8924 -1.0422
 1597TIP3    H2 4735   5.685   2.091   0.513 -0.4535 -1.9231 -0.4266
 1598TIP3   OH2 4736   7.093   4.834   5.168  0.4976  0.2950  0.2966
 1598TIP3    H1 4737   7.131   4.853   5.082  0.6477  2.0277  0.7242
 1598TIP3    H2 4738   7.083   4.919   5.209 -1.0632 -0.3839  1.3907
 1599TIP3   OH2 4739   1.678   2.497   2.871  0.5227 -0.2704 -0.4077
 1599TIP3    H1 4740   1.651   2.449   2.949  0.9548 -1.8954 -1.2203
 1599TIP3    H2 4741   1.597   2.532   2.835  0.1333 -0.8340 -0.0902
 1600TIP3   OH2 4742   2.876   1.412   4.293  0.1937 -0.3718 -0.0090
 1600TIP3    H1 4743   2.865   1.480   4.227 -2.4837 -0.5069  0.1877
 1600TIP3    H2 4744   2.912   1.337   4.245  0.8997  0.3912 -0.7078
 1601TIP3   OH2 4745   3.007   5.636   1.515  0.2903 -0.2473 -0.4528
 1601TIP3    H1 4746   2.984   5.661   1.605  2.6849 -1.2106  0.5038
 1601TIP3    H2 4747   3.101   5.622   1.517  0.3490 -0.7630 -3.0428
 1602TIP3   OH2 4748   3.461   1.200   4.051  0.7554 -0.1572 -0.4973
 1602TIP3    H1 4749   3.549   1.228   4.076  0.5665 -0.3852  0.4685
 1602TIP3    H2 4750   3.426   1.159   4.130 -1.2279  2.3291  0.0481
 1603TIP3   OH2 4751   5.790   1.885   3.922 -0.1464 -0.7010  0.0691
 1603TIP3    H1 4752   5.886   1.879   3.920 -0.1446 -0.3754 -0.9481
 1603TIP3    H2 4753   5.773   1.964   3.973  0.1784  0.2919 -1.3112
 1604TIP3   OH2 4754   5.239   1.242   5.693  0.0643 -0.1025  0.3706
 1604TIP3    H1 4755   5.223   1.308   5.625  1.2582  1.6559  1.6883
 1604TIP3    H2 4756   5.334   1.234   5.697 -0.0528 -2.1743  0.0602
 1605TIP3   OH2 4757   0.166   7.071   0.329 -0.1725 -0.4263  0.3654
 1605TIP3    H1 4758   0.173   7.144   0.390 -1.7899 -0.5433  0.7190
 1605TIP3    H2 4759   0.119   7.107   0.253 -0.3074 -0.9001  0.2177
 1606TIP3   OH2 4760   5.892   6.049   1.977 -0.2963 -0.1760 -0.6139
 1606TIP3    H1 4761   5.883   5.989   1.903 -0.8122  1.5359 -2.0059
 1606TIP3    H2 4762   5.806   6.050   2.018  0.1782 -1.6694  0.5041
 1607TIP3   OH2 4763   0.712   4.298   4.152 -0.2457 -0.2434  0.3303
 1607TIP3    H1 4764   0.744   4.262   4.069  2.0713 -1.1013  1.5022
 1607TIP3    H2 4765   0.772   4.369   4.173 -1.0642  0.2561  1.0695
 1608TIP3   OH2 4766   0.982   7.533   3.318 -0.1127  0.2301 -0.8544
 1608TIP3    H1 4767   0.902   7.491   3.351  0.3810 -0.0194  0.0677
 1608TIP3    H2 4768   0.957   7.624   3.305 -0.5266  0.1738 -0.4831
 1609TIP3   OH2 4769   2.481   4.937   3.267 -0.3813 -0.0102 -0.3604
 1609TIP3    H1 4770   2.401   4.978   3.237 -0.7941  0.0654  0.8163
 1609TIP3    H2 4771   2.526   4.911   3.187  0.1170  3.0901 -1.2016
 1610TIP3   OH2 4772   7.753   0.576   1.476  0.8384 -0.3253 -0.0566
 1610TIP3    H1 4773   7.756   0.577   1.380  1.4393 -0.7666 -0.0422
 1610TIP3    H2 4774   7.815   0.508   1.502  1.1878  0.2532  0.6645
 1611TIP3   OH2 4775   2.729   2.932   3.921 -0.2454  0.5267 -0.1077
 1611TIP3    H1 4776   2.676   2.925   4.000 -0.1859 -0.5935 -0.1587
 1611TIP3    H2 4777   2.781   2.852   3.919  0.7527  1.1570 -0.5716
 1612TIP3   OH2 4778   4.216   1.981   1.977  0.2989 -0.3194 -0.2263
 1612TIP3    H1 4779   4.182   1.938   2.056 -0.6590 -1.8289 -1.4186
 1612TIP3    H2 4780   4.242   2.068   2.008  0.8325 -1.1748  1.9419
 1613TIP3   OH2 4781   2.293   7.451   6.196 -0.0330 -0.4106 -0.2617
 1613TIP3    H1 4782   2.302   7.436   6.290  0.6033 -1.0191 -0.4056
 1613TIP3    H2 4783   2.262   7.368   6.162 -1.1073  0.0738 -0.4876
 1614TIP3   OH2 4784   0.182   4.221   5.231  0.4410  0.0637  0.0066
 1614TIP3    H1 4785   0.225   4.283   5.290 -0.5327 -0.8277  1.7425
 1614TIP3    H2 4786   0.089   4.245   5.234  0.3939  0.1432 -1.3918
 1615TIP3   OH2 4787   2.810   1.518   1.595 -0.0070 -0.3227  0.2561
 1615TIP3    H1 4788   2.780   1.430   1.616  1.2118 -0.5333  1.2098
 1615TIP3    H2 4789   2.875   1.505   1.525  0.4945 -0.2372  0.6984
 1616TIP3   OH2 4790   0.139   7.687   3.189  0.5625  0.7052  0.1893
 1616TIP3    H1 4791   0.118   7.621   3.254  0.8069  0.4983  0.0576
 1616TIP3    H2 4792   0.055   7.726   3.166  0.3363 -0.0330 -0.2461
 1617TIP3   OH2 4793   1.757   6.164   6.600  0.0974  0.0475 -0.2485
 1617TIP3    H1 4794   1.752   6.074   6.568 -0.9995 -0.4074  1.1309
 1617TIP3    H2 4795   1.817   6.159   6.675  2.4569  1.0566 -1.9402
 1618TIP3   OH2 4796   3.038   6.931   1.653  0.4888  0.2812 -0.0897
 1618TIP3    H1 4797   3.121   6.976   1.636  0.3177  1.2417  1.3998
 1618TIP3    H2 4798   3.060   6.862   1.716  0.3557 -0.3117 -0.6725
 1619TIP3   OH2 4799   3.552   4.433   4.350  0.1682 -0.1976  0.1525
 1619TIP3    H1 4800   3.609   4.383   4.291  3.0532  1.6211  1.1549
 1619TIP3    H2 4801   3.593   4.423   4.436 -0.7860  1.5894  0.8574
 1620TIP3   OH2 4802   5.510   4.999   4.937  0.2140  0.2521  0.9518
 1620TIP3    H1 4803   5.534   4.920   4.986  1.7920  0.9468  1.3891
 1620TIP3    H2 4804   5.578   5.007   4.870 -0.6767  0.5395  0.0650
 1621TIP3   OH2 4805   2.900   0.612   0.786  0.3254 -0.1080  0.0552
 1621TIP3    H1 4806   2.930   0.609   0.695  0.8420 -1.8405  0.2434
 1621TIP3    H2 4807   2.811   0.575   0.783 -0.3278  1.3825  0.0525
 1622TIP3   OH2 4808   2.855   3.968   1.165 -0.2972 -0.4424  0.4158
 1622TIP3    H1 4809   2.780   3.972   1.225 -0.7975  1.1558 -0.2499
 1622TIP3    H2 4810   2.926   3.933   1.218 -0.8294  0.5507  1.8558
 1623TIP3   OH2 4811   4.565   6.559   5.095 -0.3937 -0.2917 -0.2044
 1623TIP3    H1 4812   4.566   6.649   5.063  2.3106 -0.0096  0.4385
 1623TIP3    H2 4813   4.474   6.543   5.120 -0.9483  2.2324 -0.3606
 1624TIP3   OH2 4814   5.167   7.229   1.516 -0.2681  0.1823 -0.2952
 1624TIP3    H1 4815   5.127   7.219   1.603  1.2371 -0.4484  0.3660
 1624TIP3    H2 4816   5.138   7.315   1.486 -1.1653  0.2240  0.6422
 1625TIP3   OH2 4817   7.738   1.652   0.660 -0.1422  0.0073  0.0640
 1625TIP3    H1 4818   7.704   1.587   0.599 -1.1875  0.1427  0.4938
 1625TIP3    H2 4819   7.731   1.735   0.613  0.6185 -0.0932 -0.2497
 1626TIP3   OH2 4820   4.301   0.862   3.791  0.0698 -0.8154  0.5462
 1626TIP3    H1 4821   4.250   0.797   3.839  1.0184 -2.3637 -0.4449
 1626TIP3    H2 4822   4.382   0.817   3.769  1.0270  0.9274  0.3345
 1627TIP3   OH2 4823   1.545   7.019   1.255 -0.0161 -0.1869  0.0883
 1627TIP3    H1 4824   1.541   6.969   1.337 -0.7147 -1.2538 -0.5806
 1627TIP3    H2 4825   1.626   6.990   1.213 -0.9865 -1.6611 -0.8388
 1628TIP3   OH2 4826   2.302   1.663   4.463 -0.0544 -0.2634 -0.3521
 1628TIP3    H1 4827   2.329   1.630   4.549  1.5662 -0.7124 -0.9869
 1628TIP3    H2 4828   2.324   1.592   4.403  0.3125  0.6560 -1.3307
 1629TIP3   OH2 4829   0.520   4.840   0.803  0.6841  0.5882  0.2475
 1629TIP3    H1 4830   0.429   4.865   0.790  0.7491  2.0411  2.1687
 1629TIP3    H2 4831   0.519   4.781   0.878  1.4297  2.0403  1.4735
 1630TIP3   OH2 4832   3.357   6.631   1.452  0.3350  0.3804  0.1211
 1630TIP3    H1 4833   3.282   6.645   1.395  0.3470  0.7248  0.1871
 1630TIP3    H2 4834   3.433   6.659   1.401  0.2062  2.1609  0.8203
 1631TIP3   OH2 4835   5.677   7.599   1.625 -0.0811 -0.1530  0.3903
 1631TIP3    H1 4836   5.688   7.556   1.540 -1.6245 -1.1577  0.6489
 1631TIP3    H2 4837   5.759   7.583   1.670  0.8152  0.5129 -0.9507
 1632TIP3   OH2 4838   6.028   6.313   1.327  0.1622 -0.4435  0.7648
 1632TIP3    H1 4839   6.087   6.272   1.391 -0.8544 -1.4242  1.1232
 1632TIP3    H2 4840   6.010   6.400   1.363  0.0042 -0.7968  1.5788
 1633TIP3   OH2 4841   7.657   1.449   5.379 -0.3336 -0.6099  0.6859
 1633TIP3    H1 4842   7.675   1.482   5.291 -0.8718  1.3555  1.2701
 1633TIP3    H2 4843   7.637   1.357   5.366 -1.2111 -0.1796 -1.3584
 1634TIP3   OH2 4844   0.431   6.915   4.744 -0.3489  0.2637  0.3060
 1634TIP3    H1 4845   0.423   6.894   4.837 -0.6244  1.2359  0.5120
 1634TIP3    H2 4846   0.427   6.830   4.700 -2.4361 -0.0567  1.0183
 1635TIP3   OH2 4847   6.368   7.610   4.173 -0.1739 -0.2017  0.0981
 1635TIP3    H1 4848   6.408   7.538   4.123 -1.1762 -0.0723 -0.9597
 1635TIP3    H2 4849   6.334   7.568   4.252  0.0177 -0.7381 -0.0970
 1636TIP3   OH2 4850   6.956   6.151   4.355  0.3584 -0.3911 -0.4507
 1636TIP3    H1 4851   6.967   6.198   4.272  0.3546  0.9824  0.3013
 1636TIP3    H2 4852   6.863   6.127   4.356  0.3405 -0.3508 -0.8205
 1637TIP3   OH2 4853   7.867   0.008   0.461  0.2402 -0.6328 -0.0922
 1637TIP3    H1 4854   7.905  -0.056   0.401  0.1329  0.5304 -1.4564
 1637TIP3    H2 4855   7.936   0.074   0.472 -0.6192  0.4422 -0.9637
 1638TIP3   OH2 4856   2.871   5.120   5.801  0.1743  0.4674  0.3421
 1638TIP3    H1 4857   2.922   5.176   5.742  0.4776  0.9096  1.0116
 1638TIP3    H2 4858   2.789   5.168   5.814  0.2277  0.5141  0.5119
 1639TIP3   OH2 4859   6.557   6.222   4.691 -0.2186 -0.0233 -0.1316
 1639TIP3    H1 4860   6.533   6.258   4.776 -0.8429 -0.0309 -0.2998
 1639TIP3    H2 4861   6.485   6.248   4.633 -0.8982 -1.8333 -0.1685
 1640TIP3   OH2 4862   3.215   6.777   1.769 -0.0935  0.5005 -0.4504
 1640TIP3    H1 4863   3.266   6.722   1.710  0.9585 -1.2922  1.9327
 1640TIP3    H2 4864   3.163   6.716   1.820  0.0423  1.7882  1.3592
 1641TIP3   OH2 4865   3.222   1.045   1.881  0.4679  1.0417 -0.5061
 1641TIP3    H1 4866   3.137   1.032   1.923  1.1768 -0.6746  0.5218
 1641TIP3    H2 4867   3.280   1.071   1.953  0.8940  1.8331 -1.1270
 1642TIP3   OH2 4868   6.138   3.431   1.551 -0.1795  0.1481  0.4584
 1642TIP3    H1 4869   6.054   3.422   1.595 -0.6741  1.2079 -0.2328
 1642TIP3    H2 4870   6.155   3.525   1.549 -1.0412  0.3797 -3.0813
 1643TIP3   OH2 4871   0.060   4.472   5.678 -0.2149  0.2793  0.4988
 1643TIP3    H1 4872  -0.031   4.451   5.656 -0.1906  0.5653  0.1226
 1643TIP3    H2 4873   0.074   4.560   5.643  1.7874 -1.5956 -4.1940
 1644TIP3   OH2 4874   5.157   4.445   3.369 -0.0878  0.0731 -0.6502
 1644TIP3    H1 4875   5.220   4.373   3.374 -0.9300 -0.5959  2.2391
 1644TIP3    H2 4876   5.205   4.522   3.401  0.0562  0.2204 -1.2084
 1645TIP3   OH2 4877   3.674   1.666   6.656  0.7946  0.2727 -0.1041
 1645TIP3    H1 4878   3.688   1.610   6.580 -1.0112  0.2689 -0.4955
 1645TIP3    H2 4879   3.722   1.623   6.727 -0.2439 -1.6098 -0.4814
 1646TIP3   OH2 4880   7.886   6.388   4.063 -0.0107 -0.2670 -0.3694
 1646TIP3    H1 4881   7.839   6.468   4.042 -0.5739 -0.5703 -0.2879
 1646TIP3    H2 4882   7.973   6.417   4.090 -0.9261  0.5284  1.9629
 1647TIP3   OH2 4883   8.061   5.028   5.727 -0.0080  0.0671  0.5697
 1647TIP3    H1 4884   8.075   5.121   5.743 -1.3136  0.2491  0.7927
 1647TIP3    H2 4885   8.073   4.986   5.812  2.0246 -0.1984  0.2049
 1648TIP3   OH2 4886   7.794   1.637   4.893  0.2924 -0.2170  0.5982
 1648TIP3    H1 4887   7.877   1.674   4.924 -0.8347  1.9903  1.2241
 1648TIP3    H2 4888   7.733   1.711   4.896 -1.5844 -1.6516 -0.3287
 1649TIP3   OH2 4889   7.174   0.601   2.124  0.1281 -0.0422  0.6993
 1649TIP3    H1 4890   7.117   0.672   2.154  0.6647  1.2479 -1.1471
 1649TIP3    H2 4891   7.172   0.537   2.195  0.2994  2.1835  2.8369
 1650TIP3   OH2 4892   7.078   2.170   2.482 -0.4910 -0.0940  0.3353
 1650TIP3    H1 4893   7.004   2.156   2.424 -0.4361 -0.8086  0.4224
 1650TIP3    H2 4894   7.096   2.083   2.519  0.6579 -0.0257 -0.0151
 1651TIP3   OH2 4895   6.082   1.177   0.609  0.7080 -0.0951 -0.0021
 1651TIP3    H1 4896   6.114   1.257   0.650 -0.4649  0.5119 -0.2408
 1651TIP3    H2 4897   6.131   1.107   0.653  3.7813  0.8332 -1.6445
 1652TIP3   OH2 4898   0.619   4.763   0.336  0.0930 -0.2372  0.1155
 1652TIP3    H1 4899   0.672   4.830   0.377  0.1322  0.5413 -1.1570
 1652TIP3    H2 4900   0.550   4.744   0.400  1.0650 -0.2409  1.1876
 1653TIP3   OH2 4901   0.561   7.262   5.202  0.2276 -0.0541  0.2903
 1653TIP3    H1 4902   0.528   7.271   5.291 -2.4038  1.2988 -0.7037
 1653TIP3    H2 4903   0.556   7.351   5.165  0.4768 -0.7087 -1.4440
 1654TIP3   OH2 4904   1.477   6.671   4.709 -1.0950  0.0088 -0.1276
 1654TIP3    H1 4905   1.469   6.766   4.700 -2.0544 -0.0243  0.2690
 1654TIP3    H2 4906   1.565   6.658   4.744 -0.6536  0.6915 -0.9451
 1655TIP3   OH2 4907   6.409   5.930   2.232  0.0600  0.7186  0.0673
 1655TIP3    H1 4908   6.350   5.907   2.304 -1.6459  3.2756 -0.4015
 1655TIP3    H2 4909   6.491   5.885   2.254 -1.3149 -1.0693  1.9573
 1656TIP3   OH2 4910   5.441   0.117   3.212  0.0362 -0.2285 -0.1178
 1656TIP3    H1 4911   5.423   0.148   3.123  0.6181 -1.7156 -0.7826
 1656TIP3    H2 4912   5.404   0.029   3.215  1.0860 -0.6631  0.7182
 1657TIP3   OH2 4913   2.813   7.301   1.300  0.0230 -0.0808 -0.4090
 1657TIP3    H1 4914   2.890   7.279   1.353 -1.6267 -0.2195  2.0747
 1657TIP3    H2 4915   2.795   7.221   1.250  1.0089 -0.3108 -0.4245
 1658TIP3   OH2 4916   3.024   1.707   3.980 -0.6876  0.2777 -0.1078
 1658TIP3    H1 4917   2.960   1.683   3.913 -1.8018 -1.8673  1.6044
 1658TIP3    H2 4918   3.010   1.800   3.994 -1.7003  0.3734 -1.5407
 1659TIP3   OH2 4919   6.977   1.301   6.079 -0.5803  0.4914  0.6578
 1659TIP3    H1 4920   6.898   1.282   6.029  0.1380 -1.4961  0.1585
 1659TIP3    H2 4921   6.996   1.393   6.060 -0.5429 -0.0491 -2.5245
 1660TIP3   OH2 4922   1.714   3.971   2.647 -0.1145  0.0006  0.1518
 1660TIP3    H1 4923   1.721   3.976   2.552 -0.0501 -0.3341  0.1373
 1660TIP3    H2 4924   1.652   4.040   2.671 -1.2683 -0.8654 -0.2647
 1661TIP3   OH2 4925   1.296   7.020   4.267 -0.2097 -0.0499 -0.5469
 1661TIP3    H1 4926   1.304   7.048   4.176 -0.5141  0.8108 -0.3103
 1661TIP3    H2 4927   1.367   6.955   4.278 -0.1149 -0.0935 -1.3610
 1662TIP3   OH2 4928   3.311   6.721   5.575  0.8698 -0.6528 -0.1101
 1662TIP3    H1 4929   3.242   6.665   5.610 -0.6090  0.8812 -0.4363
 1662TIP3    H2 4930   3.316   6.795   5.635  0.5954  0.3832 -1.3115
 1663TIP3   OH2 4931   4.859   4.104   2.431  0.0637 -0.2840 -0.1435
 1663TIP3    H1 4932   4.767   4.120   2.449  0.2816  0.4093  0.4186
 1663TIP3    H2 4933   4.859   4.039   2.361 -0.8852  1.9034 -2.3010
 1664TIP3   OH2 4934   2.078   0.353   1.864 -0.1046  0.2888  0.2351
 1664TIP3    H1 4935   2.079   0.279   1.925  0.1847  0.0698 -0.0299
 1664TIP3    H2 4936   1.985   0.370   1.849 -0.2126 -1.2232 -1.1079
 1665TIP3   OH2 4937   3.686   1.108   1.150 -0.0409 -0.3537  0.0621
 1665TIP3    H1 4938   3.672   1.030   1.097 -0.9660 -0.8901  1.0644
 1665TIP3    H2 4939   3.730   1.169   1.091 -1.1179 -0.8856 -1.3412
 1666TIP3   OH2 4940   1.993   4.904   5.725 -0.3938  0.2832 -0.5764
 1666TIP3    H1 4941   1.978   4.975   5.788 -1.1804  0.7084 -1.2261
 1666TIP3    H2 4942   1.990   4.947   5.640 -1.5059 -0.6322 -1.0207
 1667TIP3   OH2 4943   5.731   0.883   1.269  0.1702 -0.2005  0.3419
 1667TIP3    H1 4944   5.715   0.940   1.345  0.5206  1.7836 -0.9876
 1667TIP3    H2 4945   5.643   0.858   1.239 -0.0340  0.3122  0.4903
 1668TIP3   OH2 4946   5.042   7.718   1.580  0.0221 -0.0131 -0.3132
 1668TIP3    H1 4947   4.977   7.727   1.510 -0.1269 -2.9615 -0.6792
 1668TIP3    H2 4948   5.124   7.747   1.541 -0.5411  0.9042 -0.8310
 1669TIP3   OH2 4949   0.780   1.303   4.780 -0.1404 -0.0417  0.3496
 1669TIP3    H1 4950   0.813   1.317   4.869 -0.6173 -0.4419  0.5961
 1669TIP3    H2 4951   0.858   1.306   4.724  0.1649  0.1805  0.7853
 1670TIP3   OH2 4952   6.558   5.369   3.289  0.2438  0.5338 -0.3197
 1670TIP3    H1 4953   6.468   5.388   3.260  0.1339 -0.6230 -0.8009
 1670TIP3    H2 4954   6.590   5.305   3.226  0.6937 -0.5849  1.0096
 1671TIP3   OH2 4955   0.934   1.970   4.688 -0.0065  0.3205  0.5509
 1671TIP3    H1 4956   0.899   1.901   4.743  0.2239 -0.5717 -0.3943
 1671TIP3    H2 4957   0.909   1.945   4.599 -2.3569  2.8533  0.3606
 1672TIP3   OH2 4958   2.716   7.807   6.391 -0.1129 -0.1104 -0.3613
 1672TIP3    H1 4959   2.726   7.714   6.409 -0.2938 -0.3164 -1.2375
 1672TIP3    H2 4960   2.621   7.821   6.384 -0.2643  0.6507  2.1424
 1673TIP3   OH2 4961   1.396   5.966   5.365 -0.0879 -0.3839 -0.4744
 1673TIP3    H1 4962   1.409   6.060   5.360 -3.3790  0.1560 -1.6933
 1673TIP3    H2 4963   1.463   5.929   5.308  0.6916  1.2722 -0.6931
 1674TIP3   OH2 4964   6.658   0.995   0.264 -0.0414 -0.3809  0.8957
 1674TIP3    H1 4965   6.627   1.078   0.300 -1.3633 -1.0023  1.2680
 1674TIP3    H2 4966   6.580   0.939   0.264  0.7267 -1.4831  0.2496
 1675TIP3   OH2 4967   7.703   0.747   2.409 -0.4925 -0.2371 -0.0393
 1675TIP3    H1 4968   7.620   0.712   2.378 -1.0814  0.2147  0.9954
 1675TIP3    H2 4969   7.700   0.738   2.504  0.1916  0.7520  0.0956
 1676TIP3   OH2 4970   3.542   1.294   5.578  0.1873  0.2018 -0.0651
 1676TIP3    H1 4971   3.461   1.250   5.603  1.4567 -2.0847  0.2807
 1676TIP3    H2 4972   3.522   1.387   5.586 -1.4636 -0.2926  3.2639
 1677TIP3   OH2 4973   5.937   7.562   2.287 -0.0840 -0.1848  0.4125
 1677TIP3    H1 4974   5.936   7.556   2.191  0.7809 -2.1159  0.4838
 1677TIP3    H2 4975   5.844   7.567   2.311 -0.2737  2.2080 -0.5638
 1678TIP3   OH2 4976   5.068   2.173   1.678  0.3174  0.1476 -0.1254
 1678TIP3    H1 4977   5.026   2.235   1.738  1.2596  0.8860 -0.2043
 1678TIP3    H2 4978   5.145   2.143   1.726  1.1993  0.9009 -1.0183
 1679TIP3   OH2 4979   5.130   7.178   4.406 -0.1566 -0.0377  0.1309
 1679TIP3    H1 4980   5.104   7.231   4.482 -2.8115 -0.0378 -0.7065
 1679TIP3    H2 4981   5.054   7.179   4.348  0.5720 -2.7701 -1.0394
 1680TIP3   OH2 4982   3.568   4.986   6.408  0.0605  0.3727  0.2164
 1680TIP3    H1 4983   3.483   4.989   6.364 -0.2885 -0.2757  0.8226
 1680TIP3    H2 4984   3.625   5.040   6.354 -0.5131  0.0987 -0.6788
 1681TIP3   OH2 4985   0.041   5.893   5.136 -0.3693 -0.1221 -0.9376
 1681TIP3    H1 4986   0.117   5.919   5.189 -1.7178  1.8395  0.1412
 1681TIP3    H2 4987   0.053   5.938   5.053 -1.5375  2.2839  0.1175
 1682TIP3   OH2 4988   7.302   6.423   1.173  0.5084 -0.0396 -0.0706
 1682TIP3    H1 4989   7.272   6.484   1.241  1.0992  1.0440 -0.7544
 1682TIP3    H2 4990   7.313   6.340   1.219 -0.1398  0.4018  0.9321
 1683TIP3   OH2 4991   4.736   3.626   5.112 -0.1773  0.1844 -0.2274
 1683TIP3    H1 4992   4.665   3.563   5.107  0.3295 -0.4336  0.2361
 1683TIP3    H2 4993   4.702   3.696   5.167 -0.6496  0.1971 -0.5307
 1684TIP3   OH2 4994   5.201   6.937   0.850 -0.0784 -0.4001  0.3445
 1684TIP3    H1 4995   5.220   6.972   0.937  0.6936  0.8924 -0.3129
 1684TIP3    H2 4996   5.252   6.992   0.791 -0.0719 -1.6740 -0.8825
 1685TIP3   OH2 4997   2.370   7.789   5.451 -0.2461  0.5134  0.3390
 1685TIP3    H1 4998   2.380   7.694   5.446 -1.7201  0.2106  2.2326
 1685TIP3    H2 4999   2.418   7.821   5.374  1.5594 -1.6370  0.4451
 1686TIP3   OH2 5000   4.576   2.599   2.400 -0.3913  0.1389  0.3535
 1686TIP3    H1 5001   4.588   2.505   2.412 -2.3185  0.0263  2.1445
 1686TIP3    H2 5002   4.645   2.639   2.453  0.8013 -0.2079 -0.8813
 1687TIP3   OH2 5003   0.306   4.588   6.029 -0.4787  0.2239 -0.1783
 1687TIP3    H1 5004   0.307   4.534   5.950  2.2516 -0.0070 -0.0646
 1687TIP3    H2 5005   0.363   4.543   6.090 -0.1462  1.9357  0.8495
 1688TIP3   OH2 5006   5.565   0.550   2.657  0.5534  0.0672 -0.2061
 1688TIP3    H1 5007   5.606   0.464   2.671  0.2287 -0.3155 -1.5236
 1688TIP3    H2 5008   5.614   0.609   2.716  0.4246 -1.0914  1.1284
 1689TIP3   OH2 5009   0.655   4.465   2.703  0.4913 -0.1608 -0.0352
 1689TIP3    H1 5010   0.570   4.431   2.675  0.2466  0.6316 -0.2852
 1689TIP3    H2 5011   0.634   4.524   2.776  0.8890 -0.4109  0.2883
 1690TIP3   OH2 5012   2.686   4.750   1.985 -0.0327  0.3525 -0.2192
 1690TIP3    H1 5013   2.745   4.676   1.972 -1.3212 -0.5020 -1.4151
 1690TIP3    H2 5014   2.683   4.794   1.900 -2.2579 -0.5224 -0.6534
 1691TIP3   OH2 5015   1.986   7.450   0.011 -0.1023 -0.2978  0.3132
 1691TIP3    H1 5016   1.956   7.473   0.099 -1.7325 -2.9142  0.5438
 1691TIP3    H2 5017   1.920   7.389  -0.022  1.4677 -0.8919 -1.9789
 1692TIP3   OH2 5018   1.637   5.235   0.281 -0.7399 -0.4452 -0.1339
 1692TIP3    H1 5019   1.719   5.227   0.329  0.5737 -2.6208 -2.4751
 1692TIP3    H2 5020   1.571   5.195   0.338  0.2149 -0.5603  0.9229
 1693TIP3   OH2 5021   6.247   0.178   5.091 -0.2374 -0.2277 -0.4736
 1693TIP3    H1 5022   6.341   0.198   5.087  0.3860 -2.4627  0.7596
 1693TIP3    H2 5023   6.215   0.230   5.165  0.3211 -0.3559 -0.1287
 1694TIP3   OH2 5024   7.049   5.663   1.139  0.6805 -0.2834 -1.0714
 1694TIP3    H1 5025   6.997   5.738   1.168  0.7216 -0.6315 -0.0537
 1694TIP3    H2 5026   7.056   5.608   1.217  1.2364 -1.0072 -1.6266
 1695TIP3   OH2 5027   8.135   3.242   1.759  0.3211  0.1605 -0.1159
 1695TIP3    H1 5028   8.144   3.184   1.683 -0.2931  0.0849 -0.1298
 1695TIP3    H2 5029   8.067   3.304   1.735  1.2765  1.1897 -0.2779
 1696TIP3   OH2 5030   7.771   3.203   6.072  0.1940 -0.0728 -0.2512
 1696TIP3    H1 5031   7.825   3.211   6.150 -1.0281  1.0829  0.5238
 1696TIP3    H2 5032   7.750   3.293   6.048 -0.5134 -0.4602 -1.1574
 1697TIP3   OH2 5033   1.589   6.020   3.559 -0.2294  0.0858 -0.7090
 1697TIP3    H1 5034   1.559   5.936   3.594 -0.5194  0.8854  1.0633
 1697TIP3    H2 5035   1.549   6.024   3.472 -0.0307 -1.6894 -0.9265
 1698TIP3   OH2 5036   1.484   0.017   4.345  0.1387  0.2401  0.3906
 1698TIP3    H1 5037   1.463  -0.048   4.278 -1.0855  0.6086  0.3846
 1698TIP3    H2 5038   1.468   0.102   4.303  0.2181  0.5025  0.8709
 1699TIP3   OH2 5039   3.950   3.074   4.076  0.1588  0.0022  0.2087
 1699TIP3    H1 5040   3.921   3.057   4.166  0.9891  0.3762  0.5562
 1699TIP3    H2 5041   3.874   3.114   4.034 -0.4196 -0.6826  0.5780
 1700TIP3   OH2 5042   5.478   7.658   4.325 -0.0961 -0.1991  0.1450
 1700TIP3    H1 5043   5.440   7.697   4.246 -2.0739 -0.7178  0.7926
 1700TIP3    H2 5044   5.487   7.566   4.303  0.7929 -0.0904  0.0184
 1701TIP3   OH2 5045   1.666   4.908   4.142 -0.6367  0.0567 -0.2618
 1701TIP3    H1 5046   1.726   4.963   4.191  1.1119 -2.7775  1.0006
 1701TIP3    H2 5047   1.579   4.933   4.174  0.1001  1.5767  0.6968
 1702TIP3   OH2 5048   1.563   6.424   6.054 -0.7935 -0.5927 -0.3855
 1702TIP3    H1 5049   1.510   6.441   5.976 -2.0855  1.3422  0.8216
 1702TIP3    H2 5050   1.602   6.509   6.075 -0.7185 -0.9930  1.2396
 1703TIP3   OH2 5051   5.717   5.174   5.006  0.2119 -0.8376 -0.3701
 1703TIP3    H1 5052   5.718   5.245   5.071  0.9438 -0.7793 -0.4378
 1703TIP3    H2 5053   5.639   5.192   4.953  0.7215  0.3002 -0.7827
 1704TIP3   OH2 5054   6.253   3.435   0.716  0.3750 -0.1942  0.0893
 1704TIP3    H1 5055   6.169   3.420   0.672 -0.4057 -0.0863  1.4939
 1704TIP3    H2 5056   6.244   3.391   0.801  2.7321 -2.4945 -0.7171
 1705TIP3   OH2 5057   2.491   7.394   6.649 -0.7555  0.1802  0.5169
 1705TIP3    H1 5058   2.523   7.308   6.677 -0.4741 -0.1328 -0.6867
 1705TIP3    H2 5059   2.571   7.443   6.628 -0.9384  0.5524  0.6814
 1706TIP3   OH2 5060   0.283   4.202   2.932 -0.4109 -0.3638 -0.3915
 1706TIP3    H1 5061   0.214   4.238   2.989 -1.5244 -1.0390 -1.2735
 1706TIP3    H2 5062   0.355   4.264   2.941 -1.2449  0.5564  0.3122
 1707TIP3   OH2 5063   0.734   7.544   0.068 -0.3306  0.2183  0.0020
 1707TIP3    H1 5064   0.733   7.546   0.164  2.8255 -0.0185  0.1477
 1707TIP3    H2 5065   0.733   7.451   0.046 -0.3806  0.2542 -0.1502
 1708TIP3   OH2 5066   0.765   7.609   0.338  0.8801 -0.1900 -0.2292
 1708TIP3    H1 5067   0.859   7.628   0.337  0.9506 -0.5074  0.1335
 1708TIP3    H2 5068   0.724   7.690   0.368  0.8386  0.7366 -2.5570
 1709TIP3   OH2 5069   8.059   6.774   4.776  0.5763 -0.3454 -0.1031
 1709TIP3    H1 5070   8.147   6.765   4.738  0.6354  0.7165 -0.2411
 1709TIP3    H2 5071   8.002   6.791   4.701  0.4725  0.3522  0.1291
 1710TIP3   OH2 5072   2.763   7.527   1.146 -0.4941 -0.1709  0.6883
 1710TIP3    H1 5073   2.778   7.443   1.190  0.1499  0.3851  1.5714
 1710TIP3    H2 5074   2.717   7.580   1.212  0.2898  0.6074  0.6186
 1711TIP3   OH2 5075   1.436   2.554   1.461  0.9582  0.3708  0.3352
 1711TIP3    H1 5076   1.379   2.525   1.390  2.2692 -1.9762  0.1478
 1711TIP3    H2 5077   1.378   2.564   1.537 -0.0790  0.6398 -0.4749
 1712TIP3   OH2 5078   7.562   3.475   2.957 -0.0080 -0.3481 -0.2811
 1712TIP3    H1 5079   7.561   3.518   3.042 -0.3404 -0.7928 -0.0605
 1712TIP3    H2 5080   7.653   3.446   2.946 -0.0736 -0.7237  0.1414
 1713TIP3   OH2 5081   3.265   6.301   2.842  0.6337 -0.4687 -0.1297
 1713TIP3    H1 5082   3.275   6.392   2.868  2.2603 -0.1752 -1.5907
 1713TIP3    H2 5083   3.188   6.300   2.785  1.5410  0.3411 -1.4195
 1714TIP3   OH2 5084   7.552   3.885   0.357 -0.2000  0.4424 -0.0501
 1714TIP3    H1 5085   7.546   3.880   0.262 -3.8793 -0.0638  0.0552
 1714TIP3    H2 5086   7.569   3.795   0.385  1.7260  0.7285 -0.1930
 1715TIP3   OH2 5087   5.545   2.972   6.524  0.0274  0.4075 -0.1696
 1715TIP3    H1 5088   5.513   2.906   6.463  1.4290  0.1574 -0.6753
 1715TIP3    H2 5089   5.524   2.937   6.610 -3.1811  1.3697 -0.4378
 1716TIP3   OH2 5090   7.352   3.418   0.031 -0.3680 -0.4753  0.6816
 1716TIP3    H1 5091   7.409   3.383   0.099 -0.6034  0.6270  1.4671
 1716TIP3    H2 5092   7.271   3.368   0.040 -0.1071 -0.9128  0.6459
 1717TIP3   OH2 5093   3.357   0.234   5.281  0.0605 -0.0913  0.0048
 1717TIP3    H1 5094   3.434   0.180   5.300  0.3411 -0.1627 -1.2582
 1717TIP3    H2 5095   3.322   0.197   5.200 -0.3862  0.9269 -0.2708
 1718TIP3   OH2 5096   3.095   7.393   1.858 -0.1523 -0.2031 -0.0233
 1718TIP3    H1 5097   3.028   7.399   1.790  0.7045  0.0962 -0.8712
 1718TIP3    H2 5098   3.076   7.466   1.917 -0.4402  0.0129 -0.3790
 1719TIP3   OH2 5099   4.619   6.332   3.872 -0.5330  0.0964 -0.7388
 1719TIP3    H1 5100   4.604   6.297   3.960  1.6688 -0.9279 -0.6837
 1719TIP3    H2 5101   4.532   6.349   3.837 -1.5250 -1.0163  1.0438
 1720TIP3   OH2 5102   3.622   1.133   0.650  0.0812  0.5151 -0.1892
 1720TIP3    H1 5103   3.562   1.163   0.582  1.8813  1.6394 -1.3531
 1720TIP3    H2 5104   3.573   1.144   0.732 -2.0360 -0.6265 -1.2232
 1721TIP3   OH2 5105   6.999   4.300   6.217  0.7281 -0.1440 -0.6225
 1721TIP3    H1 5106   6.938   4.227   6.229 -0.9520  1.4246  1.0409
 1721TIP3    H2 5107   7.068   4.285   6.281 -1.0583  1.0375  1.7537
 1722TIP3   OH2 5108   3.939   0.196   3.177 -0.8590 -0.1100 -0.2311
 1722TIP3    H1 5109   3.871   0.143   3.135 -0.6907  0.3722 -1.1301
 1722TIP3    H2 5110   4.018   0.142   3.171 -1.3079 -1.0330  1.5639
 1723TIP3   OH2 5111   0.060   2.237   2.414 -0.2049  0.1251 -0.0975
 1723TIP3    H1 5112   0.153   2.224   2.398 -0.1959 -0.6435  0.5501
 1723TIP3    H2 5113   0.031   2.156   2.456 -1.3112  0.0755 -0.9096
 1724TIP3   OH2 5114   6.392   7.608   4.471  0.2725 -0.1570  0.2729
 1724TIP3    H1 5115   6.384   7.513   4.456 -0.4093 -0.5086  2.4888
 1724TIP3    H2 5116   6.365   7.620   4.562 -1.1181  2.3889 -0.3811
 1725TIP3   OH2 5117   5.578   4.789   3.809  0.4007 -0.0355  0.1346
 1725TIP3    H1 5118   5.521   4.735   3.754  0.0236  0.9798 -0.4773
 1725TIP3    H2 5119   5.587   4.872   3.762  0.3020  0.7561  1.4659
 1726TIP3   OH2 5120   6.606   6.390   5.884 -0.2313  0.0770 -0.1146
 1726TIP3    H1 5121   6.686   6.438   5.908  0.7411 -0.8885 -1.2875
 1726TIP3    H2 5122   6.537   6.456   5.888  1.0328  1.5819 -1.4943
 1727TIP3   OH2 5123   6.192   2.153   0.180 -0.1790  0.2117  0.1813
 1727TIP3    H1 5124   6.158   2.241   0.194 -3.0604 -1.0025  1.5088
 1727TIP3    H2 5125   6.265   2.146   0.241  1.8160  2.4234 -1.7377
 1728TIP3   OH2 5126   7.048   7.580   2.942  0.1916  0.2267  0.3517
 1728TIP3    H1 5127   6.974   7.626   2.903  1.1409  1.4207 -0.1213
 1728TIP3    H2 5128   7.101   7.649   2.982  0.8241 -0.6479  1.0883
 1729TIP3   OH2 5129   3.857   3.047   0.998  0.1761 -0.1963 -0.2524
 1729TIP3    H1 5130   3.790   3.112   1.019 -0.5389 -0.2452 -2.2229
 1729TIP3    H2 5131   3.889   3.018   1.084 -0.3206  1.8508  0.6951
 1730TIP3   OH2 5132   0.682   0.818   0.551  0.1309 -0.3403 -0.0195
 1730TIP3    H1 5133   0.705   0.743   0.606  0.6504  0.3754  0.7724
 1730TIP3    H2 5134   0.588   0.827   0.561  0.3280  0.3789  1.5950
 1731TIP3   OH2 5135   6.201   6.975   6.282  0.3363  0.4389  0.3488
 1731TIP3    H1 5136   6.225   6.954   6.192 -0.3701  1.4038 -0.0872
 1731TIP3    H2 5137   6.158   6.896   6.315 -0.0051  0.3088 -0.3911
 1732TIP3   OH2 5138   0.508   4.514   1.217  0.1431 -0.4156 -0.3472
 1732TIP3    H1 5139   0.458   4.509   1.298  2.2205  0.9306  1.1138
 1732TIP3    H2 5140   0.565   4.437   1.219 -0.1721 -0.6744 -0.8479
 1733TIP3   OH2 5141   7.096   4.071   1.167  0.5302  0.2020  0.0834
 1733TIP3    H1 5142   7.182   4.030   1.157  0.5379  0.5904 -1.9084
 1733TIP3    H2 5143   7.035   4.008   1.128 -0.3306 -0.6393  2.5673
 1734TIP3   OH2 5144   0.588   4.220   5.266 -0.3228  0.2398  0.2956
 1734TIP3    H1 5145   0.506   4.231   5.315 -0.8849  1.8113 -0.9138
 1734TIP3    H2 5146   0.591   4.127   5.244 -1.7192  0.1339  0.4792
 1735TIP3   OH2 5147   0.169   7.197   5.602 -0.4661  0.1453 -0.1152
 1735TIP3    H1 5148   0.109   7.128   5.573 -1.2293  1.5827 -2.2069
 1735TIP3    H2 5149   0.232   7.206   5.530  0.4637  0.6988  0.7346
 1736TIP3   OH2 5150   6.479   6.645   5.561 -0.2393 -0.1860  0.0853
 1736TIP3    H1 5151   6.400   6.681   5.521  0.0828 -0.1308 -0.5106
 1736TIP3    H2 5152   6.550   6.676   5.506  0.1344 -0.8883  0.1587
 1737TIP3   OH2 5153   3.166   2.807   6.431  0.6552  0.0331 -0.3891
 1737TIP3    H1 5154   3.101   2.861   6.386 -0.8763 -1.9049 -0.6357
 1737TIP3    H2 5155   3.250   2.848   6.410 -0.4123  2.4546 -0.3111
 1738TIP3   OH2 5156   6.286   0.540   3.971 -0.6432 -0.2906 -0.1832
 1738TIP3    H1 5157   6.198   0.522   3.936 -0.6061  0.5016 -0.7170
 1738TIP3    H2 5158   6.269   0.575   4.058 -0.7331 -2.3317  0.6726
 1739TIP3   OH2 5159   0.783   7.252   0.129 -0.3104  0.2247 -0.2349
 1739TIP3    H1 5160   0.838   7.196   0.075 -0.6958 -0.0815 -0.3123
 1739TIP3    H2 5161   0.832   7.262   0.211  2.3343  4.1034 -1.9943
 1740TIP3   OH2 5162   3.696   2.874   3.741 -0.5837  0.5574  0.3057
 1740TIP3    H1 5163   3.639   2.799   3.723  0.4057 -0.0139 -0.5298
 1740TIP3    H2 5164   3.755   2.844   3.810 -0.7926  0.8931  0.6348
 1741TIP3   OH2 5165   3.740   5.223   5.382  0.1783  0.7995 -0.2224
 1741TIP3    H1 5166   3.696   5.268   5.453  1.3169  3.5343 -1.1356
 1741TIP3    H2 5167   3.833   5.235   5.400  0.6409 -2.4955  0.2105
 1742TIP3   OH2 5168   5.808   2.303   6.365  0.0047 -0.3477  0.2010
 1742TIP3    H1 5169   5.798   2.389   6.404  0.8779  0.0452 -0.3997
 1742TIP3    H2 5170   5.749   2.302   6.290  0.4480 -0.0378 -0.1559
 1743TIP3   OH2 5171   4.576   0.036   1.926 -0.2569  0.2832  0.1479
 1743TIP3    H1 5172   4.611  -0.053   1.922  0.2655  0.4078  1.4080
 1743TIP3    H2 5173   4.482   0.024   1.942 -0.0005 -0.0693  1.5581
 1744TIP3   OH2 5174   5.018   0.128   4.303 -0.4984  0.0020 -0.3374
 1744TIP3    H1 5175   4.941   0.156   4.352  0.1862 -1.9385  2.0416
 1744TIP3    H2 5176   5.087   0.189   4.329 -0.1142 -1.0743  1.3174
 1745TIP3   OH2 5177   0.456   5.628   0.859 -0.4427  0.9425 -0.0502
 1745TIP3    H1 5178   0.497   5.620   0.945  1.6689 -1.1911 -1.1394
 1745TIP3    H2 5179   0.495   5.707   0.821  0.8468  0.2883 -0.1277
 1746TIP3   OH2 5180   3.505   5.664   2.310 -0.4330  0.0156 -0.3379
 1746TIP3    H1 5181   3.520   5.592   2.248 -1.1906  1.1766 -1.9428
 1746TIP3    H2 5182   3.570   5.730   2.285 -1.1758  0.7571 -0.3396
 1747TIP3   OH2 5183   3.531   7.633   0.524  0.3301  0.3127 -0.8155
 1747TIP3    H1 5184   3.565   7.722   0.527  0.7135  0.1704 -0.9044
 1747TIP3    H2 5185   3.436   7.644   0.526  0.3065  0.6253  2.4252
 1748TIP3   OH2 5186   6.127   1.960   4.706  0.1217  0.4091 -0.1099
 1748TIP3    H1 5187   6.045   1.952   4.656  2.2916  1.1023 -4.1972
 1748TIP3    H2 5188   6.168   2.040   4.672  2.0016  0.8321  2.7609
 1749TIP3   OH2 5189   3.429   2.891   3.915 -0.2427  0.1712 -0.9404
 1749TIP3    H1 5190   3.511   2.923   3.878 -0.8633  2.4664 -0.4899
 1749TIP3    H2 5191   3.420   2.801   3.881  1.6879  0.4031 -2.1890
 1750TIP3   OH2 5192   4.185   1.855   5.063 -0.0979 -0.4493  0.2664
 1750TIP3    H1 5193   4.193   1.944   5.099 -3.1790 -0.5779  1.5606
 1750TIP3    H2 5194   4.254   1.806   5.107  0.8686  1.0281  0.4871
 1751TIP3   OH2 5195   0.344   1.658   4.929 -0.1160 -0.2347  0.8571
 1751TIP3    H1 5196   0.346   1.743   4.886 -0.5707 -0.8524 -0.4340
 1751TIP3    H2 5197   0.254   1.626   4.915 -1.0089  0.4620  4.1713
 1752TIP3   OH2 5198   1.540   0.999   3.885  0.4642 -0.2903 -0.1449
 1752TIP3    H1 5199   1.512   0.917   3.844  0.7250 -1.0147  1.0789
 1752TIP3    H2 5200   1.469   1.021   3.945  0.1549  0.6794 -0.8422
 1753TIP3   OH2 5201   6.361   6.519   5.213 -0.5046  0.2833  0.1833
 1753TIP3    H1 5202   6.323   6.580   5.276 -0.5587 -0.2787  0.6978
 1753TIP3    H2 5203   6.321   6.434   5.233  1.4366 -0.4577  1.1479
 1754TIP3   OH2 5204   1.678   5.353   0.565 -0.4784  0.3665 -0.0465
 1754TIP3    H1 5205   1.714   5.353   0.654  0.6183  0.8126 -0.4739
 1754TIP3    H2 5206   1.753   5.336   0.509 -1.5462 -2.5407 -0.7895
 1755TIP3   OH2 5207   3.335   5.218   4.210 -0.0273 -0.3489  0.0180
 1755TIP3    H1 5208   3.397   5.225   4.282 -1.8501 -0.5910  1.7053
 1755TIP3    H2 5209   3.378   5.263   4.137  1.5499  0.6563  1.4876
 1756TIP3   OH2 5210   1.722   0.314   6.665  0.0293 -0.3235  0.1328
 1756TIP3    H1 5211   1.722   0.319   6.761  1.5218 -1.8402  0.2573
 1756TIP3    H2 5212   1.765   0.231   6.645 -0.4965 -0.1739 -1.8635
 1757TIP3   OH2 5213   2.399   6.306   1.011  0.6750 -0.1772 -0.3105
 1757TIP3    H1 5214   2.315   6.261   1.009  1.3081 -1.3887 -0.6474
 1757TIP3    H2 5215   2.384   6.383   1.066 -0.8831  0.1453 -1.1418
 1758TIP3   OH2 5216   4.532   7.139   1.011 -0.2799  0.3368  0.0567
 1758TIP3    H1 5217   4.572   7.223   1.035  1.0506 -0.4229  0.6378
 1758TIP3    H2 5218   4.607   7.082   0.994 -1.1609 -0.8373  0.0628
 1759TIP3   OH2 5219   4.582   4.585   1.726 -0.5074 -0.2681 -0.3538
 1759TIP3    H1 5220   4.519   4.657   1.735  0.4437  0.9025 -2.2948
 1759TIP3    H2 5221   4.580   4.563   1.633  0.7329 -1.3560 -0.1488
 1760TIP3   OH2 5222   4.170   2.905   5.878  0.3778  0.4539  0.0624
 1760TIP3    H1 5223   4.145   2.997   5.868  2.1603  0.8322 -1.4994
 1760TIP3    H2 5224   4.189   2.875   5.789 -1.2836 -1.8154  0.3887
 1761TIP3   OH2 5225   0.756   4.744   4.829 -0.3099  0.1469  0.5996
 1761TIP3    H1 5226   0.735   4.770   4.919  0.4407 -0.2424  0.8931
 1761TIP3    H2 5227   0.845   4.709   4.834 -1.4258 -3.0458  0.3650
 1762TIP3   OH2 5228   7.285   5.910   4.411  0.0708  0.1359  0.4205
 1762TIP3    H1 5229   7.358   5.970   4.426  1.7156 -1.5340 -0.3718
 1762TIP3    H2 5230   7.279   5.903   4.315 -0.6663 -0.2795  0.4848
 1763TIP3   OH2 5231   4.893   3.198   0.541  0.4114 -0.3604  0.1075
 1763TIP3    H1 5232   4.885   3.103   0.552 -0.3591 -0.2309  0.8000
 1763TIP3    H2 5233   4.803   3.230   0.550  0.4968  0.3373 -1.2486
 1764TIP3   OH2 5234   0.958   6.242   6.720 -0.6254  0.3443 -0.2726
 1764TIP3    H1 5235   1.006   6.321   6.692 -1.5126  0.7166 -0.7873
 1764TIP3    H2 5236   0.958   6.248   6.816  0.9467 -0.0386 -0.2135
 1765TIP3   OH2 5237   0.357   1.714   5.620  0.2305  0.1899 -0.2703
 1765TIP3    H1 5238   0.448   1.737   5.601  1.3474 -2.5058  1.3391
 1765TIP3    H2 5239   0.334   1.765   5.698 -0.0428  1.6064 -1.2322
 1766TIP3   OH2 5240   2.943   5.007   3.999  0.1224  0.3201 -0.5973
 1766TIP3    H1 5241   2.904   5.088   4.032 -1.8759 -1.5987  2.2188
 1766TIP3    H2 5242   3.027   5.000   4.046  0.7471  1.1510 -1.5517
 1767TIP3   OH2 5243   7.801   3.329   2.247  0.2339 -0.0219  0.1827
 1767TIP3    H1 5244   7.731   3.273   2.279  0.0548  0.4485  0.6341
 1767TIP3    H2 5245   7.756   3.403   2.207  0.4706  0.4121  0.7085
 1768TIP3   OH2 5246   3.021   5.417   4.470 -0.4082  0.6090 -0.4736
 1768TIP3    H1 5247   3.043   5.438   4.379  0.7431  0.1350 -0.3100
 1768TIP3    H2 5248   3.015   5.502   4.513  0.9446  0.7697 -0.5675
 1769TIP3   OH2 5249   2.864   2.938   0.303  0.5533  0.2759  0.9317
 1769TIP3    H1 5250   2.889   2.889   0.381  0.0322 -1.0996  0.2616
 1769TIP3    H2 5251   2.768   2.934   0.302  0.5369  0.6762  0.4660
 1770TIP3   OH2 5252   4.017   5.247  -0.018 -0.3337  0.5211  0.5018
 1770TIP3    H1 5253   3.966   5.258   0.063  2.2762 -1.1193  2.5526
 1770TIP3    H2 5254   4.095   5.300  -0.004  0.1552  0.2515 -1.0072
 1771TIP3   OH2 5255   4.416   6.365   4.805  0.4650 -0.0155 -0.4083
 1771TIP3    H1 5256   4.392   6.450   4.767  2.5333  0.3150 -1.0811
 1771TIP3    H2 5257   4.500   6.381   4.849 -0.5251 -1.0357  2.0557
 1772TIP3   OH2 5258   8.235   7.672   5.058 -0.0622  0.3580  0.6052
 1772TIP3    H1 5259   8.165   7.626   5.010 -1.6077  1.4810  1.6741
 1772TIP3    H2 5260   8.188   7.728   5.119  1.8289  0.5136  1.9794
 1773TIP3   OH2 5261   2.583   4.598   4.182 -0.5373  0.1403  0.0232
 1773TIP3    H1 5262   2.671   4.635   4.191 -0.7351  0.5965  0.1310
 1773TIP3    H2 5263   2.559   4.614   4.091 -0.2937 -0.4797 -0.1549
 1774TIP3   OH2 5264   5.939   3.309   1.684 -0.6868  0.6540 -0.1721
 1774TIP3    H1 5265   5.897   3.225   1.705 -0.0085 -0.0675 -1.5208
 1774TIP3    H2 5266   5.990   3.330   1.762 -1.3731  0.1505  0.4307
 1775TIP3   OH2 5267   3.544   2.587   5.381 -0.6965 -0.9863 -0.0778
 1775TIP3    H1 5268   3.532   2.679   5.355  0.9371 -1.7091 -4.2541
 1775TIP3    H2 5269   3.599   2.591   5.459 -0.8132  1.5965 -0.0461
 1776TIP3   OH2 5270   6.910   2.792   1.352  0.4234 -0.1737 -0.0519
 1776TIP3    H1 5271   6.941   2.708   1.385  0.7723 -0.0065  0.0473
 1776TIP3    H2 5272   6.858   2.829   1.424  0.9656  0.0723  0.2165
 1777TIP3   OH2 5273   3.619   0.464   1.524 -0.6752 -0.2299  0.0889
 1777TIP3    H1 5274   3.617   0.433   1.615 -0.7921  0.6864  0.4075
 1777TIP3    H2 5275   3.692   0.526   1.522 -2.2305  1.6574  0.2019
 1778TIP3   OH2 5276   7.359   3.212   3.280 -0.4879 -0.0646 -0.3430
 1778TIP3    H1 5277   7.294   3.151   3.315 -0.5872  0.6182  0.6972
 1778TIP3    H2 5278   7.393   3.168   3.202  0.7038 -2.2827  1.2847
 1779TIP3   OH2 5279   1.406   3.343   5.703 -0.2237  0.1999 -0.1971
 1779TIP3    H1 5280   1.373   3.278   5.641  0.0071  1.5294 -1.7598
 1779TIP3    H2 5281   1.418   3.423   5.651  0.8721  1.0995  1.3573
 1780TIP3   OH2 5282   1.482   3.050   5.444 -0.2456 -0.4406  0.2293
 1780TIP3    H1 5283   1.529   3.127   5.410 -0.4857 -1.7900 -3.5661
 1780TIP3    H2 5284   1.407   3.087   5.491  1.2779  1.6404  1.1989
 1781TIP3   OH2 5285   0.631   3.736   3.870  0.1966 -0.0773 -0.2666
 1781TIP3    H1 5286   0.596   3.647   3.869 -2.6248  0.9228 -1.6604
 1781TIP3    H2 5287   0.692   3.739   3.796  1.0856 -1.0718  0.4000
 1782TIP3   OH2 5288   2.115   2.228   4.923 -0.3372 -0.0634  0.0695
 1782TIP3    H1 5289   2.086   2.319   4.918 -0.3240 -0.1178 -1.6120
 1782TIP3    H2 5290   2.192   2.231   4.980  2.1596  1.7444 -3.0322
 1783TIP3   OH2 5291   0.128   7.715   1.558 -0.5895  0.1880 -0.7915
 1783TIP3    H1 5292   0.161   7.713   1.648  0.8341 -0.7513 -1.3084
 1783TIP3    H2 5293   0.041   7.675   1.563 -0.9023  0.9391  0.2843
 1784TIP3   OH2 5294   2.999   5.697   4.488 -0.3032  0.2024 -0.0860
 1784TIP3    H1 5295   2.999   5.687   4.583 -1.0061  0.4481 -0.0524
 1784TIP3    H2 5296   3.043   5.781   4.473 -0.8414  0.5171  0.0714
 1785TIP3   OH2 5297   5.869   3.512   1.284  0.6473  0.4491 -0.0544
 1785TIP3    H1 5298   5.808   3.463   1.339  0.7859 -0.1311 -0.4133
 1785TIP3    H2 5299   5.814   3.554   1.218  0.4458  1.3807  0.6768
 1786TIP3   OH2 5300   8.204   0.352   4.570  0.2436 -0.3706 -0.0482
 1786TIP3    H1 5301   8.299   0.354   4.564  0.4046 -0.2049  1.9140
 1786TIP3    H2 5302   8.178   0.444   4.573  0.1953 -0.4127  1.2694
 1787TIP3   OH2 5303   8.034   3.176   1.214 -0.5408 -0.4682 -0.2963
 1787TIP3    H1 5304   8.008   3.111   1.280  0.0422  1.5234  2.0523
 1787TIP3    H2 5305   8.121   3.206   1.243  0.5029 -0.6377 -2.9476
 1788TIP3   OH2 5306   3.554   7.602   5.846  0.0367  0.7094  0.4122
 1788TIP3    H1 5307   3.600   7.671   5.797  1.7543 -0.7168 -0.0997
 1788TIP3    H2 5308   3.530   7.537   5.780  0.1318 -0.0598  1.1215
 1789TIP3   OH2 5309   6.753   5.539   5.772  0.4704 -0.1469 -0.3870
 1789TIP3    H1 5310   6.675   5.486   5.754  0.3393 -0.4766  1.0177
 1789TIP3    H2 5311   6.803   5.537   5.690 -1.2442  0.5231 -1.5011
 1790TIP3   OH2 5312   6.535   5.074   2.379  0.6820 -0.4904  0.7023
 1790TIP3    H1 5313   6.483   4.994   2.368 -0.5035  0.4326 -0.8877
 1790TIP3    H2 5314   6.473   5.138   2.414  2.0593 -0.6874  3.7604
 1791TIP3   OH2 5315   7.033   5.107   5.336 -0.3777  0.0606 -0.3737
 1791TIP3    H1 5316   6.978   5.030   5.353  0.7611 -0.6190  0.3718
 1791TIP3    H2 5317   7.084   5.118   5.416 -0.6730  1.7492 -0.3851
 1792TIP3   OH2 5318   7.523   7.619   4.894 -0.1191  0.3287  0.7384
 1792TIP3    H1 5319   7.589   7.588   4.832 -1.2542 -1.2034  0.2257
 1792TIP3    H2 5320   7.463   7.671   4.841 -0.9817 -0.8223  0.5213
 1793TIP3   OH2 5321   7.639   2.440   1.057 -0.2867  0.4391 -0.1286
 1793TIP3    H1 5322   7.727   2.476   1.071 -0.5876  1.2934 -0.3577
 1793TIP3    H2 5323   7.628   2.441   0.962  0.1391 -1.3903 -0.2401
 1794TIP3   OH2 5324   1.332   4.830   1.288  0.0659 -0.2742 -0.0592
 1794TIP3    H1 5325   1.395   4.854   1.220  0.8755  0.3695  0.8923
 1794TIP3    H2 5326   1.300   4.744   1.262 -0.7484  0.5662 -2.0322
 1795TIP3   OH2 5327   1.862   7.615   0.363  0.2973  0.3329 -0.1807
 1795TIP3    H1 5328   1.809   7.661   0.429  0.8893  0.6629  0.0784
 1795TIP3    H2 5329   1.800   7.594   0.293 -0.4041 -0.2593  0.5937
 1796TIP3   OH2 5330   7.630   3.486   5.773  0.8274  0.4752  0.1645
 1796TIP3    H1 5331   7.638   3.514   5.681  0.1061  1.4960  0.3903
 1796TIP3    H2 5332   7.569   3.413   5.770 -0.0753  1.2215 -0.0600
 1797TIP3   OH2 5333   6.652   1.485   5.133 -0.0964  0.0656 -0.4267
 1797TIP3    H1 5334   6.589   1.550   5.102 -1.2027 -0.6888  0.1749
 1797TIP3    H2 5335   6.736   1.531   5.131 -0.8434  1.5104 -0.0190
 1798TIP3   OH2 5336   7.294   5.544   3.637  0.0515 -0.3387 -0.3257
 1798TIP3    H1 5337   7.216   5.594   3.659  0.5972  0.2656  0.2960
 1798TIP3    H2 5338   7.265   5.453   3.638  0.0356 -0.4873  3.5264
 1799TIP3   OH2 5339   5.136   5.406   2.887  0.2174  0.3098  0.0477
 1799TIP3    H1 5340   5.104   5.317   2.869  1.2287 -0.1617  0.4866
 1799TIP3    H2 5341   5.063   5.463   2.862 -1.1318 -0.7316  1.3595
 1800TIP3   OH2 5342   3.564   7.746   5.100  0.0370  0.2272 -0.0844
 1800TIP3    H1 5343   3.588   7.838   5.113  1.2693 -0.1506  0.3821
 1800TIP3    H2 5344   3.470   7.749   5.078  0.1592  1.6184 -0.5028
 1801TIP3   OH2 5345   5.150   0.320   4.483  0.2093  0.0078 -0.0374
 1801TIP3    H1 5346   5.187   0.379   4.548 -1.5461  0.6821  0.4063
 1801TIP3    H2 5347   5.106   0.377   4.420  0.0554 -0.7394 -0.6295
 1802TIP3   OH2 5348   6.278   1.840   4.069  0.1412 -0.0130  0.3189
 1802TIP3    H1 5349   6.336   1.895   4.122 -0.8541 -0.3995  1.8944
 1802TIP3    H2 5350   6.337   1.783   4.020  1.1110 -0.1876  1.6386
 1803TIP3   OH2 5351   1.122   4.968   4.996 -0.2565 -0.3422 -0.6490
 1803TIP3    H1 5352   1.041   5.019   4.997 -0.8504 -1.2591 -1.2061
 1803TIP3    H2 5353   1.158   4.981   4.909  1.0210  1.2861  0.0614
 1804TIP3   OH2 5354   1.236   2.451   6.531 -0.0937 -0.1564  0.1332
 1804TIP3    H1 5355   1.167   2.462   6.596 -0.7891 -2.2950 -0.1617
 1804TIP3    H2 5356   1.195   2.471   6.447 -0.4889 -1.6818 -0.0707
 1805TIP3   OH2 5357   6.740   4.159   3.380  0.3426 -0.2417  0.2465
 1805TIP3    H1 5358   6.815   4.108   3.411  0.0153 -0.2027  1.1403
 1805TIP3    H2 5359   6.678   4.158   3.454  0.2493  1.2681  0.2219
 1806TIP3   OH2 5360   4.136   3.638   3.794  0.0694 -0.2070  0.3584
 1806TIP3    H1 5361   4.116   3.589   3.714  0.2371 -0.2648  0.3519
 1806TIP3    H2 5362   4.217   3.600   3.826 -0.0526 -0.2538  0.6139
 1807TIP3   OH2 5363   1.368   4.097   6.733 -0.0035 -0.3676 -0.6931
 1807TIP3    H1 5364   1.329   4.163   6.677  0.3397  1.0273  0.6565
 1807TIP3    H2 5365   1.460   4.122   6.740  0.1953 -1.1444 -0.3682
 1808TIP3   OH2 5366   1.332   3.663   4.483  0.4443 -0.0413 -0.2292
 1808TIP3    H1 5367   1.359   3.571   4.482  0.2171 -0.1128  0.1911
 1808TIP3    H2 5368   1.381   3.701   4.556  0.1506  0.0543 -0.0831
 1809TIP3   OH2 5369   0.897   4.229   3.333 -0.0507  0.3536 -0.3363
 1809TIP3    H1 5370   0.900   4.138   3.303  1.4443  0.2622  0.0140
 1809TIP3    H2 5371   0.826   4.231   3.398 -1.0707 -0.2080 -1.3915
 1810TIP3   OH2 5372   2.074   1.570   4.834 -0.2859 -0.5948 -0.4789
 1810TIP3    H1 5373   2.112   1.656   4.852  2.9417 -2.1639  1.1185
 1810TIP3    H2 5374   1.988   1.573   4.876 -0.3546  1.8700 -0.6359
 1811TIP3   OH2 5375   4.639   2.597   2.840 -0.0359  0.1184 -0.1381
 1811TIP3    H1 5376   4.632   2.664   2.908 -0.6634  1.0280 -1.0796
 1811TIP3    H2 5377   4.649   2.645   2.759 -4.5789 -0.6035 -1.4489
 1812TIP3   OH2 5378   4.479   7.026   0.133 -0.6268  0.7414 -0.0897
 1812TIP3    H1 5379   4.423   6.988   0.066 -0.3500  2.1446 -1.1683
 1812TIP3    H2 5380   4.437   7.110   0.154  0.2185  1.0984  0.2109
 1813TIP3   OH2 5381   8.326   6.064   2.328 -0.0562  0.1230  0.5806
 1813TIP3    H1 5382   8.262   6.133   2.310  0.0800  0.4888  1.4523
 1813TIP3    H2 5383   8.287   5.984   2.293 -0.6873  0.4557  0.5183
 1814TIP3   OH2 5384   4.055   3.005   2.252  0.3932 -0.4506  0.1678
 1814TIP3    H1 5385   3.968   3.023   2.287  0.4685 -0.4676  0.3664
 1814TIP3    H2 5386   4.100   3.089   2.253 -0.2050 -0.0716 -1.6114
 1815TIP3   OH2 5387   7.222   2.186   5.168  0.1602 -0.2623  0.0959
 1815TIP3    H1 5388   7.216   2.094   5.195 -1.5043 -0.5822 -1.2147
 1815TIP3    H2 5389   7.225   2.234   5.251  0.5753 -1.4495  0.8102
 1816TIP3   OH2 5390   6.189   2.304   0.431  0.5542 -0.1239 -0.2338
 1816TIP3    H1 5391   6.277   2.265   0.424 -0.1361 -1.8268  0.0075
 1816TIP3    H2 5392   6.148   2.256   0.503 -0.7065  0.3949 -0.5873
 1817TIP3   OH2 5393   8.235   5.435   4.235 -0.6149  0.5028  0.1728
 1817TIP3    H1 5394   8.317   5.475   4.207 -0.9319  0.6879 -0.5294
 1817TIP3    H2 5395   8.173   5.457   4.165 -1.2897  0.4772  0.7519
 1818TIP3   OH2 5396   3.935   6.595   6.257 -0.5687 -0.2101  0.3082
 1818TIP3    H1 5397   3.910   6.512   6.298 -0.8497  0.3110  1.2252
 1818TIP3    H2 5398   3.868   6.610   6.190 -0.5729 -0.6750  0.2085
 1819TIP3   OH2 5399   1.783   4.636   3.155 -0.4728  0.3950 -0.1774
 1819TIP3    H1 5400   1.802   4.593   3.072  2.2788  2.4357 -0.7305
 1819TIP3    H2 5401   1.770   4.728   3.132  0.8118  1.0923  1.6631
 1820TIP3   OH2 5402   6.848   4.413   1.316  0.1946  0.0692 -1.0353
 1820TIP3    H1 5403   6.773   4.429   1.258  0.1825  1.6034 -0.6326
 1820TIP3    H2 5404   6.900   4.493   1.310  0.3818  0.1132  0.7718
 1821TIP3   OH2 5405   7.449   4.162   5.770  0.0606  0.6325 -0.8646
 1821TIP3    H1 5406   7.431   4.129   5.859  1.3040 -0.9715 -1.1598
 1821TIP3    H2 5407   7.492   4.247   5.784  0.9283  0.0587  0.1128
 1822TIP3   OH2 5408   7.591   5.094   1.607  0.5030 -0.7851 -0.1597
 1822TIP3    H1 5409   7.644   5.062   1.680  0.4874  0.5945  0.4737
 1822TIP3    H2 5410   7.646   5.158   1.563  0.1193 -0.8552 -0.7536
 1823TIP3   OH2 5411   1.097   7.196   5.793 -0.2393  0.1085  0.1020
 1823TIP3    H1 5412   1.116   7.150   5.712 -0.8148  2.5457 -1.5257
 1823TIP3    H2 5413   1.181   7.232   5.821 -0.0370 -0.7505  0.6214
 1824TIP3   OH2 5414   2.577   1.603   1.215 -0.3858  0.3772  0.5436
 1824TIP3    H1 5415   2.563   1.555   1.296 -0.5943 -0.1448  0.2072
 1824TIP3    H2 5416   2.513   1.565   1.154 -0.5510  1.0809  0.2728
 1825TIP3   OH2 5417   5.488   1.022   0.036  0.5028  0.6483  0.1247
 1825TIP3    H1 5418   5.449   1.060   0.115  0.4615 -0.1126  0.4761
 1825TIP3    H2 5419   5.464   1.083  -0.034 -2.4362 -0.4012  0.0876
 1826TIP3   OH2 5420   1.347   3.602   2.356  0.0757  0.5014  0.7000
 1826TIP3    H1 5421   1.285   3.561   2.416  0.8822 -0.4823  0.9038
 1826TIP3    H2 5422   1.307   3.593   2.269 -0.6872  1.1269  0.9861
 1827TIP3   OH2 5423   2.141   1.305   2.965 -0.4877  0.2394  0.2703
 1827TIP3    H1 5424   2.071   1.263   3.015 -1.4429 -0.6360 -1.7252
 1827TIP3    H2 5425   2.096   1.357   2.899  0.7329  0.5888 -0.3202
 1828TIP3   OH2 5426   4.703   3.104   4.068 -0.1636 -0.6814  0.1270
 1828TIP3    H1 5427   4.669   3.151   3.993  1.6888 -1.3651 -1.2315
 1828TIP3    H2 5428   4.666   3.016   4.061 -2.2758  0.0002  1.7109
 1829TIP3   OH2 5429   0.587   6.862   1.050  0.5556 -0.1945 -0.6837
 1829TIP3    H1 5430   0.571   6.824   0.963 -0.0695 -0.0888 -0.6176
 1829TIP3    H2 5431   0.632   6.792   1.098 -0.0625 -0.6484 -0.7524
 1830TIP3   OH2 5432   1.344   7.531   2.790  0.1562 -0.1474 -0.4450
 1830TIP3    H1 5433   1.335   7.482   2.709 -2.0790  1.0054 -0.9861
 1830TIP3    H2 5434   1.327   7.622   2.765 -0.5334  0.2463  1.2700
 1831TIP3   OH2 5435   1.591   2.573   0.311 -0.4730 -0.6950 -0.0846
 1831TIP3    H1 5436   1.623   2.579   0.401  0.6241 -1.3629 -0.4114
 1831TIP3    H2 5437   1.618   2.487   0.281  1.3257  0.3742 -1.8323
 1832TIP3   OH2 5438   7.156   1.102   4.833 -0.4949  0.9564  0.0190
 1832TIP3    H1 5439   7.200   1.187   4.845 -1.6217  1.4723  0.5857
 1832TIP3    H2 5440   7.217   1.039   4.872  1.2838  1.2151 -2.1287
 1833TIP3   OH2 5441   6.550   1.017   3.317  0.4373 -0.3616  0.1647
 1833TIP3    H1 5442   6.562   0.938   3.370 -0.2811 -0.5958 -0.0038
 1833TIP3    H2 5443   6.621   1.075   3.344 -0.0327 -0.3889  1.5432
 1834TIP3   OH2 5444   4.342   7.042   1.167  0.2494  0.0603 -0.1271
 1834TIP3    H1 5445   4.358   6.963   1.219 -0.3282  0.2248  0.3092
 1834TIP3    H2 5446   4.430   7.071   1.141  0.4781 -0.6473 -0.1892
 1835TIP3   OH2 5447   5.983   0.564   2.707 -0.1303 -0.5064  0.0840
 1835TIP3    H1 5448   6.030   0.581   2.626 -0.5123  0.7392  0.1029
 1835TIP3    H2 5449   5.926   0.640   2.719  0.5159 -0.2683  1.9379
 1836TIP3   OH2 5450   3.114   6.314   4.603 -0.2493  0.8092 -0.3186
 1836TIP3    H1 5451   3.021   6.339   4.602 -0.6017  0.2064  3.4100
 1836TIP3    H2 5452   3.159   6.395   4.625 -0.1176  0.6352  0.0449
 1837TIP3   OH2 5453   0.614   0.780   4.773 -0.3974  0.4444 -0.0930
 1837TIP3    H1 5454   0.609   0.823   4.858 -0.1565 -1.2433  0.8128
 1837TIP3    H2 5455   0.632   0.851   4.711  0.0879  1.6193  1.3487
 1838TIP3   OH2 5456   4.635   4.643   2.493 -0.2304 -0.0455 -0.6576
 1838TIP3    H1 5457   4.720   4.673   2.525 -0.3928  0.9264 -1.1215
 1838TIP3    H2 5458   4.645   4.548   2.486  0.5923 -0.0164 -0.0660
 1839TIP3   OH2 5459   6.821   1.443   0.346  0.0994 -0.8199 -0.2871
 1839TIP3    H1 5460   6.778   1.485   0.271 -0.8973 -0.8275  0.2689
 1839TIP3    H2 5461   6.910   1.427   0.316  0.0575  0.2670 -1.0668
 1840TIP3   OH2 5462   7.572   4.400   6.063  0.0134  0.2640  0.1776
 1840TIP3    H1 5463   7.542   4.417   5.973  0.1872  2.0115  0.4322
 1840TIP3    H2 5464   7.630   4.324   6.054 -0.7738 -0.2384 -1.0195
 1841TIP3   OH2 5465   6.411   4.191   2.280 -0.1332  0.6191  0.5571
 1841TIP3    H1 5466   6.389   4.149   2.197  1.6998  0.9720 -0.1653
 1841TIP3    H2 5467   6.346   4.260   2.291  0.8032  1.9556 -1.6940
 1842TIP3   OH2 5468   2.207   2.671   3.347  0.3317  0.2536  0.1386
 1842TIP3    H1 5469   2.195   2.595   3.404  0.0820 -1.5329 -2.1513
 1842TIP3    H2 5470   2.178   2.746   3.400  0.4140 -1.2300  2.4115
 1843TIP3   OH2 5471   7.475   3.352   1.333  0.2105 -0.1735  0.3104
 1843TIP3    H1 5472   7.401   3.293   1.317 -1.0672  1.0963  1.3538
 1843TIP3    H2 5473   7.507   3.328   1.420 -1.7773  2.0600  1.7798
 1844TIP3   OH2 5474   7.625   7.454   5.801 -0.1324  0.5633 -0.3594
 1844TIP3    H1 5475   7.590   7.381   5.850 -0.2386  0.5255 -0.4916
 1844TIP3    H2 5476   7.651   7.417   5.717  3.0918 -0.0829  0.7766
 1845TIP3   OH2 5477   7.408   3.708   2.742  0.2079  0.2457  0.2504
 1845TIP3    H1 5478   7.490   3.663   2.725  1.5959  1.9001  2.0275
 1845TIP3    H2 5479   7.357   3.647   2.795 -0.8209 -1.7361 -2.7846
 1846TIP3   OH2 5480   7.910   7.499   1.035 -0.0939  0.1176  0.5738
 1846TIP3    H1 5481   7.892   7.572   0.975 -1.3134 -0.7961 -0.2407
 1846TIP3    H2 5482   7.985   7.455   0.996 -1.3501 -0.9333 -0.8245
 1847TIP3   OH2 5483   4.652   0.459   5.189  0.2429 -0.2803  0.2612
 1847TIP3    H1 5484   4.566   0.440   5.151  0.4029  0.8162 -0.7163
 1847TIP3    H2 5485   4.711   0.464   5.114  1.2907 -1.5584  0.9655
 1848TIP3   OH2 5486   5.845   5.977   1.569  0.0886  0.0581 -0.8626
 1848TIP3    H1 5487   5.789   6.018   1.504 -1.9738 -0.8908  0.2175
 1848TIP3    H2 5488   5.919   5.943   1.519  0.6060  2.7628 -2.1152
 1849TIP3   OH2 5489   1.517   0.344   0.088 -0.2148 -0.2160 -0.0155
 1849TIP3    H1 5490   1.512   0.432   0.052  1.1618  1.5461  3.6370
 1849TIP3    H2 5491   1.607   0.315   0.068  0.2071  0.3363  1.0233
 1850TIP3   OH2 5492   7.234   4.657   6.355 -0.4013  0.0608 -0.0120
 1850TIP3    H1 5493   7.266   4.570   6.381  1.0464  0.4656 -0.3592
 1850TIP3    H2 5494   7.202   4.696   6.436  0.0644 -0.3433  0.3737
 1851TIP3   OH2 5495   0.985   3.314   4.526  0.0919 -0.3099 -0.5793
 1851TIP3    H1 5496   0.949   3.269   4.449  1.0865 -2.0972 -0.0623
 1851TIP3    H2 5497   1.062   3.262   4.550  0.8517  1.2549  0.5560
 1852TIP3   OH2 5498   7.451   5.696   4.748 -0.6539 -0.3045 -0.9265
 1852TIP3    H1 5499   7.498   5.778   4.733 -1.6874  1.1523  2.5188
 1852TIP3    H2 5500   7.383   5.694   4.680 -1.7486  2.7648 -0.1036
 1853TIP3   OH2 5501   3.538   7.141   3.228 -0.1609  0.9500 -0.4762
 1853TIP3    H1 5502   3.514   7.218   3.280  0.0307  0.5175  0.2680
 1853TIP3    H2 5503   3.481   7.145   3.152 -0.7563  1.3577 -0.0167
 1854TIP3   OH2 5504   1.853   2.732   0.912  0.7663  0.4007  0.0870
 1854TIP3    H1 5505   1.888   2.796   0.849  1.3097 -1.7017 -1.8984
 1854TIP3    H2 5506   1.916   2.732   0.984  1.1972  1.4714 -0.2598
 1855TIP3   OH2 5507   7.657   1.113   2.574 -0.0661  0.3940  0.3555
 1855TIP3    H1 5508   7.672   1.079   2.662 -0.8118  2.9174  1.5563
 1855TIP3    H2 5509   7.562   1.112   2.564  0.0486 -0.9593 -0.9484
 1856TIP3   OH2 5510   4.921   7.664   6.019  0.2075 -0.0236  0.6106
 1856TIP3    H1 5511   4.901   7.756   6.004  0.1036 -0.1130  0.2143
 1856TIP3    H2 5512   5.008   7.652   5.981  0.8629  0.2559  1.9384
 1857TIP3   OH2 5513   2.587   7.136   6.651 -0.2961  0.5260  0.1664
 1857TIP3    H1 5514   2.557   7.145   6.561  0.7923  1.9522 -0.0769
 1857TIP3    H2 5515   2.647   7.061   6.649  0.6717  1.3056 -0.5630
 1858TIP3   OH2 5516   5.669   2.546   5.123  0.5994  0.0490  0.0579
 1858TIP3    H1 5517   5.735   2.477   5.111 -0.0718 -0.4778 -0.7562
 1858TIP3    H2 5518   5.634   2.531   5.211  0.2704 -0.8340 -0.2119
 1859TIP3   OH2 5519   8.067   7.174   0.087  0.1205 -0.2492 -0.0122
 1859TIP3    H1 5520   8.094   7.224   0.163  2.0086  1.3225 -1.6119
 1859TIP3    H2 5521   8.113   7.090   0.095  2.4575  0.8852 -0.6422
 1860TIP3   OH2 5522   4.323   1.607   5.752 -0.1768 -0.1633 -0.0845
 1860TIP3    H1 5523   4.345   1.700   5.763  0.0951 -0.0778 -1.2049
 1860TIP3    H2 5524   4.404   1.568   5.719 -0.2384 -0.8436  0.5520
 1861TIP3   OH2 5525   4.610   7.341   3.044  0.5246 -0.3952  0.5657
 1861TIP3    H1 5526   4.655   7.408   2.992 -0.7864  0.7584  0.8665
 1861TIP3    H2 5527   4.546   7.303   2.984  0.2275 -0.3061  0.8222
 1862TIP3   OH2 5528   7.592   6.876   1.875 -0.1379 -0.0102 -0.2968
 1862TIP3    H1 5529   7.510   6.827   1.867  0.2453 -0.8693  0.7350
 1862TIP3    H2 5530   7.650   6.838   1.808 -0.0519 -0.5266  0.0708
 1863TIP3   OH2 5531   6.174   5.066   6.486  0.0362 -0.6313  0.2129
 1863TIP3    H1 5532   6.190   5.042   6.578  0.2476  0.4895  0.4883
 1863TIP3    H2 5533   6.089   5.110   6.488  0.4010  0.0925  0.0090
 1864TIP3   OH2 5534   3.682   0.130   0.794  0.0890  0.3427 -0.4296
 1864TIP3    H1 5535   3.613   0.087   0.744 -1.2643  1.7150  0.1819
 1864TIP3    H2 5536   3.658   0.116   0.885  1.3422 -0.2410 -0.1624
 1865TIP3   OH2 5537   4.535   6.408   2.166 -0.3943  0.1331 -0.1044
 1865TIP3    H1 5538   4.466   6.368   2.113 -0.0866  0.1531 -0.5293
 1865TIP3    H2 5539   4.596   6.444   2.102 -0.3835  0.8020  0.2735
 1866TIP3   OH2 5540   3.529   6.284   0.020  0.3788  0.2623  0.2620
 1866TIP3    H1 5541   3.487   6.232   0.089  1.8343 -1.6265 -0.1727
 1866TIP3    H2 5542   3.525   6.374   0.051 -0.9743 -0.2729  1.7562
 1867TIP3   OH2 5543   3.324   3.324   0.657  0.3482 -0.1649 -0.0434
 1867TIP3    H1 5544   3.299   3.398   0.601 -0.2196 -1.0887 -1.0499
 1867TIP3    H2 5545   3.341   3.253   0.596  1.1680 -0.8007  0.8951
 1868TIP3   OH2 5546   3.268   7.431   3.498  0.3874  0.4339 -0.0990
 1868TIP3    H1 5547   3.179   7.457   3.475  0.0727 -1.2342 -0.8601
 1868TIP3    H2 5548   3.324   7.484   3.441 -0.2088 -0.0411 -1.1414
 1869TIP3   OH2 5549   5.170   0.344   2.693  0.3525  0.3999  0.6209
 1869TIP3    H1 5550   5.149   0.416   2.634 -1.4982 -1.7339 -1.4832
 1869TIP3    H2 5551   5.135   0.372   2.778 -1.6823  1.3637 -0.4864
 1870TIP3   OH2 5552   5.376   2.392   0.275 -0.0436 -0.0877 -0.0132
 1870TIP3    H1 5553   5.352   2.333   0.347  0.7766 -0.3151  0.0920
 1870TIP3    H2 5554   5.464   2.422   0.298 -0.7606  1.8291  0.3366
 1871TIP3   OH2 5555   0.350   0.324   6.003 -0.1566  0.6098  0.1308
 1871TIP3    H1 5556   0.408   0.258   6.042  0.2531  1.1575  0.4487
 1871TIP3    H2 5557   0.373   0.323   5.910  0.6765  1.1183  0.3141
 1872TIP3   OH2 5558   6.814   7.183   3.595 -0.1524  0.2801 -0.5939
 1872TIP3    H1 5559   6.845   7.174   3.505 -2.9408 -0.4540 -1.6031
 1872TIP3    H2 5560   6.830   7.275   3.617  0.6313  0.4566 -1.8090
 1873TIP3   OH2 5561   3.049   1.425   3.545  0.6434 -0.2345  0.2362
 1873TIP3    H1 5562   3.125   1.433   3.488  1.2355  1.2908  1.2119
 1873TIP3    H2 5563   3.063   1.343   3.592  1.2081 -0.4208 -0.2471
 1874TIP3   OH2 5564   3.033   7.687   5.324 -0.1545  0.4171 -0.2868
 1874TIP3    H1 5565   3.057   7.614   5.267  0.1641  0.7026 -0.5211
 1874TIP3    H2 5566   3.101   7.753   5.309 -0.6840  0.9394 -0.4056
 1875TIP3   OH2 5567   3.130   6.651   4.531  0.3441  0.0932  0.3768
 1875TIP3    H1 5568   3.036   6.669   4.528  0.4832  0.8445 -2.3227
 1875TIP3    H2 5569   3.164   6.710   4.598 -1.1909 -0.8821  2.1060
 1876TIP3   OH2 5570   5.297   6.455   2.809 -0.2400 -0.5322  0.0397
 1876TIP3    H1 5571   5.342   6.371   2.824 -0.0403 -0.5852 -0.7653
 1876TIP3    H2 5572   5.218   6.431   2.760 -0.6469 -0.3367  0.5938
 1877TIP3   OH2 5573   3.705   0.305   1.017 -0.5956  0.0253 -0.3213
 1877TIP3    H1 5574   3.774   0.317   0.951 -0.1723 -1.2645 -0.1519
 1877TIP3    H2 5575   3.666   0.392   1.028  0.5029  0.6192 -0.9743
 1878TIP3   OH2 5576   5.285   0.199   1.333 -0.5179 -0.5225  0.0175
 1878TIP3    H1 5577   5.265   0.289   1.359 -1.4072 -1.3132  2.3324
 1878TIP3    H2 5578   5.200   0.154   1.335 -0.0694 -1.4507 -0.9867
 1879TIP3   OH2 5579   2.968   0.584   1.034  0.6117  0.4695  0.3188
 1879TIP3    H1 5580   2.950   0.674   1.061  1.1144  0.3803  0.9642
 1879TIP3    H2 5581   2.953   0.584   0.940  0.3032  1.1520  0.3607
 1880TIP3   OH2 5582   5.766   2.489   4.075 -0.0458 -0.0678  0.3968
 1880TIP3    H1 5583   5.704   2.438   4.023 -0.1138 -0.3860  0.7851
 1880TIP3    H2 5584   5.731   2.578   4.076 -1.0813 -0.4669  1.5192
 1881TIP3   OH2 5585   6.301   3.161   2.503 -0.1421 -0.4624 -0.4211
 1881TIP3    H1 5586   6.290   3.156   2.598 -0.6725  1.2253 -0.3417
 1881TIP3    H2 5587   6.395   3.166   2.490 -0.0830  2.2412  0.3083
 1882TIP3   OH2 5588   7.855   1.726   4.096  0.4193 -0.5195 -0.0320
 1882TIP3    H1 5589   7.908   1.780   4.038 -0.6071  1.0175  0.4295
 1882TIP3    H2 5590   7.905   1.723   4.178 -0.2280  1.0682  0.4589
 1883TIP3   OH2 5591   0.885   1.475   0.924  0.1324 -0.6270  0.5036
 1883TIP3    H1 5592   0.829   1.401   0.949 -2.0555  1.1742  1.2265
 1883TIP3    H2 5593   0.847   1.507   0.842  1.3044 -0.5194 -0.0122
 1884TIP3   OH2 5594   6.521   4.751   5.669 -0.0674  0.3091  0.1689
 1884TIP3    H1 5595   6.503   4.675   5.725 -1.4718  0.6575  0.2353
 1884TIP3    H2 5596   6.481   4.825   5.716  0.9292  1.0360 -0.0889
 1885TIP3   OH2 5597   4.389   1.089   0.226  0.3386  0.2132 -0.6990
 1885TIP3    H1 5598   4.314   1.127   0.272  0.2600 -0.8502  0.0816
 1885TIP3    H2 5599   4.350   1.037   0.156  0.4156  0.7993 -1.1906
 1886TIP3   OH2 5600   6.921   0.524   0.035 -0.1363  0.5828  0.2601
 1886TIP3    H1 5601   6.911   0.465   0.110  0.3424  0.7277  0.4444
 1886TIP3    H2 5602   6.908   0.612   0.071  2.4892  0.8618  0.7054
 1887TIP3   OH2 5603   2.867   1.043   5.062  0.5874 -0.0459 -0.0181
 1887TIP3    H1 5604   2.924   0.970   5.038 -0.4009 -0.2483 -1.9701
 1887TIP3    H2 5605   2.865   1.041   5.158 -0.1304 -3.2008  0.0208
 1888TIP3   OH2 5606   3.655   7.204   3.752  0.4385 -0.3468 -0.3882
 1888TIP3    H1 5607   3.710   7.128   3.736  1.3268 -0.0814  1.2245
 1888TIP3    H2 5608   3.565   7.170   3.750  0.8117 -1.3649 -0.0523
 1889TIP3   OH2 5609   6.657   3.821   0.388 -0.6767 -0.6992 -0.3317
 1889TIP3    H1 5610   6.596   3.894   0.403  0.4174  0.5292 -1.6160
 1889TIP3    H2 5611   6.724   3.831   0.455  0.5349  0.7179 -1.6736
 1890TIP3   OH2 5612   0.471   0.236   5.472 -0.2864  0.3984 -0.4376
 1890TIP3    H1 5613   0.383   0.228   5.434  0.1673 -0.4248 -1.3446
 1890TIP3    H2 5614   0.475   0.168   5.538  0.3958 -1.0236 -1.8844
 1891TIP3   OH2 5615   4.952   6.567   3.099 -0.1612 -0.1804 -0.1536
 1891TIP3    H1 5616   4.989   6.577   3.011 -1.0628  1.5478 -0.3849
 1891TIP3    H2 5617   5.026   6.580   3.158  0.3544 -0.8389 -0.6370
 1892TIP3   OH2 5618   5.928   3.918   6.118 -0.3610 -0.4214  0.0425
 1892TIP3    H1 5619   5.885   3.917   6.203 -0.2566 -0.6880  0.0940
 1892TIP3    H2 5620   5.966   3.830   6.109 -0.8506 -0.5860 -0.5211
 1893TIP3   OH2 5621   7.047   4.825   2.157 -0.2945  0.3031 -0.6077
 1893TIP3    H1 5622   7.007   4.910   2.141  1.7280  1.0475 -2.1397
 1893TIP3    H2 5623   7.101   4.839   2.235  0.6471  0.6753 -1.3133
 1894TIP3   OH2 5624   0.277   5.045   4.515 -0.4834 -0.2234  0.2498
 1894TIP3    H1 5625   0.207   5.104   4.488 -0.3411 -0.4110 -0.5558
 1894TIP3    H2 5626   0.281   4.979   4.447  1.7180  0.8232 -0.7698
 1895TIP3   OH2 5627   3.151   0.359   0.119  0.3184 -0.1632  0.3845
 1895TIP3    H1 5628   3.199   0.358   0.202 -0.6448  1.3780  1.0050
 1895TIP3    H2 5629   3.160   0.449   0.087 -0.3654 -0.4119 -0.5507
 1896TIP3   OH2 5630   7.665   0.665   5.333 -0.5480 -0.7578  0.0112
 1896TIP3    H1 5631   7.745   0.648   5.284 -0.1491  0.2882  0.2913
 1896TIP3    H2 5632   7.681   0.626   5.419 -0.6653 -1.2623 -0.1894
 1897TIP3   OH2 5633   7.634   7.044   1.172  0.1961  0.0779 -0.2827
 1897TIP3    H1 5634   7.703   7.105   1.145  0.0632  1.6496  2.5400
 1897TIP3    H2 5635   7.674   6.992   1.241 -0.7435 -0.7141 -0.3106
 1898TIP3   OH2 5636   4.571   5.737   4.655 -0.3988 -0.5277 -0.4728
 1898TIP3    H1 5637   4.642   5.780   4.704 -0.7723 -0.4578  0.0125
 1898TIP3    H2 5638   4.538   5.804   4.596 -0.1462 -0.5244 -0.6134
 1899TIP3   OH2 5639   4.428   2.192   2.999  0.5758 -0.1133 -0.1169
 1899TIP3    H1 5640   4.388   2.263   2.949  0.4302  0.5860  0.9680
 1899TIP3    H2 5641   4.484   2.147   2.936 -0.2784  0.1957 -1.1258
 1900TIP3   OH2 5642   5.121   5.836   0.497 -0.3407  0.3177  0.1518
 1900TIP3    H1 5643   5.157   5.871   0.416 -2.5890  1.1992 -0.5465
 1900TIP3    H2 5644   5.046   5.784   0.469  1.0930 -2.7154  1.4073
 1901TIP3   OH2 5645   5.319   1.558   5.955 -0.4468 -0.1849 -0.4507
 1901TIP3    H1 5646   5.243   1.515   5.995  0.2100 -0.5717  0.4206
 1901TIP3    H2 5647   5.395   1.511   5.991  0.2575  0.9830 -0.3468
 1902TIP3   OH2 5648   7.501   2.337   3.296  0.2747  0.0934  0.1729
 1902TIP3    H1 5649   7.511   2.428   3.324 -0.5771  0.2902 -0.1546
 1902TIP3    H2 5650   7.542   2.334   3.210 -0.8697  0.4926 -0.4040
 1903TIP3   OH2 5651   7.245   4.492   0.518  0.5015 -0.1184 -0.2439
 1903TIP3    H1 5652   7.173   4.554   0.501  1.1889  0.7509 -0.0341
 1903TIP3    H2 5653   7.292   4.530   0.592 -0.4056 -2.0823  1.4347
 1904TIP3   OH2 5654   1.221   5.896   0.245 -0.3563 -0.1236  0.1660
 1904TIP3    H1 5655   1.176   5.812   0.255 -0.9932  0.3460  1.4635
 1904TIP3    H2 5656   1.231   5.929   0.334  0.2361  1.0035 -0.2937
 1905TIP3   OH2 5657   6.958   1.574   5.204  0.5091 -0.2284  0.2675
 1905TIP3    H1 5658   7.025   1.631   5.166  1.1741 -1.1780 -0.0106
 1905TIP3    H2 5659   7.004   1.521   5.269 -0.3408  0.3726  1.3946
 1906TIP3   OH2 5660   5.480   4.723   5.039 -0.4288  0.0957 -0.2334
 1906TIP3    H1 5661   5.574   4.731   5.023 -0.3212 -0.1334  0.2685
 1906TIP3    H2 5662   5.454   4.641   4.996 -0.1224 -0.5688  0.8095
 1907TIP3   OH2 5663   5.050   1.785   1.564  0.1797  0.0212 -0.4920
 1907TIP3    H1 5664   5.045   1.817   1.474  0.4494  1.9581  0.1406
 1907TIP3    H2 5665   5.094   1.700   1.557  2.9287  1.4475 -1.9051
 1908TIP3   OH2 5666   7.101   2.250   4.882  0.0856  0.1477 -0.1312
 1908TIP3    H1 5667   7.073   2.333   4.920 -0.1172 -0.4096  0.9517
 1908TIP3    H2 5668   7.089   2.186   4.951  1.5606 -0.5644 -0.5024
 1909TIP3   OH2 5669   0.042   7.355   4.580 -0.2582 -0.4783  0.2124
 1909TIP3    H1 5670   0.063   7.330   4.490  1.9123  1.4242  0.1109
 1909TIP3    H2 5671   0.061   7.449   4.584 -0.3248 -0.5064  2.6425
 1910TIP3   OH2 5672   6.071   1.770   2.277 -0.3023  1.1895 -0.2173
 1910TIP3    H1 5673   5.988   1.737   2.243  0.3034  0.5629 -1.1275
 1910TIP3    H2 5674   6.077   1.859   2.244 -0.7462  1.3370  0.0960
 1911TIP3   OH2 5675   4.119   3.196   4.515 -0.2251  0.7322  0.3327
 1911TIP3    H1 5676   4.130   3.228   4.604 -1.5276 -0.0647  0.8024
 1911TIP3    H2 5677   4.208   3.174   4.487  0.4330  2.6497  0.7537
 1912TIP3   OH2 5678   4.618   5.513   0.416  0.0740 -0.0351 -0.4125
 1912TIP3    H1 5679   4.655   5.425   0.425  0.6849  0.3321  1.0678
 1912TIP3    H2 5680   4.595   5.521   0.324  2.2791 -0.8674 -1.0873
 1913TIP3   OH2 5681   3.166   5.363   2.869 -0.6126  0.4702  0.0811
 1913TIP3    H1 5682   3.254   5.398   2.875 -1.4323  2.5669  0.9739
 1913TIP3    H2 5683   3.153   5.343   2.777  0.2295  1.7805 -0.3449
 1914TIP3   OH2 5684   0.578   4.818   6.012  0.0186 -0.1078 -1.0049
 1914TIP3    H1 5685   0.511   4.868   5.966 -0.2430 -0.6401 -1.2152
 1914TIP3    H2 5686   0.648   4.881   6.030 -1.3719  0.9873  1.0285
 1915TIP3   OH2 5687   3.157   4.807   3.030 -0.0203  0.2797  0.0135
 1915TIP3    H1 5688   3.119   4.894   3.020 -0.5602  0.0539  0.0616
 1915TIP3    H2 5689   3.089   4.747   2.997 -0.9345 -0.3538  2.8063
 1916TIP3   OH2 5690   6.954   5.732   5.227 -0.3815  0.2796  0.1420
 1916TIP3    H1 5691   7.034   5.769   5.189 -0.0694 -0.4829  0.0349
 1916TIP3    H2 5692   6.965   5.637   5.219 -0.4523  0.0893  1.8397
 1917TIP3   OH2 5693   6.885   6.794   0.153  0.7417 -0.0903 -0.2145
 1917TIP3    H1 5694   6.853   6.773   0.066 -0.4856 -0.8323  0.3884
 1917TIP3    H2 5695   6.931   6.877   0.143 -1.0622  0.8398 -1.2200
 1918TIP3   OH2 5696   4.359   4.241   1.838 -0.0661 -0.5164  0.5156
 1918TIP3    H1 5697   4.396   4.223   1.752  1.5383  2.1398  0.5314
 1918TIP3    H2 5698   4.265   4.250   1.822  0.3752  1.8207 -1.4403
 1919TIP3   OH2 5699   4.479   3.495   0.446 -0.1914 -0.0365  0.0001
 1919TIP3    H1 5700   4.450   3.582   0.471 -1.3844 -1.0296  2.3587
 1919TIP3    H2 5701   4.453   3.486   0.354 -0.8895  1.7259 -0.0027
 1920TIP3   OH2 5702   2.390   0.984   2.403 -0.0459  0.1056 -0.0447
 1920TIP3    H1 5703   2.401   0.967   2.309 -0.2450 -0.5905  0.0556
 1920TIP3    H2 5704   2.299   1.014   2.411 -0.1446 -0.1898 -0.0305
 1921TIP3   OH2 5705   1.389   7.053   0.131  0.1432  0.0231  0.0224
 1921TIP3    H1 5706   1.297   7.038   0.109 -0.0090  0.8725  0.0564
 1921TIP3    H2 5707   1.438   7.002   0.066 -0.3431 -0.7064  0.2090
 1922TIP3   OH2 5708   5.095   4.496   0.702  0.6889 -0.2902  0.7362
 1922TIP3    H1 5709   5.065   4.477   0.791  2.7048 -0.3165  1.4697
 1922TIP3    H2 5710   5.168   4.435   0.687  0.8410  0.1852 -0.6703
 1923TIP3   OH2 5711   0.072   2.732   0.793  0.0696  0.0569  0.4355
 1923TIP3    H1 5712  -0.016   2.747   0.830  0.2311  1.0832  0.4447
 1923TIP3    H2 5713   0.094   2.815   0.750 -0.5830 -1.4087 -3.0467
 1924TIP3   OH2 5714   4.331   1.069   3.487  0.4690  0.3605 -0.6611
 1924TIP3    H1 5715   4.315   1.080   3.580  0.3649  0.0459 -0.6432
 1924TIP3    H2 5716   4.405   1.127   3.468  0.6076  0.2814 -0.3516
 1925TIP3   OH2 5717   1.170   3.717   3.178  0.2406 -0.0662  0.1267
 1925TIP3    H1 5718   1.227   3.781   3.136 -0.1989 -0.3262 -0.9039
 1925TIP3    H2 5719   1.182   3.732   3.271  1.1282  0.6389 -0.0847
 1926TIP3   OH2 5720   2.100   2.955   3.470  0.2470  0.0887 -0.6937
 1926TIP3    H1 5721   2.086   2.932   3.562  1.0844 -1.6943 -0.9834
 1926TIP3    H2 5722   2.155   3.034   3.474  0.5608 -0.1661  0.3253
 1927TIP3   OH2 5723   7.714   4.227   4.514  0.6454  0.9754 -0.4990
 1927TIP3    H1 5724   7.800   4.245   4.476  0.4943  2.0106 -0.3881
 1927TIP3    H2 5725   7.657   4.296   4.479 -0.4210 -0.3359 -1.4413
 1928TIP3   OH2 5726   0.495   0.189   0.769 -0.3084 -0.3406 -0.5942
 1928TIP3    H1 5727   0.436   0.215   0.699 -0.7841  0.7506  0.1866
 1928TIP3    H2 5728   0.442   0.135   0.827 -0.2631 -0.2150 -0.4336
 1929TIP3   OH2 5729   6.893   5.930   3.105  0.4253  0.2591  0.9043
 1929TIP3    H1 5730   6.805   5.966   3.110  0.5962  0.6722  0.9918
 1929TIP3    H2 5731   6.948   5.995   3.148  0.6704 -0.3431  1.5359
 1930TIP3   OH2 5732   6.619   4.594   2.282  0.1732  0.7448  0.0910
 1930TIP3    H1 5733   6.700   4.544   2.284 -0.3499 -0.1248  0.2537
 1930TIP3    H2 5734   6.642   4.677   2.239  0.8502 -0.0295 -1.0860
 1931TIP3   OH2 5735   1.880   3.770   3.217 -0.1948 -0.0035  0.1205
 1931TIP3    H1 5736   1.790   3.788   3.187  0.1281  0.2504 -0.7266
 1931TIP3    H2 5737   1.917   3.857   3.233 -0.2398 -0.1233  0.9302
 1932TIP3   OH2 5738   7.880   0.203   4.885  0.7563  0.1655 -0.5924
 1932TIP3    H1 5739   7.935   0.274   4.855  1.1953 -0.4837 -1.3443
 1932TIP3    H2 5740   7.934   0.124   4.875  1.9081  0.0235  4.0134
 1933TIP3   OH2 5741   0.601   7.065   3.016  0.5467  0.0535 -0.1067
 1933TIP3    H1 5742   0.647   6.993   2.973  1.2495 -0.3580  1.2672
 1933TIP3    H2 5743   0.609   7.139   2.956  2.7887 -0.0770 -0.0647
 1934TIP3   OH2 5744   2.658   6.261   0.586  0.0713 -0.2188  0.1975
 1934TIP3    H1 5745   2.728   6.301   0.535 -0.9239 -0.9325 -1.8370
 1934TIP3    H2 5746   2.661   6.168   0.562 -1.8025 -0.1942 -0.2984
 1935TIP3   OH2 5747   4.266   5.652   6.625 -0.2201 -0.2971 -0.3027
 1935TIP3    H1 5748   4.270   5.740   6.663 -0.5227 -0.2028 -0.4909
 1935TIP3    H2 5749   4.293   5.594   6.697 -1.9658 -0.2305  0.4417
 1936TIP3   OH2 5750   3.768   7.176   2.588  0.1070 -0.3480 -0.1544
 1936TIP3    H1 5751   3.797   7.195   2.499  1.1210  1.4271  0.5007
 1936TIP3    H2 5752   3.845   7.135   2.629 -0.3943 -1.2655 -0.0945
 1937TIP3   OH2 5753   6.203   3.487   4.725  0.4516  0.1563 -0.0753
 1937TIP3    H1 5754   6.264   3.524   4.663 -0.0552  0.3876 -0.4387
 1937TIP3    H2 5755   6.240   3.401   4.747  0.3176 -0.1867 -1.1637
 1938TIP3   OH2 5756   4.823   3.399   6.002 -0.4420 -0.2399  0.0255
 1938TIP3    H1 5757   4.783   3.475   6.044  0.1700 -0.4785  1.0878
 1938TIP3    H2 5758   4.749   3.343   5.980 -1.0153  1.2088 -1.9840
 1939TIP3   OH2 5759   4.077   0.934   1.892 -0.2424  0.5352  0.4745
 1939TIP3    H1 5760   3.983   0.950   1.898 -0.0592  1.3135  1.5139
 1939TIP3    H2 5761   4.093   0.860   1.950 -0.0642  1.1064  1.1685
 1940TIP3   OH2 5762   1.853   5.699   1.086 -0.4670 -0.3209 -0.4885
 1940TIP3    H1 5763   1.870   5.631   1.151 -0.5739  0.4882  0.4012
 1940TIP3    H2 5764   1.803   5.654   1.017 -0.4700 -1.1600  0.0483
 1941TIP3   OH2 5765   4.613   2.705   1.893  0.4576 -0.0670  0.4187
 1941TIP3    H1 5766   4.657   2.784   1.861 -0.5400  0.8627  1.2721
 1941TIP3    H2 5767   4.618   2.712   1.989 -1.4817  0.0635  0.5490
 1942TIP3   OH2 5768   1.195   2.953   3.841  0.3914 -0.3268 -0.3279
 1942TIP3    H1 5769   1.258   3.019   3.813 -0.6934  0.8315 -0.1184
 1942TIP3    H2 5770   1.195   2.959   3.937  1.0137 -1.3492 -0.2444
 1943TIP3   OH2 5771   6.093   5.973   6.791 -0.0243  0.5088 -0.5094
 1943TIP3    H1 5772   6.179   5.993   6.755 -0.7602  1.0371 -2.0631
 1943TIP3    H2 5773   6.034   6.035   6.748 -1.4420 -0.9513 -0.7542
 1944TIP3   OH2 5774   1.163   6.204   2.580 -0.3637 -0.8406 -0.3091
 1944TIP3    H1 5775   1.239   6.262   2.582 -1.3405  0.4628 -0.0784
 1944TIP3    H2 5776   1.178   6.149   2.503  1.7711 -1.9883  0.8205
 1945TIP3   OH2 5777   1.517   4.768   3.836  0.0300  0.1023 -0.5843
 1945TIP3    H1 5778   1.597   4.767   3.784  0.1609  1.0366 -0.4306
 1945TIP3    H2 5779   1.522   4.690   3.891  0.7131  0.0168 -0.7626
 1946TIP3   OH2 5780   3.193   7.687   0.574  0.5509  0.1674 -0.0009
 1946TIP3    H1 5781   3.240   7.769   0.557 -1.0954  0.8709 -1.5210
 1946TIP3    H2 5782   3.166   7.657   0.487 -0.8761 -0.7509  0.7299
 1947TIP3   OH2 5783   6.739   4.179   4.697 -0.3765  0.5388  0.2715
 1947TIP3    H1 5784   6.708   4.212   4.613 -0.3763  1.2588  0.5491
 1947TIP3    H2 5785   6.771   4.256   4.743 -2.2619  0.5166  1.7418
 1948TIP3   OH2 5786   5.209   6.621   0.449 -0.0342 -0.4011  0.4743
 1948TIP3    H1 5787   5.223   6.628   0.543 -1.1732 -2.5320  0.8510
 1948TIP3    H2 5788   5.297   6.608   0.413  0.3059 -0.5430  1.3452
 1949TIP3   OH2 5789   0.145   5.736   0.645 -0.0369  0.3021  0.3189
 1949TIP3    H1 5790   0.171   5.661   0.592  1.6026  0.7602  0.4061
 1949TIP3    H2 5791   0.076   5.703   0.702  1.4053 -1.4581  1.1410
 1950TIP3   OH2 5792   1.065   1.797   3.491 -0.4133  0.2109 -0.2018
 1950TIP3    H1 5793   1.118   1.876   3.479  0.0833  0.2497  1.9221
 1950TIP3    H2 5794   0.976   1.830   3.499 -0.3096  0.4855 -0.1291
 1951TIP3   OH2 5795   6.875   3.904   1.068  0.0514  0.2747  0.1224
 1951TIP3    H1 5796   6.812   3.836   1.046 -0.5580  0.0161  2.3814
 1951TIP3    H2 5797   6.826   3.967   1.120  1.4213  0.5648  1.1239
 1952TIP3   OH2 5798   5.202   7.559   3.641 -1.2857 -0.1452  0.1731
 1952TIP3    H1 5799   5.134   7.627   3.636 -0.2723  0.8191 -2.9897
 1952TIP3    H2 5800   5.192   7.509   3.559  2.0184  0.3132 -0.6491
 1953TIP3   OH2 5801   1.884   3.098   3.087 -0.4869 -0.4401 -0.3312
 1953TIP3    H1 5802   1.846   3.072   3.171 -1.0964 -0.3505 -0.5765
 1953TIP3    H2 5803   1.942   3.171   3.108 -0.2394 -0.7491  0.0818
 1954TIP3   OH2 5804   0.211   5.568   0.361  0.3721 -0.0568 -0.6814
 1954TIP3    H1 5805   0.216   5.473   0.354  1.5448  0.0674 -2.0087
 1954TIP3    H2 5806   0.127   5.591   0.320 -0.3456 -0.5625  0.4670
 1955TIP3   OH2 5807   0.879   6.831   2.558 -0.7022  0.0098  0.1016
 1955TIP3    H1 5808   0.832   6.754   2.525  0.4972 -1.3102  1.3328
 1955TIP3    H2 5809   0.957   6.836   2.504 -0.6824  0.2582  0.1521
 1956TIP3   OH2 5810   3.236   0.264   2.208  0.0644  0.4249  0.2600
 1956TIP3    H1 5811   3.153   0.268   2.161  0.8770  0.5547 -1.2360
 1956TIP3    H2 5812   3.214   0.228   2.294 -1.6887  1.4957  0.3000
 1957TIP3   OH2 5813   6.440   2.474   1.211  0.2350 -0.1883  0.2323
 1957TIP3    H1 5814   6.374   2.527   1.165 -0.5533 -1.3250  0.0265
 1957TIP3    H2 5815   6.478   2.535   1.275 -0.2018  0.8026 -0.4156
 1958TIP3   OH2 5816   7.178   4.025   3.300  0.0987 -0.0950 -0.0747
 1958TIP3    H1 5817   7.144   4.062   3.218  0.4576  2.0814  0.7174
 1958TIP3    H2 5818   7.256   4.076   3.319  0.7320 -1.4059  1.0055
 1959TIP3   OH2 5819   2.932   2.290   0.037 -0.7210 -0.1752  0.9703
 1959TIP3    H1 5820   2.859   2.259   0.090 -1.9349 -1.5435 -1.3258
 1959TIP3    H2 5821   2.892   2.351  -0.025  0.0067 -1.0600 -0.4182
 1960TIP3   OH2 5822   7.690   4.754   4.789 -0.7556  0.1682 -0.0612
 1960TIP3    H1 5823   7.761   4.775   4.850  0.4361 -0.3537 -1.2211
 1960TIP3    H2 5824   7.646   4.837   4.774 -0.9026  0.3507  1.2926
 1961TIP3   OH2 5825   0.112   7.240   6.036 -0.3666  0.3187  0.3987
 1961TIP3    H1 5826   0.161   7.207   6.112 -1.9120 -0.6881  1.0060
 1961TIP3    H2 5827   0.179   7.257   5.970  1.0530  1.5126  2.0598
 1962TIP3   OH2 5828   2.292   6.136   0.353 -0.2240  0.0228  0.1108
 1962TIP3    H1 5829   2.215   6.137   0.297 -1.0037  0.3136  1.1564
 1962TIP3    H2 5830   2.323   6.045   0.350 -1.4819 -0.4613  0.8112
 1963TIP3   OH2 5831   1.807   7.691   2.511  0.2906 -0.0941 -0.3854
 1963TIP3    H1 5832   1.866   7.681   2.586 -1.5579  0.2283  1.1894
 1963TIP3    H2 5833   1.860   7.664   2.436  1.4938 -2.8272  1.2858
 1964TIP3   OH2 5834   7.177   1.140   5.287 -0.1922 -0.0037  0.0876
 1964TIP3    H1 5835   7.212   1.166   5.372 -1.0554  1.3744  0.0487
 1964TIP3    H2 5836   7.142   1.052   5.302  0.4987 -0.1517  0.9041
 1965TIP3   OH2 5837   1.473   7.380   2.080  0.3891 -0.0004  0.7068
 1965TIP3    H1 5838   1.553   7.350   2.036  0.1933 -0.3540  0.5869
 1965TIP3    H2 5839   1.410   7.391   2.009 -0.4423 -2.1918  1.0377
 1966TIP3   OH2 5840   0.368   0.605   5.373  0.2637 -0.3658 -0.6927
 1966TIP3    H1 5841   0.278   0.598   5.405 -0.1246 -0.2124 -1.7228
 1966TIP3    H2 5842   0.422   0.595   5.452 -0.5931 -2.1330 -0.2822
 1967TIP3   OH2 5843   2.004   1.256   6.044  0.6442  0.1996  0.3022
 1967TIP3    H1 5844   1.997   1.190   6.114 -1.1554 -1.2718 -1.1620
 1967TIP3    H2 5845   2.040   1.208   5.970 -1.3264  0.6184 -1.0019
 1968TIP3   OH2 5846   2.439   7.177   5.980  0.0995  0.1582  0.3530
 1968TIP3    H1 5847   2.531   7.159   5.998 -0.2539 -1.3492  0.8126
 1968TIP3    H2 5848   2.425   7.145   5.891 -0.3308 -1.1009  0.8552
 1969TIP3   OH2 5849   2.269   5.645   4.646  0.2406 -0.3607  0.1793
 1969TIP3    H1 5850   2.293   5.553   4.634  0.7723 -0.1447 -0.4612
 1969TIP3    H2 5851   2.183   5.653   4.604  0.7318 -0.3005 -0.8385
 1970TIP3   OH2 5852   4.107   3.921   3.218 -0.2873 -0.0965 -0.0066
 1970TIP3    H1 5853   4.184   3.871   3.245  0.5281  0.9989 -0.2281
 1970TIP3    H2 5854   4.099   3.990   3.284 -0.1094  0.7441 -0.8272
 1971TIP3   OH2 5855   4.549   2.867   5.502 -0.0295 -0.1202  0.4004
 1971TIP3    H1 5856   4.455   2.884   5.506 -0.0674  1.0867 -2.5729
 1971TIP3    H2 5857   4.557   2.781   5.461  0.1164  0.3013 -0.4877
 1972TIP3   OH2 5858   5.490   7.058   6.506 -0.3525  0.1604 -0.2900
 1972TIP3    H1 5859   5.533   7.140   6.481 -0.9887  0.3263 -0.8506
 1972TIP3    H2 5860   5.456   7.075   6.594  1.6604 -0.3399  0.6624
 1973TIP3   OH2 5861   6.480   2.989   6.254  0.3246 -0.1161 -0.0064
 1973TIP3    H1 5862   6.537   2.958   6.183 -0.3051 -0.4895 -0.3639
 1973TIP3    H2 5863   6.395   2.949   6.235 -0.6352  2.0726 -0.6750
 1974TIP3   OH2 5864   1.487   6.208   1.064 -0.5062  0.1086  0.0584
 1974TIP3    H1 5865   1.495   6.302   1.078  2.1911  0.1583 -1.1397
 1974TIP3    H2 5866   1.443   6.200   0.980  0.3207  0.3762 -0.4146
 1975TIP3   OH2 5867   4.588   7.475   6.748 -0.2874  0.0015 -0.1252
 1975TIP3    H1 5868   4.606   7.557   6.703  0.9902 -0.1828  0.0166
 1975TIP3    H2 5869   4.553   7.418   6.680 -1.8975  0.8693 -0.0711
 1976TIP3   OH2 5870   1.800   0.559   5.408  0.1340  0.1501 -0.4676
 1976TIP3    H1 5871   1.758   0.634   5.367 -1.7715 -0.0031  1.0849
 1976TIP3    H2 5872   1.816   0.498   5.335 -0.3093  1.1323 -1.4147
 1977TIP3   OH2 5873   2.278   3.237   2.307 -0.2606  0.5188 -0.8042
 1977TIP3    H1 5874   2.306   3.167   2.365  0.6000  1.9935  0.6695
 1977TIP3    H2 5875   2.182   3.236   2.313 -0.2527 -0.4771 -0.7626
 1978TIP3   OH2 5876   7.079   4.022   5.721 -0.5162 -0.2678 -0.6557
 1978TIP3    H1 5877   7.091   4.114   5.744 -0.4836  0.0599 -1.9203
 1978TIP3    H2 5878   7.082   3.976   5.805 -1.1819  0.9431  0.0650
 1979TIP3   OH2 5879   2.933   0.104   5.202 -0.0391  0.1476 -0.1351
 1979TIP3    H1 5880   2.842   0.112   5.230  0.1448 -0.7338  0.7643
 1979TIP3    H2 5881   2.932   0.034   5.136  0.3730 -2.0574  2.0363
 1980TIP3   OH2 5882   3.013   6.428   1.781 -0.3613 -0.4747  0.1426
 1980TIP3    H1 5883   3.017   6.439   1.686  1.9787 -1.8972 -0.0030
 1980TIP3    H2 5884   3.007   6.518   1.815  0.6980  0.1892 -1.3094
 1981TIP3   OH2 5885   6.028   2.974   3.446  0.6722  0.1406  0.1174
 1981TIP3    H1 5886   5.958   2.960   3.510 -0.3863  1.9217 -0.6015
 1981TIP3    H2 5887   6.089   3.034   3.490  0.0165  1.2517 -0.4567
 1982TIP3   OH2 5888   7.943   7.255   5.360 -0.4489  0.3322 -0.8893
 1982TIP3    H1 5889   7.967   7.307   5.284  1.2892  0.7950 -0.0723
 1982TIP3    H2 5890   7.856   7.287   5.385  0.3225  2.4844 -0.7552
 1983TIP3   OH2 5891   4.176   1.186   2.164  0.0254 -0.3502  0.4686
 1983TIP3    H1 5892   4.082   1.202   2.170  0.1816  0.4185  1.2091
 1983TIP3    H2 5893   4.189   1.102   2.208 -0.5070 -1.3052 -1.1326
 1984TIP3   OH2 5894   4.131   1.978   5.406 -0.2222 -0.1842 -0.3515
 1984TIP3    H1 5895   4.075   1.920   5.355  0.1433  0.0183 -0.9833
 1984TIP3    H2 5896   4.199   2.006   5.346 -0.2781  0.7556  0.0007
 1985TIP3   OH2 5897   3.965   5.000   3.250  0.2925  0.3223 -0.6264
 1985TIP3    H1 5898   3.894   4.954   3.294  0.1846  0.6208 -0.4900
 1985TIP3    H2 5899   3.968   5.087   3.291 -0.0292  0.7237 -1.4210
 1986TIP3   OH2 5900   6.428   4.812   2.349 -0.0125 -0.6597  0.2519
 1986TIP3    H1 5901   6.333   4.826   2.349  0.0119 -0.4751 -0.3304
 1986TIP3    H2 5902   6.439   4.720   2.324 -0.0498 -0.8311  0.8384
 1987TIP3   OH2 5903   4.930   7.377   0.908  0.2994 -0.5445 -0.5463
 1987TIP3    H1 5904   5.002   7.316   0.898 -1.2774 -2.7636  0.7650
 1987TIP3    H2 5905   4.855   7.332   0.869 -0.8406  0.7434  0.0608
 1988TIP3   OH2 5906   5.701   0.638   2.245  0.4777  0.3118  0.3572
 1988TIP3    H1 5907   5.695   0.732   2.231 -0.9117  0.3511  1.0152
 1988TIP3    H2 5908   5.622   0.616   2.295  1.5486 -0.9553  1.5864
 1989TIP3   OH2 5909   4.385   6.450   5.312  0.3613 -0.1761  0.0848
 1989TIP3    H1 5910   4.382   6.403   5.228 -0.8259  0.8867 -0.4928
 1989TIP3    H2 5911   4.471   6.428   5.348  1.3718  0.2110 -1.9232
 1990TIP3   OH2 5912   3.933   6.860   3.076 -0.2886 -0.6876  0.5202
 1990TIP3    H1 5913   3.985   6.940   3.077  0.2913 -1.0001 -1.3250
 1990TIP3    H2 5914   3.863   6.876   3.140 -0.7487  1.6626 -0.4748
 1991TIP3   OH2 5915   1.656   1.621   6.025 -0.2776 -0.5713  0.5325
 1991TIP3    H1 5916   1.738   1.588   6.061 -0.3844 -0.3538  0.9794
 1991TIP3    H2 5917   1.676   1.641   5.934  0.0618 -0.8905  0.5348
 1992TIP3   OH2 5918   4.232   3.235   2.262  0.2208  0.2255  0.1947
 1992TIP3    H1 5919   4.307   3.271   2.214 -0.7987 -0.1022 -1.7361
 1992TIP3    H2 5920   4.235   3.278   2.348  2.3131  0.5703 -0.0171
 1993TIP3   OH2 5921   1.310   7.050   1.104  0.3789 -0.3139  0.4069
 1993TIP3    H1 5922   1.255   6.987   1.057  2.5603 -1.3727 -0.8398
 1993TIP3    H2 5923   1.384   6.999   1.137  1.0528  1.2005  1.3437
 1994TIP3   OH2 5924   5.809   2.477   3.064  0.0846 -0.1709  0.4407
 1994TIP3    H1 5925   5.736   2.517   3.113  0.5816  1.1257  0.1610
 1994TIP3    H2 5926   5.880   2.540   3.071  0.1929  0.0507 -1.9378
 1995TIP3   OH2 5927   4.647   1.792   5.185 -0.0213 -0.1749  0.2782
 1995TIP3    H1 5928   4.688   1.734   5.120 -1.8394  1.2489 -2.3582
 1995TIP3    H2 5929   4.562   1.752   5.202 -0.2411  0.3506  0.4310
 1996TIP3   OH2 5930   0.891   4.665   5.882  0.6559  0.1477  0.2689
 1996TIP3    H1 5931   0.968   4.689   5.933  1.4105 -0.1113 -0.7349
 1996TIP3    H2 5932   0.925   4.642   5.796 -0.6263  0.8373 -0.4468
 1997TIP3   OH2 5933   5.068   2.723   5.894 -0.2448  0.1740 -0.0874
 1997TIP3    H1 5934   5.146   2.734   5.948  0.7433 -1.7340 -1.0389
 1997TIP3    H2 5935   4.999   2.699   5.956 -0.0862  1.7563  0.7482
 1998TIP3   OH2 5936   7.606   6.749   0.671  0.0196  0.1031 -0.3865
 1998TIP3    H1 5937   7.616   6.706   0.756 -0.0846  2.2506  0.7645
 1998TIP3    H2 5938   7.515   6.732   0.646 -0.5366  1.0826  0.8874
 1999TIP3   OH2 5939   1.059   1.175   5.302  0.0419  0.0168  0.3039
 1999TIP3    H1 5940   0.980   1.224   5.278  0.7474  1.4821  0.8119
 1999TIP3    H2 5941   1.129   1.240   5.296  1.1522 -1.1590  0.2358
 2000TIP3   OH2 5942   1.988   4.073   3.543 -0.2137  0.0342  0.0839
 2000TIP3    H1 5943   2.009   4.145   3.484 -1.5734  1.6628  1.4668
 2000TIP3    H2 5944   1.979   4.115   3.629  0.9762 -2.1247  1.3403
 2001TIP3   OH2 5945   5.207   2.166   1.418 -0.6783  0.4427 -0.2639
 2001TIP3    H1 5946   5.217   2.176   1.513  1.0362 -0.3259 -0.3248
 2001TIP3    H2 5947   5.196   2.255   1.386  2.4028  1.1936  0.3537
 2002TIP3   OH2 5948   6.185   7.274   2.847  0.1269  0.1346 -0.2869
 2002TIP3    H1 5949   6.235   7.262   2.927  2.9398 -1.6458 -2.1116
 2002TIP3    H2 5950   6.149   7.187   2.828  0.4735  0.2394 -1.5039
 2003TIP3   OH2 5951   4.286   3.744   6.324 -0.2910  0.6328 -0.0464
 2003TIP3    H1 5952   4.294   3.793   6.405 -2.7305  0.3365  0.4561
 2003TIP3    H2 5953   4.293   3.652   6.350 -3.3592  0.3897  0.3230
 2004TIP3   OH2 5954   2.387   0.398   2.015  0.2142 -0.6084 -0.0829
 2004TIP3    H1 5955   2.308   0.393   1.961  0.0178  0.7520  0.0504
 2004TIP3    H2 5956   2.387   0.487   2.049  0.8359 -1.1699  1.4324
 2005TIP3   OH2 5957   2.755   2.438   5.026  0.0295  0.3166 -0.3658
 2005TIP3    H1 5958   2.810   2.364   5.053  1.2373  1.2002 -0.3085
 2005TIP3    H2 5959   2.669   2.399   5.009  0.3016 -0.9075  0.8281
 2006TIP3   OH2 5960   0.133   4.169   3.646 -0.3427 -0.2805 -0.1633
 2006TIP3    H1 5961   0.185   4.209   3.715 -0.3921  0.4989 -0.5682
 2006TIP3    H2 5962   0.158   4.077   3.647  0.8646  0.0391 -0.1999
 2007TIP3   OH2 5963   4.958   7.253   0.171 -0.3206 -0.3094  0.2256
 2007TIP3    H1 5964   4.962   7.187   0.241  0.5674 -0.3510  0.1424
 2007TIP3    H2 5965   4.956   7.202   0.090 -0.3350 -0.2440  0.1852
 2008TIP3   OH2 5966   4.932   1.360   4.183  0.2465  0.1272 -0.0009
 2008TIP3    H1 5967   4.940   1.286   4.244 -0.4867  0.9102  1.0728
 2008TIP3    H2 5968   4.862   1.333   4.123  0.5786 -0.4058 -0.1635
 2009TIP3   OH2 5969   0.684   6.022   5.578 -0.4153  0.4859 -0.4767
 2009TIP3    H1 5970   0.625   5.959   5.536 -0.2689  0.0697 -0.0784
 2009TIP3    H2 5971   0.687   6.096   5.519 -0.4691  0.0492 -1.0355
 2010TIP3   OH2 5972   4.522   7.080   2.751 -0.4407  0.0128  0.0537
 2010TIP3    H1 5973   4.547   7.098   2.661  0.6530 -0.2418  0.2816
 2010TIP3    H2 5974   4.494   7.164   2.786  0.4530  0.4088 -0.1424
 2011TIP3   OH2 5975   7.847   0.047   4.108 -0.0663  0.3199 -0.8028
 2011TIP3    H1 5976   7.908   0.110   4.145 -0.4791 -0.0914  0.6249
 2011TIP3    H2 5977   7.771   0.100   4.082  0.3669  0.6559 -1.4196
 2012TIP3   OH2 5978   1.823   5.183   5.538 -0.3834 -0.3042  0.1764
 2012TIP3    H1 5979   1.826   5.256   5.476 -3.5202 -0.9949 -1.0062
 2012TIP3    H2 5980   1.913   5.173   5.568  0.5552  2.6241 -1.2611
 2013TIP3   OH2 5981   1.539   3.893   6.418 -1.0511  0.4700 -0.3066
 2013TIP3    H1 5982   1.557   3.799   6.406 -0.9416  0.6721 -1.9309
 2013TIP3    H2 5983   1.471   3.896   6.486  0.7040 -0.6220  1.6335
 2014TIP3   OH2 5984   6.601   0.091   4.689 -0.0136 -0.4185 -0.1015
 2014TIP3    H1 5985   6.568   0.114   4.602 -0.3560  0.3482  0.2200
 2014TIP3    H2 5986   6.676   0.033   4.672  0.3228  0.2326 -0.9285
 2015TIP3   OH2 5987   7.313   0.440   0.702 -0.0062  0.4223 -0.8503
 2015TIP3    H1 5988   7.297   0.497   0.777  1.4830  0.9133 -0.8641
 2015TIP3    H2 5989   7.391   0.477   0.660  0.6470 -1.2589 -1.2162
 2016TIP3   OH2 5990   7.191   1.996   5.935 -0.2667  0.1401 -0.0995
 2016TIP3    H1 5991   7.172   2.034   5.849 -0.0012 -1.6515 -0.9850
 2016TIP3    H2 5992   7.106   1.982   5.975 -0.6765 -2.4595 -1.6567
 2017TIP3   OH2 5993   0.760   0.265   3.403  0.2499  0.2869  0.2318
 2017TIP3    H1 5994   0.789   0.284   3.493  1.9733 -0.8886 -0.0255
 2017TIP3    H2 5995   0.690   0.328   3.387  0.9749  1.5913  1.8464
 2018TIP3   OH2 5996   2.778   4.684   4.937 -1.0516  0.3644  0.4179
 2018TIP3    H1 5997   2.785   4.747   5.009 -0.9892  0.3614  0.4142
 2018TIP3    H2 5998   2.685   4.685   4.914 -0.8546  1.3789 -0.4070
 2019TIP3   OH2 5999   2.999   6.447   6.366 -0.3560 -0.9633  0.6248
 2019TIP3    H1 6000   2.993   6.411   6.277  0.7136 -0.1721  0.2022
 2019TIP3    H2 6001   3.035   6.535   6.353  1.9104 -1.6185  1.9649
 2020TIP3   OH2 6002   8.063   5.917   5.147 -0.2908 -0.2104  0.1856
 2020TIP3    H1 6003   8.138   5.870   5.183  1.1704  2.5182  0.9772
 2020TIP3    H2 6004   8.095   5.955   5.065 -0.3659  1.9741  1.1181
 2021TIP3   OH2 6005   6.475   1.493   1.911 -0.4727 -0.5539  0.4247
 2021TIP3    H1 6006   6.402   1.532   1.863 -0.2080 -0.6979 -0.1064
 2021TIP3    H2 6007   6.536   1.466   1.843  1.2277  1.7897  0.9100
 2022TIP3   OH2 6008   6.238   7.621   0.593 -0.0072 -0.0153 -0.2086
 2022TIP3    H1 6009   6.331   7.621   0.569  0.3174  0.8988  0.9031
 2022TIP3    H2 6010   6.220   7.712   0.616 -0.5088 -0.6066  1.9572
 2023TIP3   OH2 6011   7.579   3.831   1.956 -0.3411  0.4887  0.3754
 2023TIP3    H1 6012   7.651   3.876   1.913 -0.8807  0.9643 -0.0400
 2023TIP3    H2 6013   7.522   3.803   1.885 -0.1722 -0.5883  0.6472
 2024TIP3   OH2 6014   0.224   5.339   0.025 -0.1601  0.9337  0.0448
 2024TIP3    H1 6015   0.263   5.271  -0.029  1.3068  2.2266 -0.5936
 2024TIP3    H2 6016   0.173   5.291   0.091  0.8339 -0.7661 -0.3690
 2025TIP3   OH2 6017   0.783   3.607   0.608 -0.0197 -0.2593 -0.0266
 2025TIP3    H1 6018   0.786   3.511   0.602  1.3878 -0.2806  0.7214
 2025TIP3    H2 6019   0.756   3.636   0.521 -1.3493 -1.3526 -0.0227
 2026TIP3   OH2 6020   0.706   0.362   5.467 -0.0608 -1.0604  0.3963
 2026TIP3    H1 6021   0.631   0.304   5.455 -0.0192 -0.7606 -1.9998
 2026TIP3    H2 6022   0.737   0.379   5.378  1.8526  0.1426  1.2189
 2027TIP3   OH2 6023   6.713   7.196   1.402  0.0549  0.0813  0.1758
 2027TIP3    H1 6024   6.807   7.192   1.418  0.8183 -2.4068 -3.7024
 2027TIP3    H2 6025   6.675   7.149   1.477  1.9810  0.0417  1.2022
 2028TIP3   OH2 6026   0.558   0.517   0.651  0.2004 -0.2046  0.1259
 2028TIP3    H1 6027   0.574   0.605   0.685  0.4493  0.1999 -0.9997
 2028TIP3    H2 6028   0.611   0.460   0.707  0.5170  0.4297  0.4876
 2029TIP3   OH2 6029   2.161   0.562   6.473  0.1240 -0.0334 -0.3462
 2029TIP3    H1 6030   2.169   0.472   6.442  1.7365 -0.5246  1.3798
 2029TIP3    H2 6031   2.241   0.579   6.522 -1.7558  1.0205  2.6721
 2030TIP3   OH2 6032   0.217   7.646   2.371  0.1433  0.2168 -0.0464
 2030TIP3    H1 6033   0.167   7.724   2.392  1.8771  1.2949  0.2684
 2030TIP3    H2 6034   0.254   7.663   2.284  0.2553 -0.4136 -0.1319
 2031TIP3   OH2 6035   2.352   1.614   0.153 -0.5131 -0.4025 -0.1884
 2031TIP3    H1 6036   2.272   1.562   0.158 -2.1622  1.9855 -0.0823
 2031TIP3    H2 6037   2.324   1.700   0.123  1.4359  1.5519  2.8828
 2032TIP3   OH2 6038   0.396   5.414   1.883 -0.6621  0.4872 -0.0662
 2032TIP3    H1 6039   0.331   5.346   1.871  0.1925 -0.4064  0.2336
 2032TIP3    H2 6040   0.347   5.487   1.922 -1.3268 -0.4780  0.9939
 2033TIP3   OH2 6041   3.241   2.778   2.841 -0.8761  0.6389 -0.3758
 2033TIP3    H1 6042   3.177   2.845   2.865 -1.2319  0.0182  0.4702
 2033TIP3    H2 6043   3.261   2.795   2.748 -2.0502  1.0182 -0.5710
 2034TIP3   OH2 6044   5.090   1.136   4.051 -0.0943 -0.1422  0.4336
 2034TIP3    H1 6045   5.017   1.160   3.994  0.3802 -1.8113 -0.9647
 2034TIP3    H2 6046   5.157   1.201   4.033 -1.8599  2.7106  3.2896
 2035TIP3   OH2 6047   1.918   4.219   1.590  0.3120 -0.0078  0.4042
 2035TIP3    H1 6048   2.004   4.252   1.615  0.4335 -0.0031 -0.0118
 2035TIP3    H2 6049   1.915   4.130   1.624  0.7591 -0.2552 -0.1959
 2036TIP3   OH2 6050   3.355   7.596   2.322  0.7975 -0.3518 -0.0311
 2036TIP3    H1 6051   3.369   7.546   2.402  2.1268 -0.8193 -0.5181
 2036TIP3    H2 6052   3.392   7.683   2.340 -0.0223 -0.0527  0.2605
 2037TIP3   OH2 6053   5.125   3.538   0.518  0.7117 -0.1154 -0.1642
 2037TIP3    H1 6054   5.041   3.532   0.564  0.8629 -1.4191 -0.0418
 2037TIP3    H2 6055   5.154   3.628   0.535 -0.1374  0.0220  0.6891
 2038TIP3   OH2 6056   4.412   4.417   2.285  0.0441 -0.2437 -0.3212
 2038TIP3    H1 6057   4.364   4.493   2.250 -0.1628 -0.7278 -1.1167
 2038TIP3    H2 6058   4.417   4.357   2.211  0.0611 -1.0766  0.3530
 2039TIP3   OH2 6059   3.469   1.684   3.950 -0.5519  0.4958  0.7074
 2039TIP3    H1 6060   3.486   1.773   3.980 -0.0152  0.3253  0.9218
 2039TIP3    H2 6061   3.507   1.628   4.018 -1.7645  0.0954  1.0767
 2040TIP3   OH2 6062   7.771   0.311   1.253  0.7156 -0.4956 -0.3260
 2040TIP3    H1 6063   7.771   0.302   1.349 -0.8417  0.2983 -0.2184
 2040TIP3    H2 6064   7.700   0.254   1.224 -1.6104  2.3039 -0.5891
 2041TIP3   OH2 6065   2.147   4.986   0.997 -0.4578 -0.4861 -0.1385
 2041TIP3    H1 6066   2.119   4.894   0.998  1.0619 -0.9910  0.1415
 2041TIP3    H2 6067   2.240   4.982   0.972 -0.8779  1.1610 -2.2272
 2042TIP3   OH2 6068   5.848   0.393   1.370  0.3220 -0.6081 -0.3752
 2042TIP3    H1 6069   5.754   0.409   1.363  0.3826 -0.8778 -2.0160
 2042TIP3    H2 6070   5.886   0.481   1.380  0.0481 -0.2934 -1.8725
 2043TIP3   OH2 6071   8.050   5.059   1.278 -0.5000  0.7159  0.3925
 2043TIP3    H1 6072   8.118   5.115   1.314  0.6118 -0.2104 -0.1790
 2043TIP3    H2 6073   8.056   5.072   1.183 -1.6669  1.2096  0.3671
 2044TIP3   OH2 6074   7.236   1.428   1.305  0.2087  0.3786  0.3169
 2044TIP3    H1 6075   7.230   1.388   1.218  1.3459  1.4875 -0.3100
 2044TIP3    H2 6076   7.319   1.394   1.341 -0.0640  0.2299  0.8188
 2045TIP3   OH2 6077   1.292   0.128   6.512 -0.3118  0.0148 -0.6336
 2045TIP3    H1 6078   1.322   0.037   6.518 -1.1199 -0.1869  0.6987
 2045TIP3    H2 6079   1.222   0.126   6.447 -1.0693 -0.5379  0.1835
 2046TIP3   OH2 6080   8.194   0.411   3.519  0.0995 -0.7431  0.4650
 2046TIP3    H1 6081   8.102   0.392   3.500 -0.3107  0.0026  1.5936
 2046TIP3    H2 6082   8.241   0.383   3.441 -1.5391  3.0963 -2.1660
 2047TIP3   OH2 6083   1.614   0.659   1.752 -0.0328 -0.1312  0.1180
 2047TIP3    H1 6084   1.632   0.645   1.659 -1.3232 -1.5390  0.0433
 2047TIP3    H2 6085   1.520   0.676   1.757 -0.0003 -0.1516  1.1657
 2048TIP3   OH2 6086   4.121   6.267   4.001 -0.3899  0.3542  0.1206
 2048TIP3    H1 6087   4.208   6.261   4.041 -0.4547 -0.6442  0.1308
 2048TIP3    H2 6088   4.063   6.220   4.061 -0.4495 -1.4207 -1.2299
 2049TIP3   OH2 6089   7.787   4.913   5.729  0.2912  0.9572  0.1212
 2049TIP3    H1 6090   7.865   4.960   5.700  1.0832 -0.1857  0.3433
 2049TIP3    H2 6091   7.766   4.951   5.814  0.4841  1.3867 -0.0180
 2050TIP3   OH2 6092   3.913   6.903   5.779 -0.0830  0.1024  0.0614
 2050TIP3    H1 6093   3.965   6.901   5.860  0.4481 -0.6221 -0.2840
 2050TIP3    H2 6094   3.822   6.897   5.808 -0.0083  1.6268  0.6953
 2051TIP3   OH2 6095   6.062   5.717   2.772  0.1468 -0.3351  0.2163
 2051TIP3    H1 6096   5.971   5.702   2.799 -0.2903  0.7263 -0.6016
 2051TIP3    H2 6097   6.058   5.795   2.716  1.7734  0.6191  1.3546
 2052TIP3   OH2 6098   3.730   4.035   4.655  0.1302 -0.0515 -0.2164
 2052TIP3    H1 6099   3.731   3.940   4.664 -0.7520 -0.0886 -0.4113
 2052TIP3    H2 6100   3.708   4.050   4.563 -0.3266  0.3386 -0.0439
 2053TIP3   OH2 6101   6.334   2.999   5.256 -0.2399 -0.3586 -0.3804
 2053TIP3    H1 6102   6.383   3.080   5.274 -0.5345  0.1105 -1.5633
 2053TIP3    H2 6103   6.314   2.963   5.342  1.4964 -0.1457  0.1574
 2054TIP3   OH2 6104   3.638   5.738   4.064  0.2809 -0.3866 -0.2465
 2054TIP3    H1 6105   3.722   5.766   4.100 -0.1603  0.6423  0.0371
 2054TIP3    H2 6106   3.613   5.662   4.115  0.9845 -0.6248 -0.2558
 2055TIP3   OH2 6107   7.042   5.373   5.518 -0.2868 -0.4201 -0.3042
 2055TIP3    H1 6108   7.117   5.409   5.566 -1.1249  0.6544  0.2351
 2055TIP3    H2 6109   7.057   5.399   5.428  0.1161 -0.4311 -0.2435
 2056TIP3   OH2 6110   2.953   6.183   2.166 -0.2945 -0.4216  0.0262
 2056TIP3    H1 6111   2.950   6.276   2.187 -0.8747 -0.9369  2.5341
 2056TIP3    H2 6112   2.984   6.141   2.247  0.2039 -2.3962 -1.1185
 2057TIP3   OH2 6113   7.934   3.117   2.773  0.0635  0.1108  0.0627
 2057TIP3    H1 6114   7.955   3.153   2.687 -0.7346 -0.3593 -0.3444
 2057TIP3    H2 6115   7.943   3.022   2.762  1.4945  0.1158  0.9384
 2058TIP3   OH2 6116   0.144   6.979   5.259  0.3820  0.0809  0.3826
 2058TIP3    H1 6117   0.111   6.908   5.205  0.7400 -0.2748  0.6258
 2058TIP3    H2 6118   0.131   7.058   5.205 -2.9989  0.3255  1.3556
 2059TIP3   OH2 6119   0.218   4.224   0.745 -0.1984  0.3264 -0.2673
 2059TIP3    H1 6120   0.210   4.246   0.838  1.0242 -0.1292 -0.0451
 2059TIP3    H2 6121   0.303   4.260   0.719 -0.7379  0.8690 -1.3392
 2060TIP3   OH2 6122   2.095   2.666   0.310  0.0402 -0.0560 -0.2464
 2060TIP3    H1 6123   2.062   2.623   0.231  0.2309 -0.9844  0.1650
 2060TIP3    H2 6124   2.171   2.614   0.336 -0.1068  0.1395  0.6224
 2061TIP3   OH2 6125   2.700   6.503   6.077 -0.1824 -0.2477  0.0440
 2061TIP3    H1 6126   2.662   6.492   6.164 -1.8016  1.0992 -0.4393
 2061TIP3    H2 6127   2.635   6.464   6.018 -0.0853  0.6769 -0.6977
 2062TIP3   OH2 6128   1.436   0.203   0.851  0.4513 -0.2142  0.0424
 2062TIP3    H1 6129   1.369   0.264   0.821 -0.6293 -1.0503  0.6927
 2062TIP3    H2 6130   1.519   0.250   0.837 -0.1667  0.4518 -1.7304
 2063TIP3   OH2 6131   6.788   1.640   4.351  0.2474 -0.2431  0.2831
 2063TIP3    H1 6132   6.810   1.733   4.356 -0.6539  0.0406 -0.6989
 2063TIP3    H2 6133   6.695   1.635   4.374  0.3653 -0.9496  0.6547
 2064TIP3   OH2 6134   2.829   6.687   6.312  0.4637 -0.7350  0.0590
 2064TIP3    H1 6135   2.781   6.606   6.331 -0.9345  0.1891  0.6297
 2064TIP3    H2 6136   2.899   6.689   6.377 -0.6916 -0.5375  1.3415
 2065TIP3   OH2 6137   8.021   6.607   5.739 -0.4089 -0.6771  0.1860
 2065TIP3    H1 6138   8.032   6.552   5.817 -0.9956  1.1256  1.6025
 2065TIP3    H2 6139   8.049   6.694   5.766 -0.5320 -0.0090 -1.6650
 2066TIP3   OH2 6140   4.024   5.099   5.183  1.0227  0.6357  0.6410
 2066TIP3    H1 6141   3.944   5.141   5.152  1.8228  0.3795 -2.0306
 2066TIP3    H2 6142   4.018   5.102   5.278 -2.1031  0.6904  0.5260
 2067TIP3   OH2 6143   6.140   7.146   6.585  0.7734 -0.6942 -0.2626
 2067TIP3    H1 6144   6.062   7.195   6.611  0.7976 -0.9207  0.2405
 2067TIP3    H2 6145   6.154   7.170   6.493 -0.5239 -1.4828 -0.6928
 2068TIP3   OH2 6146   3.572   6.660   2.322 -0.3829  0.1470  0.2272
 2068TIP3    H1 6147   3.579   6.730   2.387  2.8005 -1.4703  1.8177
 2068TIP3    H2 6148   3.504   6.691   2.262 -1.7503  2.8657  2.8823
 2069TIP3   OH2 6149   7.310   2.365   3.664  0.4537 -0.1974  0.0228
 2069TIP3    H1 6150   7.392   2.373   3.616  1.5137  0.4328  1.8275
 2069TIP3    H2 6151   7.325   2.413   3.746 -2.0180  0.7005  0.0531
 2070TIP3   OH2 6152   6.729   4.370   1.593  0.0180 -0.4018 -0.1120
 2070TIP3    H1 6153   6.652   4.330   1.551 -1.0628  1.3273  0.1422
 2070TIP3    H2 6154   6.782   4.401   1.520  1.0783 -2.5353 -0.3350
 2071TIP3   OH2 6155   6.458   0.904   6.720  0.0994 -0.0618  0.4515
 2071TIP3    H1 6156   6.415   0.846   6.783  0.3398  0.1429  0.8102
 2071TIP3    H2 6157   6.465   0.852   6.640  1.2365 -0.9186  1.0699
 2072TIP3   OH2 6158   1.882   2.110   3.482 -0.4760  0.4156 -0.4688
 2072TIP3    H1 6159   1.823   2.141   3.550 -0.0671  0.2108 -0.0108
 2072TIP3    H2 6160   1.933   2.187   3.456 -2.3628  1.1173 -2.3934
 2073TIP3   OH2 6161   5.899   0.609   4.471 -0.2738  0.0540 -0.7392
 2073TIP3    H1 6162   5.843   0.537   4.502  0.6474 -0.2414  0.2947
 2073TIP3    H2 6163   5.865   0.629   4.384 -1.1618 -0.9934 -0.6635
 2074TIP3   OH2 6164   4.681   0.983   4.262  0.2741 -0.0935 -0.1777
 2074TIP3    H1 6165   4.747   0.919   4.288  2.4046  1.7875 -0.5991
 2074TIP3    H2 6166   4.709   1.011   4.175  0.1526  2.2549  0.4777
 2075TIP3   OH2 6167   5.564   5.934   3.555 -0.4991  0.0159  0.0806
 2075TIP3    H1 6168   5.630   5.868   3.572 -0.9790 -1.0952 -2.0874
 2075TIP3    H2 6169   5.506   5.930   3.632  1.1012  0.0181  1.3305
 2076TIP3   OH2 6170   5.518   4.198   6.047 -0.6248  0.0824  0.0531
 2076TIP3    H1 6171   5.521   4.265   5.978  1.6178  0.3415  0.3275
 2076TIP3    H2 6172   5.536   4.116   6.002  0.6433  0.2251  0.2806
 2077TIP3   OH2 6173   6.053   7.318   4.673 -0.0469  0.6786  0.3687
 2077TIP3    H1 6174   6.006   7.237   4.691 -0.0741  0.8658  1.1814
 2077TIP3    H2 6175   6.048   7.328   4.578 -0.6127  0.0705  0.3271
 2078TIP3   OH2 6176   7.438   4.706   4.608  0.3536  0.1071 -0.1241
 2078TIP3    H1 6177   7.405   4.790   4.640  2.3436  0.8502  0.1457
 2078TIP3    H2 6178   7.361   4.650   4.603 -0.7511  1.3886  1.4828
 2079TIP3   OH2 6179   0.788   5.561   1.393 -0.7089 -0.0790  0.2043
 2079TIP3    H1 6180   0.835   5.592   1.316 -0.5834 -1.4100 -0.2799
 2079TIP3    H2 6181   0.751   5.640   1.432 -1.5609  0.5221 -1.7266
 2080TIP3   OH2 6182   6.804   4.886   5.711  0.5480  0.0452  0.5508
 2080TIP3    H1 6183   6.715   4.865   5.741  0.8442 -2.5608 -0.1205
 2080TIP3    H2 6184   6.851   4.910   5.791 -0.0905 -1.2977  1.3700
 2081TIP3   OH2 6185   6.894   3.936   3.169 -0.4480 -0.1440 -0.2073
 2081TIP3    H1 6186   6.945   3.861   3.138 -1.2213 -0.3473 -1.0099
 2081TIP3    H2 6187   6.917   3.943   3.262  1.5507  0.1854 -0.6662
 2082TIP3   OH2 6188   8.267   5.513   6.537 -0.0374 -0.2082 -0.3648
 2082TIP3    H1 6189   8.211   5.576   6.583  0.6887 -0.0462  0.3168
 2082TIP3    H2 6190   8.256   5.533   6.445  0.1024  0.8529 -0.1567
 2083TIP3   OH2 6191   4.472   0.691   2.720  0.1252  0.2605  0.1107
 2083TIP3    H1 6192   4.518   0.606   2.726 -1.5593 -0.6860  0.2068
 2083TIP3    H2 6193   4.416   0.682   2.643 -1.6729  0.4402  1.3477
 2084TIP3   OH2 6194   8.078   2.518   4.448  0.2166  0.1477  0.5499
 2084TIP3    H1 6195   8.027   2.593   4.418 -2.0160 -1.6953 -0.6162
 2084TIP3    H2 6196   8.012   2.452   4.470  2.0914 -1.8296  0.5600
 2085TIP3   OH2 6197   3.438   5.741   3.128  0.1919 -0.4351  0.1842
 2085TIP3    H1 6198   3.359   5.734   3.073  0.2281 -1.7667  0.2824
 2085TIP3    H2 6199   3.418   5.689   3.206  0.3109  1.0720  1.2711
 2086TIP3   OH2 6200   7.426   1.187   4.154 -0.2777 -0.0190  0.1075
 2086TIP3    H1 6201   7.428   1.094   4.129 -0.1033 -0.1536  0.6191
 2086TIP3    H2 6202   7.360   1.191   4.224  0.3973  0.0831  0.7407
 2087TIP3   OH2 6203   2.664   3.402   4.452 -0.4078  0.3527 -0.2396
 2087TIP3    H1 6204   2.716   3.397   4.532  0.0960  3.0654 -0.3018
 2087TIP3    H2 6205   2.717   3.356   4.387  0.1216 -0.1737  0.5465
 2088TIP3   OH2 6206   0.051   4.587   4.821 -0.2908 -0.2098  0.5181
 2088TIP3    H1 6207  -0.005   4.509   4.822  0.1957 -0.5578  1.3110
 2088TIP3    H2 6208   0.068   4.605   4.913  3.0675 -1.6827  0.3141
 2089TIP3   OH2 6209   3.362   0.118   5.865  0.0524 -0.2541 -0.2420
 2089TIP3    H1 6210   3.318   0.158   5.791  1.0496 -0.9890 -1.2687
 2089TIP3    H2 6211   3.393   0.033   5.832  2.2746  0.2458  0.3633
 2090TIP3   OH2 6212   3.858   1.088   0.081 -0.1225 -0.4631  0.1089
 2090TIP3    H1 6213   3.802   1.157   0.047 -0.5557 -1.2657 -0.8341
 2090TIP3    H2 6214   3.946   1.125   0.078 -0.3559  0.0592 -0.3471
 2091TIP3   OH2 6215   1.196   4.146   1.586 -0.1500  0.6154 -0.4109
 2091TIP3    H1 6216   1.225   4.141   1.677  0.5756  0.8354 -0.6270
 2091TIP3    H2 6217   1.233   4.228   1.554 -1.2083  1.0198 -0.6290
 2092TIP3   OH2 6218   5.688   1.382   1.468  0.3776  0.2543  0.2504
 2092TIP3    H1 6219   5.606   1.426   1.446 -0.0320 -0.0888  1.0324
 2092TIP3    H2 6220   5.752   1.418   1.406 -0.0523  1.5428  0.5165
 2093TIP3   OH2 6221   4.637   4.036   1.663  0.1745 -0.6217 -0.0096
 2093TIP3    H1 6222   4.634   3.985   1.582  0.0722  0.9151 -0.9988
 2093TIP3    H2 6223   4.643   4.127   1.634 -0.4267 -0.0041  1.7140
 2094TIP3   OH2 6224   1.143   6.597   3.017  0.3600  0.2423 -0.4703
 2094TIP3    H1 6225   1.206   6.581   2.947  0.5814  0.0467 -0.2274
 2094TIP3    H2 6226   1.119   6.510   3.048  1.7989  0.3508  1.0613
 2095TIP3   OH2 6227   7.750   6.937   4.638 -0.2793  0.4691  0.0292
 2095TIP3    H1 6228   7.668   6.892   4.618  0.2440 -0.4548 -0.0575
 2095TIP3    H2 6229   7.817   6.886   4.593  0.4029  0.9357  0.5095
 2096TIP3   OH2 6230   6.497   4.499   1.999  0.3771 -0.1936  0.2760
 2096TIP3    H1 6231   6.525   4.558   2.069  2.4992 -0.3060 -0.4158
 2096TIP3    H2 6232   6.543   4.529   1.921 -2.1705  0.1109 -1.2084
 2097TIP3   OH2 6233   2.470   2.738   4.962 -0.0410  0.1439 -0.4352
 2097TIP3    H1 6234   2.472   2.821   4.913  0.0943  0.5977  0.3243
 2097TIP3    H2 6235   2.469   2.671   4.894 -0.7197  0.7742 -1.0738
 2098TIP3   OH2 6236   7.365   4.638   1.267 -0.0864  0.8290 -0.0883
 2098TIP3    H1 6237   7.313   4.637   1.348  0.2527  2.5006  0.1861
 2098TIP3    H2 6238   7.426   4.711   1.279 -0.2499  1.3289 -1.9832
 2099TIP3   OH2 6239   5.628   7.013   5.423 -0.2605  0.3279 -0.4500
 2099TIP3    H1 6240   5.679   6.940   5.388 -0.5157 -0.5534  0.9338
 2099TIP3    H2 6241   5.682   7.090   5.409 -0.1790 -0.0344 -2.3600
 2100TIP3   OH2 6242   5.544   3.667   5.382 -0.7017 -0.1012 -0.0410
 2100TIP3    H1 6243   5.478   3.719   5.428 -0.8934 -1.5452  1.4014
 2100TIP3    H2 6244   5.533   3.578   5.416  1.8262 -0.4451  0.0879
 2101TIP3   OH2 6245   3.356   5.842   6.443 -0.4415 -0.3216 -0.4136
 2101TIP3    H1 6246   3.385   5.774   6.383 -0.6626 -1.1650  0.4041
 2101TIP3    H2 6247   3.418   5.838   6.516 -0.1708  0.6873 -0.5707
 2102TIP3   OH2 6248   1.890   2.336   2.770  0.0580  0.6763  0.3480
 2102TIP3    H1 6249   1.803   2.367   2.795 -0.6091 -1.0344  0.2749
 2102TIP3    H2 6250   1.950   2.401   2.807 -1.2589  2.3394 -0.3009
 2103TIP3   OH2 6251   5.846   5.023   3.969  0.0360  0.5883  0.3019
 2103TIP3    H1 6252   5.752   5.010   3.983  0.3566  0.4502  2.6932
 2103TIP3    H2 6253   5.887   4.953   4.019  1.4437 -0.8175 -2.5738
 2104TIP3   OH2 6254   3.256   0.887   0.163  0.0862  0.4314  1.0432
 2104TIP3    H1 6255   3.299   0.896   0.248 -0.3860 -3.2584  1.8724
 2104TIP3    H2 6256   3.170   0.850   0.183 -0.6947  1.0006 -0.9859
 2105TIP3   OH2 6257   7.131   5.792   0.242  0.1981 -0.3517  0.2087
 2105TIP3    H1 6258   7.187   5.757   0.173  0.2490 -1.3160  0.7144
 2105TIP3    H2 6259   7.187   5.793   0.320 -0.5438 -1.6495  0.7987
 2106TIP3   OH2 6260   7.577   4.085   0.911 -0.4240  0.4550  0.2967
 2106TIP3    H1 6261   7.533   4.164   0.939 -0.4033  1.1309 -1.4711
 2106TIP3    H2 6262   7.603   4.102   0.820  2.9037 -0.1296  1.0091
 2107TIP3   OH2 6263   2.421   5.952   3.234 -0.1235  0.1458  0.5836
 2107TIP3    H1 6264   2.497   6.010   3.226  0.4937 -0.4856  1.6433
 2107TIP3    H2 6265   2.345   6.011   3.225  0.4624  1.3256  2.6740
 2108TIP3   OH2 6266   1.404   7.490   0.136  0.2873  0.2165  0.2991
 2108TIP3    H1 6267   1.488   7.446   0.147  0.0620 -0.8023 -1.5605
 2108TIP3    H2 6268   1.349   7.457   0.206  0.2181 -2.3720 -0.8673
 2109TIP3   OH2 6269   1.099   0.341   2.831 -0.5871 -0.0757 -0.1585
 2109TIP3    H1 6270   1.109   0.361   2.924 -0.4541 -0.3954 -0.1038
 2109TIP3    H2 6271   1.098   0.246   2.827 -0.5927 -0.0613 -0.4850
 2110TIP3   OH2 6272   6.549   6.391   5.532 -0.0542  0.1687  0.1743
 2110TIP3    H1 6273   6.457   6.365   5.539  0.1562 -0.5983  0.2054
 2110TIP3    H2 6274   6.552   6.480   5.568 -1.1803  1.1345 -1.9736
 2111TIP3   OH2 6275   1.728   1.571   1.415  0.6454 -0.6035 -0.3192
 2111TIP3    H1 6276   1.813   1.548   1.453  0.5470  0.3345  0.5043
 2111TIP3    H2 6277   1.672   1.589   1.490  0.0690 -0.0039 -0.8724
 2112TIP3   OH2 6278   5.076   7.639   6.565  0.4371 -0.5111  0.4919
 2112TIP3    H1 6279   5.078   7.602   6.477 -1.2664  1.9602 -0.6962
 2112TIP3    H2 6280   5.025   7.575   6.616  0.0797 -1.2239 -0.6993
 2113TIP3   OH2 6281   0.780   4.952   0.429 -0.0505 -0.2315  0.3239
 2113TIP3    H1 6282   0.799   4.909   0.512 -0.8283 -1.6978 -0.2076
 2113TIP3    H2 6283   0.787   5.045   0.447  2.2656 -0.5568  1.4139
 2114TIP3   OH2 6284   6.672   0.771   3.379  0.3748 -0.1085  0.5936
 2114TIP3    H1 6285   6.642   0.681   3.393 -0.7362  0.1426 -0.0249
 2114TIP3    H2 6286   6.720   0.793   3.459  1.2690 -1.4765  0.4542
 2115TIP3   OH2 6287   1.013   5.276   6.756  0.8962 -0.3423 -0.1229
 2115TIP3    H1 6288   0.924   5.281   6.721 -0.1292 -0.0735  2.2875
 2115TIP3    H2 6289   1.065   5.334   6.700  0.0456 -2.0008 -2.7706
 2116TIP3   OH2 6290   0.133   7.767   0.436 -0.1117 -0.5249 -0.5463
 2116TIP3    H1 6291   0.157   7.856   0.411 -3.8326  0.5879 -0.7081
 2116TIP3    H2 6292   0.106   7.773   0.527  0.3386 -1.6798 -0.3191
 2117TIP3   OH2 6293   6.339   1.854   2.500 -0.0105 -0.0335 -0.2690
 2117TIP3    H1 6294   6.315   1.770   2.460 -1.2722 -0.3798  1.1528
 2117TIP3    H2 6295   6.311   1.919   2.436 -2.3103 -0.5659  0.1120
 2118TIP3   OH2 6296   5.613   5.918   4.651 -0.0793 -0.4489 -0.0259
 2118TIP3    H1 6297   5.527   5.958   4.638  0.2876  0.6060  0.6398
 2118TIP3    H2 6298   5.601   5.858   4.725 -0.0465  0.3564  0.6409
 2119TIP3   OH2 6299   2.345   1.292   0.296 -0.1249 -0.3817 -0.3846
 2119TIP3    H1 6300   2.278   1.352   0.264 -0.5888  0.2613  1.6060
 2119TIP3    H2 6301   2.384   1.338   0.371  0.6978 -1.8527  0.1372
 2120TIP3   OH2 6302   1.340   5.754   2.219  0.1293  0.2243  0.3558
 2120TIP3    H1 6303   1.306   5.802   2.295 -0.2172  0.3121  0.1464
 2120TIP3    H2 6304   1.435   5.757   2.230  0.2236  2.3994 -0.5179
 2121TIP3   OH2 6305   2.338   3.643   1.330 -0.2667 -0.6001 -0.6464
 2121TIP3    H1 6306   2.316   3.586   1.403  0.3407  0.6807  0.5746
 2121TIP3    H2 6307   2.412   3.600   1.287 -1.1764 -1.7966 -1.0694
 2122TIP3   OH2 6308   3.421   4.404   4.756 -0.3484  0.1019 -0.1128
 2122TIP3    H1 6309   3.363   4.344   4.803  0.6089 -0.8990 -0.1660
 2122TIP3    H2 6310   3.428   4.481   4.812 -0.1909 -0.5720  0.8173
 2123TIP3   OH2 6311   6.577   1.923   4.016 -0.5289  0.1793 -0.2299
 2123TIP3    H1 6312   6.671   1.938   4.006 -0.6017  0.8654  0.0229
 2123TIP3    H2 6313   6.567   1.896   4.107 -0.3902 -1.5639 -0.7079
 2124TIP3   OH2 6314   4.776   1.688   4.963 -0.4748 -0.6960  0.1590
 2124TIP3    H1 6315   4.871   1.677   4.970 -0.1467  0.9210 -1.1497
 2124TIP3    H2 6316   4.763   1.728   4.878 -2.0731  1.6244  1.3901
 2125TIP3   OH2 6317   6.984   4.910   2.421  0.0852  0.2805 -0.1244
 2125TIP3    H1 6318   6.986   4.818   2.447  2.6503  0.5684  0.9741
 2125TIP3    H2 6319   7.052   4.951   2.474 -0.8692  2.7930 -0.7334
 2126TIP3   OH2 6320   7.031   0.081   3.699  0.3335 -0.3861  0.2608
 2126TIP3    H1 6321   7.092   0.064   3.627  0.7516 -1.2876  0.8149
 2126TIP3    H2 6322   6.959   0.020   3.686 -0.0485  0.0874  0.0956
 2127TIP3   OH2 6323   1.865   5.663   5.357 -0.3637 -0.2325 -0.7916
 2127TIP3    H1 6324   1.906   5.629   5.278  1.9043 -0.6525  0.4932
 2127TIP3    H2 6325   1.913   5.744   5.377  0.3423 -1.0578  1.1001
 2128TIP3   OH2 6326   0.821   2.380   2.782 -0.2464  0.3105 -0.0037
 2128TIP3    H1 6327   0.780   2.294   2.778 -2.2629  1.0803  1.9888
 2128TIP3    H2 6328   0.878   2.376   2.859  1.4196  0.1237 -1.1830
 2129TIP3   OH2 6329   1.733   3.203   4.255 -0.0113 -0.1943 -0.2240
 2129TIP3    H1 6330   1.784   3.273   4.296  0.6802 -0.6154 -0.3356
 2129TIP3    H2 6331   1.666   3.181   4.319  0.2493  0.0438  0.1376
 2130TIP3   OH2 6332   0.579   0.623   3.946 -0.7195 -0.3698  0.2778
 2130TIP3    H1 6333   0.527   0.698   3.975 -1.7508 -0.9978  0.0951
 2130TIP3    H2 6334   0.577   0.629   3.850  0.8903  0.4902  0.2641
 2131TIP3   OH2 6335   3.843   7.388   2.151 -0.3723  0.6881 -0.4749
 2131TIP3    H1 6336   3.831   7.327   2.223  0.8103  0.8535 -0.1145
 2131TIP3    H2 6337   3.768   7.372   2.093 -0.4145 -0.6544 -0.0820
 2132TIP3   OH2 6338   2.951   2.023   5.512  0.2347  0.3408  0.2717
 2132TIP3    H1 6339   3.021   2.005   5.450 -1.5574  0.5771 -1.9656
 2132TIP3    H2 6340   2.936   2.118   5.505 -1.3576  0.0714 -0.5952
 2133TIP3   OH2 6341   4.014   2.644   4.180  0.3237  0.1345  0.3630
 2133TIP3    H1 6342   4.069   2.586   4.232  0.6556  0.0652 -0.0625
 2133TIP3    H2 6343   4.051   2.640   4.092  0.8008  1.5608  0.4705
 2134TIP3   OH2 6344   7.899   6.787   1.636 -0.0686 -0.3908  0.3782
 2134TIP3    H1 6345   7.884   6.861   1.695 -1.1588  0.8060 -1.2954
 2134TIP3    H2 6346   7.818   6.779   1.587  0.3078 -2.2469 -0.0084
 2135TIP3   OH2 6347   2.897   4.814   5.474 -0.2344 -0.4466 -0.3174
 2135TIP3    H1 6348   2.810   4.849   5.493 -0.2739  0.5116 -2.0725
 2135TIP3    H2 6349   2.946   4.889   5.441  0.5233 -1.4770 -1.6311
 2136TIP3   OH2 6350   7.634   0.243   2.657 -0.0466 -0.2965 -0.1274
 2136TIP3    H1 6351   7.670   0.321   2.613  3.1973 -1.0171  0.9374
 2136TIP3    H2 6352   7.558   0.276   2.706 -1.0470  1.3811 -2.6120
 2137TIP3   OH2 6353   2.696   7.027   1.230  0.2488  0.0465 -0.4921
 2137TIP3    H1 6354   2.603   7.045   1.241  0.1422 -1.2843  1.3624
 2137TIP3    H2 6355   2.701   6.978   1.148 -1.1302 -2.2584  0.6903
 2138TIP3   OH2 6356   4.713   2.552   3.132  0.3230 -0.4724  0.3394
 2138TIP3    H1 6357   4.751   2.604   3.203 -1.0021  1.6837 -0.4258
 2138TIP3    H2 6358   4.648   2.497   3.174 -0.3210  0.6563  0.8830
 2139TIP3   OH2 6359   8.144   2.066   5.610  0.0474 -0.6019  0.4875
 2139TIP3    H1 6360   8.151   1.987   5.556 -1.9126 -0.4826 -0.0117
 2139TIP3    H2 6361   8.113   2.033   5.695  1.0638 -0.5553  0.8868
 2140TIP3   OH2 6362   7.655   1.694   6.484  0.4969 -0.1715  0.1937
 2140TIP3    H1 6363   7.723   1.704   6.550  0.2198 -0.0692  0.4631
 2140TIP3    H2 6364   7.684   1.619   6.431  0.7885 -0.1635  0.3402
 2141TIP3   OH2 6365   1.630   5.990   1.170 -0.4270 -0.5071 -0.0465
 2141TIP3    H1 6366   1.721   5.991   1.202 -0.9217 -1.0813  1.4944
 2141TIP3    H2 6367   1.605   6.082   1.167 -0.1702 -0.4026  0.7396
 2142TIP3   OH2 6368   0.178   5.326   6.005  0.7281 -0.4886  0.2075
 2142TIP3    H1 6369   0.140   5.243   6.035  2.0649 -0.8722  0.9128
 2142TIP3    H2 6370   0.265   5.303   5.973  0.8426  0.5397 -0.2487
 2143TIP3   OH2 6371   7.140   5.870   1.386 -0.2689  0.6432 -0.3162
 2143TIP3    H1 6372   7.116   5.782   1.413 -1.7281  1.1666  0.2018
 2143TIP3    H2 6373   7.230   5.882   1.417 -0.2174 -0.4977 -0.0117
 2144TIP3   OH2 6374   1.084   0.932   4.475 -0.8148 -0.1305  0.7700
 2144TIP3    H1 6375   1.172   0.957   4.449 -0.9811  0.0773  0.4097
 2144TIP3    H2 6376   1.033   0.932   4.394 -0.7623 -1.8937  0.6963
 2145TIP3   OH2 6377   0.193   1.516   2.055  0.3359 -0.2380 -0.1542
 2145TIP3    H1 6378   0.167   1.592   2.003  0.7432 -0.2017 -0.3020
 2145TIP3    H2 6379   0.208   1.551   2.143  1.2433 -0.0128 -0.3877
 2146TIP3   OH2 6380   6.322   4.595   2.758  0.4085 -0.3067 -0.5115
 2146TIP3    H1 6381   6.401   4.613   2.708 -0.6889  0.6003 -2.0178
 2146TIP3    H2 6382   6.294   4.509   2.728  0.1727 -0.1001 -0.8888
 2147TIP3   OH2 6383   0.549   5.522   5.960  0.5207  0.6057  0.0294
 2147TIP3    H1 6384   0.578   5.580   6.030  0.1147  0.7682  0.0665
 2147TIP3    H2 6385   0.499   5.453   6.005  1.7744 -0.2998  0.0876
 2148TIP3   OH2 6386   0.637   2.138   2.771  0.5411 -0.4025  0.0077
 2148TIP3    H1 6387   0.595   2.134   2.857  1.5004  0.4091  0.5330
 2148TIP3    H2 6388   0.712   2.078   2.777 -0.7694 -2.2545 -1.0964
 2149TIP3   OH2 6389   2.593   6.968   1.670  0.4715  0.3609  0.0703
 2149TIP3    H1 6390   2.674   6.969   1.721  0.2399 -0.8109  0.5094
 2149TIP3    H2 6391   2.588   6.879   1.635 -0.9037  0.2304  0.5340
 2150TIP3   OH2 6392   7.094   0.636   5.903  0.0483  0.7157  0.2316
 2150TIP3    H1 6393   7.054   0.643   5.990 -1.1957 -0.8446 -0.1627
 2150TIP3    H2 6394   7.147   0.556   5.907 -1.1413 -0.1586 -0.8301
 2151TIP3   OH2 6395   3.832   7.792   3.797 -0.6217  0.8082  0.1391
 2151TIP3    H1 6396   3.748   7.746   3.797 -0.7106  0.8584  2.2049
 2151TIP3    H2 6397   3.813   7.876   3.755 -2.0225  1.4090  1.8102
 2152TIP3   OH2 6398   6.255   1.595   0.632 -0.1893 -0.0803 -0.1419
 2152TIP3    H1 6399   6.292   1.658   0.694 -0.6139 -0.6389  0.6925
 2152TIP3    H2 6400   6.296   1.511   0.656 -1.4546 -0.5765  0.3586
 2153TIP3   OH2 6401   1.974   5.343   4.948 -0.4164 -0.3661  0.2086
 2153TIP3    H1 6402   1.989   5.414   4.885 -1.4240  0.3888  0.7987
 2153TIP3    H2 6403   2.040   5.278   4.926  0.9688  1.0256  0.0603
 2154TIP3   OH2 6404   1.893   3.247   0.725  0.1697  0.0525  0.3198
 2154TIP3    H1 6405   1.902   3.229   0.631  0.8217  0.0159  0.3808
 2154TIP3    H2 6406   1.802   3.229   0.745  0.4433 -1.7117  0.0747
 2155TIP3   OH2 6407   7.072   2.733   5.936 -0.0399  0.3226 -0.7610
 2155TIP3    H1 6408   6.980   2.734   5.961  0.1083 -0.4000 -0.1707
 2155TIP3    H2 6409   7.102   2.823   5.951 -0.0492  0.0228  1.3615
 2156TIP3   OH2 6410   0.579   7.495   4.205  0.3880 -0.2722  0.2792
 2156TIP3    H1 6411   0.578   7.523   4.296  0.9029  0.4175  0.0780
 2156TIP3    H2 6412   0.609   7.404   4.208 -0.4824 -0.5588  0.8638
 2157TIP3   OH2 6413   2.195   2.266   2.318  0.1838 -0.5905 -0.1262
 2157TIP3    H1 6414   2.274   2.310   2.289 -0.8701  0.6798 -1.2333
 2157TIP3    H2 6415   2.171   2.308   2.400 -0.5053  0.5630 -0.8917
 2158TIP3   OH2 6416   2.788   0.421   3.671  0.7728 -0.3703  0.7071
 2158TIP3    H1 6417   2.757   0.509   3.691  1.3719  0.0264 -0.0214
 2158TIP3    H2 6418   2.732   0.392   3.599  1.7319  0.1647 -0.2974
 2159TIP3   OH2 6419   2.974   3.406   5.527  0.2499  0.1807  0.3315
 2159TIP3    H1 6420   3.026   3.347   5.473 -0.0732  0.4999 -0.3442
 2159TIP3    H2 6421   3.032   3.480   5.545 -0.1990  0.9297 -1.1160
 2160TIP3   OH2 6422   0.854   6.890   0.282 -0.0128 -0.3202  0.1261
 2160TIP3    H1 6423   0.844   6.921   0.191  1.3493  1.9673  0.6561
 2160TIP3    H2 6424   0.774   6.840   0.299  0.4217 -2.3071 -2.8300
 2161TIP3   OH2 6425   2.168   3.701   0.480  0.1852 -0.3226 -0.0873
 2161TIP3    H1 6426   2.134   3.613   0.496  0.0486 -0.6118 -1.8004
 2161TIP3    H2 6427   2.261   3.695   0.502 -0.0916 -0.4968  1.1337
 2162TIP3   OH2 6428   3.033   4.492   6.530 -0.5375  0.4215 -0.0313
 2162TIP3    H1 6429   3.054   4.528   6.444 -2.3631  0.4700 -0.5094
 2162TIP3    H2 6430   3.028   4.569   6.588  1.2142  0.3416  0.2807
 2163TIP3   OH2 6431   0.226   1.830   2.794 -0.1460 -0.2054  0.0069
 2163TIP3    H1 6432   0.194   1.849   2.882 -1.8407  0.0567 -0.6299
 2163TIP3    H2 6433   0.184   1.895   2.739  2.6599  1.0959 -0.7463
 2164TIP3   OH2 6434   7.673   6.635   5.466 -0.0846  0.3600  0.1605
 2164TIP3    H1 6435   7.724   6.626   5.385 -1.0585 -0.8829 -0.3507
 2164TIP3    H2 6436   7.597   6.688   5.441  0.1055  0.8119  0.5192
 2165TIP3   OH2 6437   5.788   2.349   1.250  0.5670 -0.1173  0.3545
 2165TIP3    H1 6438   5.846   2.285   1.292  0.0565 -0.3963  0.6545
 2165TIP3    H2 6439   5.843   2.425   1.235  1.1585 -0.5845  0.1035
 2166TIP3   OH2 6440   6.108   0.429   2.907  0.1185 -0.4332 -0.4142
 2166TIP3    H1 6441   6.120   0.347   2.859 -0.5150 -1.4968  1.1749
 2166TIP3    H2 6442   6.052   0.482   2.850 -3.2436 -2.8456  0.3120
 2167TIP3   OH2 6443   5.041   6.126   1.015 -0.1578 -0.0269 -0.2598
 2167TIP3    H1 6444   5.108   6.091   1.074  0.1633 -1.6723 -1.5255
 2167TIP3    H2 6445   5.066   6.218   1.002  0.6023 -0.0456  0.9703
 2168TIP3   OH2 6446   2.625   5.673   2.168  0.3919  0.4548 -0.3663
 2168TIP3    H1 6447   2.628   5.643   2.077 -1.4094 -0.3183 -0.2139
 2168TIP3    H2 6448   2.567   5.611   2.212  2.4645 -0.1925  1.7389
 2169TIP3   OH2 6449   3.679   2.670   2.176 -0.0766  0.4602  0.3007
 2169TIP3    H1 6450   3.657   2.755   2.215  0.2478  1.4004 -1.4508
 2169TIP3    H2 6451   3.770   2.655   2.201  0.0890  0.9862  0.0326
 2170TIP3   OH2 6452   6.278   0.288   6.125  0.8152 -0.0059  0.0511
 2170TIP3    H1 6453   6.330   0.248   6.195  1.0988  0.2724  0.0008
 2170TIP3    H2 6454   6.189   0.292   6.160  0.6404 -1.2915 -0.1873
 2171TIP3   OH2 6455   6.345   0.437   4.437  0.3765 -0.1441 -0.5673
 2171TIP3    H1 6456   6.407   0.384   4.488 -1.0365 -0.0336  1.4070
 2171TIP3    H2 6457   6.332   0.387   4.356 -0.1057 -2.3280  0.7624
 2172TIP3   OH2 6458   4.139   0.117   1.237 -0.0914 -0.4922 -0.6761
 2172TIP3    H1 6459   4.148   0.094   1.144  1.2141 -1.2084 -0.4114
 2172TIP3    H2 6460   4.057   0.166   1.243  0.3369  0.5014 -2.3857
 2173TIP3   OH2 6461   4.413   1.859   1.350  0.0876 -0.0644  0.3704
 2173TIP3    H1 6462   4.358   1.782   1.365 -0.9486  1.0403  2.7008
 2173TIP3    H2 6463   4.480   1.854   1.419  0.2587  0.8900  0.2887
 2174TIP3   OH2 6464   3.751   0.825   4.517  0.6913 -0.3601 -0.4931
 2174TIP3    H1 6465   3.777   0.768   4.590 -0.0232 -0.0053  0.0582
 2174TIP3    H2 6466   3.820   0.815   4.452  1.0626 -1.1107  0.0067
 2175TIP3   OH2 6467   2.638   6.144   2.388  0.2249  0.0804  0.4430
 2175TIP3    H1 6468   2.730   6.129   2.411 -0.1369 -1.9812  0.7084
 2175TIP3    H2 6469   2.617   6.074   2.326 -1.1136  0.6518  0.2220
 2176TIP3   OH2 6470   1.325   5.633   3.294 -0.6258  0.1247  0.0547
 2176TIP3    H1 6471   1.364   5.626   3.381 -2.5628 -1.1099  0.8660
 2176TIP3    H2 6472   1.253   5.694   3.304 -2.7663 -2.2637  0.1097
 2177TIP3   OH2 6473   4.361   1.001   3.081  0.4109  0.0351  0.3616
 2177TIP3    H1 6474   4.414   1.059   3.135  1.2407  1.4260 -1.8159
 2177TIP3    H2 6475   4.422   0.963   3.018 -0.4866 -1.6560  0.4315
 2178TIP3   OH2 6476   2.642   1.191   4.979 -0.5076  0.0905  0.9280
 2178TIP3    H1 6477   2.712   1.129   4.997  0.3616  0.7792  0.0132
 2178TIP3    H2 6478   2.618   1.226   5.065  0.0626 -0.3639  1.2744
 2179TIP3   OH2 6479   6.995   7.202   1.469 -0.4104  0.4953  0.7716
 2179TIP3    H1 6480   7.065   7.187   1.404 -0.1046  0.0921  1.1909
 2179TIP3    H2 6481   7.016   7.287   1.507 -0.7316  0.8531  0.1710
 2180TIP3   OH2 6482   6.457   5.952   4.215  0.1044 -0.5608 -0.3525
 2180TIP3    H1 6483   6.394   5.963   4.286  1.2195  0.5319  0.5096
 2180TIP3    H2 6484   6.411   5.983   4.137 -1.8394 -3.5765 -0.5738
 2181TIP3   OH2 6485   4.124   6.371   5.859  0.2583  0.5709 -0.1402
 2181TIP3    H1 6486   4.214   6.337   5.855 -0.0342 -0.2148 -0.1830
 2181TIP3    H2 6487   4.121   6.422   5.940  0.6564  0.3589  0.0095
 2182TIP3   OH2 6488   3.291   5.608   2.048  0.2703 -0.1228 -0.3328
 2182TIP3    H1 6489   3.246   5.577   2.127 -1.3809  0.8740 -0.8340
 2182TIP3    H2 6490   3.344   5.534   2.020 -0.3738 -1.0475  0.7949
 2183TIP3   OH2 6491   7.936   3.612   5.875  0.0853 -0.7416  0.2493
 2183TIP3    H1 6492   7.901   3.663   5.802  0.1634 -1.0250  0.0119
 2183TIP3    H2 6493   7.917   3.665   5.953  0.4046 -0.2322 -0.0190
 2184TIP3   OH2 6494   1.256   0.579   1.202  0.3790  0.4454 -0.3520
 2184TIP3    H1 6495   1.208   0.539   1.129  0.8227  0.0429 -0.4232
 2184TIP3    H2 6496   1.205   0.557   1.280 -0.2478  1.1074 -0.5606
 2185TIP3   OH2 6497   1.840   3.150   4.546 -0.3339  0.0322 -0.1624
 2185TIP3    H1 6498   1.745   3.136   4.550 -0.2208 -2.7737 -2.8293
 2185TIP3    H2 6499   1.850   3.234   4.501 -1.4803  0.7431  0.8359
 2186TIP3   OH2 6500   2.911   1.243   6.308 -0.1994  0.7603  0.2964
 2186TIP3    H1 6501   2.870   1.277   6.229  0.6854  1.9798  0.3291
 2186TIP3    H2 6502   2.900   1.148   6.303 -0.2446  0.8322 -1.2260
 2187TIP3   OH2 6503   5.432   1.555   6.590 -0.0488 -0.2429  0.0879
 2187TIP3    H1 6504   5.404   1.469   6.622  2.4262 -0.9692  0.5349
 2187TIP3    H2 6505   5.353   1.594   6.553 -1.6280 -1.9902  1.4296
 2188TIP3   OH2 6506   4.707   3.647   1.532  0.0621 -0.0626 -0.2942
 2188TIP3    H1 6507   4.795   3.681   1.546  0.2327 -0.2198 -0.9528
 2188TIP3    H2 6508   4.721   3.565   1.483 -0.4248 -0.2911 -0.0547
 2189TIP3   OH2 6509   4.868   3.178   3.290 -0.0595  0.3525 -0.2034
 2189TIP3    H1 6510   4.869   3.271   3.267  0.1187  0.6140  0.8357
 2189TIP3    H2 6511   4.829   3.135   3.213  0.1063  1.2462 -0.8010
 2190TIP3   OH2 6512   2.838   5.191   2.229  0.7245 -0.1557  0.4649
 2190TIP3    H1 6513   2.766   5.234   2.183  1.4285 -0.4207 -0.9287
 2190TIP3    H2 6514   2.801   5.108   2.260  0.0007  0.4160  1.1917
 2191TIP3   OH2 6515   1.944   0.217   3.775  0.4184  0.3167 -0.1481
 2191TIP3    H1 6516   1.912   0.176   3.694  0.3803  0.7063 -0.3340
 2191TIP3    H2 6517   1.868   0.216   3.834  0.1871  0.8278 -0.4284
 2192TIP3   OH2 6518   0.470   6.143   3.459  0.2884 -0.2168  0.0052
 2192TIP3    H1 6519   0.558   6.111   3.444 -0.2948 -2.4240  1.0120
 2192TIP3    H2 6520   0.444   6.182   3.375  1.5712 -1.1340 -0.8450
 2193TIP3   OH2 6521   7.525   5.587   0.384  0.2130  0.5656 -0.3806
 2193TIP3    H1 6522   7.571   5.524   0.329  0.0001  0.7647 -0.7985
 2193TIP3    H2 6523   7.434   5.557   0.383  0.2030  0.5900 -0.1652
 2194TIP3   OH2 6524   5.395   6.070   0.965 -0.2574  0.3116  0.0373
 2194TIP3    H1 6525   5.371   5.987   1.006  1.5440 -0.8173 -1.0497
 2194TIP3    H2 6526   5.424   6.046   0.877  1.3246  1.9447  0.0580
 2195TIP3   OH2 6527   0.710   7.499   1.253 -0.5155  0.3311  0.1722
 2195TIP3    H1 6528   0.650   7.508   1.179  0.0849 -0.0632 -0.3730
 2195TIP3    H2 6529   0.771   7.431   1.226 -1.0114 -0.6964  1.5241
 2196TIP3   OH2 6530   0.153   2.834   5.655  0.6567 -0.3796 -0.0090
 2196TIP3    H1 6531   0.175   2.767   5.720 -1.3559 -1.0602  0.0597
 2196TIP3    H2 6532   0.100   2.897   5.703  4.5911  2.8472  0.6026
 2197TIP3   OH2 6533   1.997   1.903   2.713  0.0092  0.4221 -0.0963
 2197TIP3    H1 6534   1.980   1.849   2.790  0.5074 -0.4119 -0.5452
 2197TIP3    H2 6535   1.912   1.917   2.673 -0.2993  1.1853  0.8072
 2198TIP3   OH2 6536   6.712   5.650   3.218 -0.3874 -0.2946  0.0356
 2198TIP3    H1 6537   6.765   5.674   3.141 -0.6046  2.1239  0.5447
 2198TIP3    H2 6538   6.622   5.670   3.191 -0.5123  0.1076  0.7394
 2199TIP3   OH2 6539   5.148   2.995   5.159  0.0372  0.6948  0.3113
 2199TIP3    H1 6540   5.145   3.074   5.105 -0.5494  0.1817 -0.4271
 2199TIP3    H2 6541   5.060   2.958   5.151  0.5702 -0.5167 -0.0962
 2200TIP3   OH2 6542   4.435   0.670   1.905 -0.1822 -0.3209 -0.3003
 2200TIP3    H1 6543   4.358   0.634   1.860 -1.2633  0.8076  0.5758
 2200TIP3    H2 6544   4.462   0.601   1.966 -0.6635 -0.6216 -0.4229
 2201TIP3   OH2 6545   3.305   6.742   6.135  0.3977  0.0956  0.1754
 2201TIP3    H1 6546   3.241   6.771   6.070 -0.0064 -0.0927  0.4872
 2201TIP3    H2 6547   3.348   6.667   6.095  1.8087  1.4024 -0.8531
 2202TIP3   OH2 6548   5.387   7.445   6.083  0.1099  0.3421 -0.4005
 2202TIP3    H1 6549   5.338   7.379   6.133  1.4066  0.0898  0.5711
 2202TIP3    H2 6550   5.395   7.519   6.143  0.0063  0.8022 -0.9406
 2203TIP3   OH2 6551   1.494   2.367   5.990  0.1874  0.0143 -1.1891
 2203TIP3    H1 6552   1.509   2.445   5.936  0.0830  0.1457 -1.0297
 2203TIP3    H2 6553   1.581   2.341   6.019  0.0421  1.5330  0.7928
 2204TIP3   OH2 6554   0.348   3.272   1.681  0.5211  0.5126  0.4147
 2204TIP3    H1 6555   0.416   3.338   1.677 -0.5478  1.7421  1.5665
 2204TIP3    H2 6556   0.391   3.191   1.653  2.0821  1.5001 -0.1511
 2205TIP3   OH2 6557   5.515   3.682   5.713 -0.5456  0.4278  0.3607
 2205TIP3    H1 6558   5.551   3.765   5.684 -0.3133 -0.2289 -1.3648
 2205TIP3    H2 6559   5.559   3.664   5.796  0.2234  1.4928  0.2035
 2206TIP3   OH2 6560   4.611   3.899   1.421  0.4213 -0.1812  0.3064
 2206TIP3    H1 6561   4.559   3.885   1.342 -0.7910  1.3394  0.7892
 2206TIP3    H2 6562   4.641   3.811   1.446 -0.7200 -0.9132 -0.7988
 2207TIP3   OH2 6563   1.231   6.646   3.748 -0.2821  0.2293  0.7167
 2207TIP3    H1 6564   1.288   6.705   3.700  1.4662  0.1423  2.5552
 2207TIP3    H2 6565   1.189   6.592   3.681  1.2445  0.7926 -0.7455
 2208TIP3   OH2 6566   7.951   2.695   0.747 -0.1338 -0.3077  0.3201
 2208TIP3    H1 6567   8.024   2.740   0.789 -0.8216 -0.1780  1.3989
 2208TIP3    H2 6568   7.880   2.759   0.745 -0.6997 -0.9060  0.6474
 2209TIP3   OH2 6569  -0.003   3.585   6.729 -0.0907 -0.0163 -0.1459
 2209TIP3    H1 6570  -0.016   3.524   6.802  0.3099 -1.0111 -0.8918
 2209TIP3    H2 6571   0.084   3.623   6.745 -0.8330  1.3172  0.9806
 2210TIP3   OH2 6572   2.137   2.612   4.622  0.2472 -0.4425 -0.1283
 2210TIP3    H1 6573   2.077   2.665   4.675  0.6165 -0.0673 -0.0774
 2210TIP3    H2 6574   2.213   2.598   4.678  0.2201 -0.8927 -0.2037
 2211TIP3   OH2 6575   2.682   2.774   6.196 -0.1214  0.1699  0.4396
 2211TIP3    H1 6576   2.627   2.828   6.139  0.7081  1.0980  0.4880
 2211TIP3    H2 6577   2.771   2.807   6.182  0.4428 -1.3041  0.3603
 2212TIP3   OH2 6578   2.010   6.177   2.473 -0.1709 -0.0768 -0.0779
 2212TIP3    H1 6579   2.049   6.178   2.385  0.7989  0.3351  0.3474
 2212TIP3    H2 6580   2.080   6.146   2.530 -0.5702  0.3352  0.6472
 2213TIP3   OH2 6581   0.121   2.554   0.342  0.4885  0.4498 -0.0190
 2213TIP3    H1 6582   0.162   2.559   0.428 -1.9643 -0.1430  1.2748
 2213TIP3    H2 6583   0.096   2.462   0.333 -1.3096  0.9438 -0.3426
 2214TIP3   OH2 6584   6.508   3.810   4.494  0.1061  0.6307  0.3922
 2214TIP3    H1 6585   6.506   3.903   4.470  0.1531  0.5118 -0.0837
 2214TIP3    H2 6586   6.601   3.791   4.508  0.0992  0.6467  0.4598
 2215TIP3   OH2 6587   5.243   1.385   5.056  0.3609 -0.6180  0.0902
 2215TIP3    H1 6588   5.312   1.437   5.014  0.2182 -0.2053  0.3658
 2215TIP3    H2 6589   5.167   1.443   5.058  0.3944 -0.5938  1.0193
 2216TIP3   OH2 6590   2.947   2.268   3.188 -0.0568 -0.0596 -0.2951
 2216TIP3    H1 6591   3.007   2.249   3.260 -0.8656 -0.6972  0.2235
 2216TIP3    H2 6592   2.994   2.239   3.110 -0.4759 -2.5693  0.2911
 2217TIP3   OH2 6593   6.483   1.649   6.650 -0.2603 -0.2778  0.1175
 2217TIP3    H1 6594   6.405   1.687   6.692  0.2346 -0.3812  1.1746
 2217TIP3    H2 6595   6.522   1.722   6.602 -0.8168 -0.1411 -0.1332
 2218TIP3   OH2 6596   0.333   3.237   2.021 -0.4905  0.1281  0.6029
 2218TIP3    H1 6597   0.315   3.203   2.108 -1.7095 -0.1239  0.2700
 2218TIP3    H2 6598   0.281   3.182   1.962 -0.1251  0.6470 -0.2193
 2219TIP3   OH2 6599   6.716   3.227   0.263  0.1452  0.1376  0.1600
 2219TIP3    H1 6600   6.705   3.182   0.180  1.4013 -1.3122  0.7164
 2219TIP3    H2 6601   6.643   3.289   0.268 -1.9284 -2.1023 -0.5131
 2220TIP3   OH2 6602   0.072   0.899   4.164 -0.1493  0.0333 -0.0571
 2220TIP3    H1 6603   0.122   0.885   4.245 -0.7213 -0.5624  0.2018
 2220TIP3    H2 6604   0.016   0.822   4.156 -0.4166  0.2900 -0.7955
 2221TIP3   OH2 6605   7.566   3.300   4.047  0.4504  0.4595 -0.1171
 2221TIP3    H1 6606   7.551   3.212   4.082  1.2989  0.8931  1.4438
 2221TIP3    H2 6607   7.481   3.343   4.054  0.5105  0.4063  1.0795
 2222TIP3   OH2 6608   1.279   4.951   2.803 -0.0119  0.0295  0.2075
 2222TIP3    H1 6609   1.278   4.931   2.897 -0.3490 -1.7662 -0.1496
 2222TIP3    H2 6610   1.308   4.870   2.761  1.4610  1.2034 -1.1809
 2223TIP3   OH2 6611   6.733   3.805   2.732 -0.2118  0.1309  0.3895
 2223TIP3    H1 6612   6.751   3.721   2.689  1.4337  0.2367  0.8052
 2223TIP3    H2 6613   6.738   3.786   2.826  1.1202  0.8585  0.4857
 2224TIP3   OH2 6614   2.751   2.492   3.183 -0.5228 -0.1802  0.2383
 2224TIP3    H1 6615   2.670   2.481   3.233  0.3751  0.0209  1.8159
 2224TIP3    H2 6616   2.807   2.420   3.212  0.5098  0.7288  0.5645
 2225TIP3   OH2 6617   8.138   5.198   0.343  0.0235 -0.2526  0.7297
 2225TIP3    H1 6618   8.180   5.115   0.364 -1.8229 -1.1393  1.0861
 2225TIP3    H2 6619   8.044   5.180   0.348 -0.4402  2.0079  1.4527
 2226TIP3   OH2 6620   5.059   3.129   1.471  0.0281 -0.6404 -0.2173
 2226TIP3    H1 6621   5.003   3.057   1.501 -0.2807  0.1591  1.1823
 2226TIP3    H2 6622   5.039   3.137   1.378 -0.6634 -1.7158 -0.1841
 2227TIP3   OH2 6623   0.996   4.645   4.510 -0.7480 -0.2800  0.0402
 2227TIP3    H1 6624   0.907   4.672   4.487  0.0949  1.4572 -1.3572
 2227TIP3    H2 6625   1.006   4.559   4.470 -1.3977  0.0465 -0.8640
 2228TIP3   OH2 6626   1.245   3.377   3.842  0.6311 -0.1397  0.2466
 2228TIP3    H1 6627   1.198   3.378   3.926 -1.2505 -0.3316 -0.7329
 2228TIP3    H2 6628   1.323   3.325   3.858  1.8225  2.1953  2.5944
 2229TIP3   OH2 6629   5.569   4.990   0.045  0.1943  0.2824  0.3790
 2229TIP3    H1 6630   5.630   4.920   0.018 -1.4525 -0.9712 -0.2506
 2229TIP3    H2 6631   5.605   5.069   0.004  0.6016 -0.6866 -1.2219
 2230TIP3   OH2 6632   1.360   7.822   3.122  0.3722  0.1959  0.4342
 2230TIP3    H1 6633   1.406   7.769   3.188 -1.7811 -0.4229  1.5198
 2230TIP3    H2 6634   1.410   7.808   3.041  1.7334 -0.8977  1.4047
 2231TIP3   OH2 6635   0.874   4.166   5.427  0.0033  0.1910  0.0326
 2231TIP3    H1 6636   0.843   4.176   5.337  0.3757  0.9443 -0.0236
 2231TIP3    H2 6637   0.826   4.091   5.461 -0.3505  0.0730 -0.7033
 2232TIP3   OH2 6638   7.415   4.738   2.833 -0.0198  0.1988  0.3736
 2232TIP3    H1 6639   7.460   4.675   2.889 -0.9921  0.0520  1.0133
 2232TIP3    H2 6640   7.343   4.771   2.887 -1.9992 -1.1368 -1.3176
 2233TIP3   OH2 6641   0.597   4.053   4.968 -0.3593  0.0677  0.3718
 2233TIP3    H1 6642   0.509   4.079   4.995 -0.1419  1.5788 -0.2232
 2233TIP3    H2 6643   0.585   3.968   4.926 -1.8199  0.9094 -1.0661
 2234TIP3   OH2 6644   2.579   3.251   2.689 -0.3470  0.5618  0.5940
 2234TIP3    H1 6645   2.558   3.158   2.697 -0.8314  0.6340  0.1901
 2234TIP3    H2 6646   2.517   3.284   2.625  0.8513  0.8474 -0.4589
 2235TIP3   OH2 6647   3.114   5.457   2.213  0.1578 -0.5816 -0.0403
 2235TIP3    H1 6648   3.045   5.461   2.147 -1.7225  0.8380  1.8889
 2235TIP3    H2 6649   3.140   5.365   2.215 -2.0382 -1.2615 -0.4739
 2236TIP3   OH2 6650   3.991   1.121   2.451 -0.5608  0.1726  0.6040
 2236TIP3    H1 6651   3.964   1.133   2.542 -3.5240  0.5839 -0.2126
 2236TIP3    H2 6652   4.024   1.031   2.448  0.5857  0.4886  2.2538
 2237TIP3   OH2 6653   7.934   2.276   5.382  0.3004  0.1764  0.0851
 2237TIP3    H1 6654   7.880   2.211   5.427 -1.4624 -0.1043 -2.2314
 2237TIP3    H2 6655   8.007   2.291   5.441 -0.9015 -1.4932  2.1599
 2238TIP3   OH2 6656   2.987   2.975   6.314 -0.5004  0.0930 -0.4137
 2238TIP3    H1 6657   2.973   2.961   6.220  0.3410  1.4722 -0.7718
 2238TIP3    H2 6658   2.992   3.070   6.323  1.4822 -0.0797  0.7210
 2239TIP3   OH2 6659   1.524   4.235   1.798 -0.0172 -0.4087  0.5328
 2239TIP3    H1 6660   1.559   4.229   1.709 -1.6805 -2.8140 -0.0353
 2239TIP3    H2 6661   1.438   4.275   1.788 -0.5793 -1.4842  0.9157
 2240TIP3   OH2 6662   3.214   5.316   4.720 -0.9373  0.6259  0.0641
 2240TIP3    H1 6663   3.260   5.314   4.636  0.7300 -1.1419  0.9425
 2240TIP3    H2 6664   3.216   5.225   4.750 -0.1388  1.4312  2.7156
 2241TIP3   OH2 6665   7.662   6.772   5.721 -0.0511 -0.0038 -0.1289
 2241TIP3    H1 6666   7.669   6.744   5.630 -1.3121  1.8206 -0.8479
 2241TIP3    H2 6667   7.655   6.690   5.771  0.4476 -1.0335 -1.6783
 2242TIP3   OH2 6668   4.811   4.397   4.845  0.3850 -0.3544  0.1066
 2242TIP3    H1 6669   4.750   4.346   4.898  1.9132 -1.7503  0.6014
 2242TIP3    H2 6670   4.854   4.455   4.908  1.3360 -1.1589  0.2254
 2243TIP3   OH2 6671   4.123   4.449   0.532 -0.2110  0.0092  0.3918
 2243TIP3    H1 6672   4.208   4.431   0.571  0.3179  0.2829 -0.6208
 2243TIP3    H2 6673   4.132   4.425   0.440 -1.1412  0.3253  0.2013
 2244TIP3   OH2 6674   2.512   3.924   6.075 -0.0472  0.7126 -0.9802
 2244TIP3    H1 6675   2.456   3.981   6.128 -0.3321 -0.4382  0.0090
 2244TIP3    H2 6676   2.488   3.943   5.985 -1.3897  0.8964 -0.6035
 2245TIP3   OH2 6677   4.833   5.957   2.195  0.3797  0.2128 -0.3422
 2245TIP3    H1 6678   4.876   5.976   2.278  0.6512  0.5813 -0.5611
 2245TIP3    H2 6679   4.838   6.039   2.146 -1.4060  0.5474 -0.0178
 2246TIP3   OH2 6680   0.271   2.696   6.749  0.0396 -0.0657 -0.4578
 2246TIP3    H1 6681   0.176   2.695   6.760 -0.0527 -0.3192 -1.2208
 2246TIP3    H2 6682   0.295   2.789   6.750 -0.0329 -0.0480  1.1411
 2247TIP3   OH2 6683   5.566   0.538   0.545 -0.1673 -0.1610  0.2864
 2247TIP3    H1 6684   5.561   0.504   0.634 -0.8691 -0.0958  0.2765
 2247TIP3    H2 6685   5.659   0.532   0.522 -0.0697 -0.6986  0.8140
 2248TIP3   OH2 6686   5.826   5.792   3.442  0.3264  0.2774  0.1389
 2248TIP3    H1 6687   5.786   5.706   3.452  1.8671 -0.6780 -1.4729
 2248TIP3    H2 6688   5.807   5.818   3.352  0.1785  1.4877  0.4959
 2249TIP3   OH2 6689   2.017   5.554   1.948 -0.4440  0.2691 -0.2959
 2249TIP3    H1 6690   2.047   5.630   1.899  3.3989 -0.5703  0.4806
 2249TIP3    H2 6691   1.985   5.590   2.031  3.7254  1.1328  1.1722
 2250TIP3   OH2 6692   3.733   6.966   4.618 -0.0322 -0.3375 -0.0751
 2250TIP3    H1 6693   3.719   7.002   4.530  1.3222 -1.9040 -1.0166
 2250TIP3    H2 6694   3.825   6.984   4.636 -0.2091 -0.3668  0.8648
 2251TIP3   OH2 6695   1.952   2.319   6.130  0.3566 -0.5426 -0.4479
 2251TIP3    H1 6696   2.006   2.261   6.185 -1.2411 -1.2033  0.4838
 2251TIP3    H2 6697   2.009   2.394   6.112  0.9914 -0.3584  2.0222
 2252TIP3   OH2 6698   2.854   2.989   2.548 -0.3206 -0.3984  0.0382
 2252TIP3    H1 6699   2.896   2.951   2.470  0.5864  0.5694  0.0306
 2252TIP3    H2 6700   2.909   2.961   2.621  0.1919  0.6277  0.0623
 2253TIP3   OH2 6701   4.282   4.510   6.764 -0.0018  0.1107 -0.2466
 2253TIP3    H1 6702   4.257   4.587   6.713 -1.2197 -0.0623  0.0515
 2253TIP3    H2 6703   4.377   4.503   6.753  0.0409  1.3117 -0.7416
 2254TIP3   OH2 6704   2.300   5.255   4.214 -0.9490 -0.2526  0.3742
 2254TIP3    H1 6705   2.244   5.262   4.292 -1.8009  2.1427 -0.3438
 2254TIP3    H2 6706   2.389   5.250   4.249 -1.2555  1.4782  1.5603
 2255TIP3   OH2 6707   4.788   5.677   3.971  0.1804 -0.2494 -0.0367
 2255TIP3    H1 6708   4.811   5.766   3.944 -0.1471  0.2347  1.2232
 2255TIP3    H2 6709   4.866   5.645   4.017  0.0908 -0.4041  0.0087
 2256TIP3   OH2 6710   1.879   0.355   2.151 -0.5776  0.1636  0.3720
 2256TIP3    H1 6711   1.904   0.434   2.104 -0.9791 -0.4418 -0.9020
 2256TIP3    H2 6712   1.941   0.350   2.224  1.8215 -0.2160 -1.5465
 2257TIP3   OH2 6713   5.444   5.889   0.263  0.3529 -0.2358  0.5940
 2257TIP3    H1 6714   5.442   5.984   0.253  0.7873 -0.3967 -1.4975
 2257TIP3    H2 6715   5.375   5.857   0.204  2.2093 -1.3190 -1.1156
 2258TIP3   OH2 6716   2.380   3.061   4.069 -0.0818  0.0163  0.1927
 2258TIP3    H1 6717   2.458   3.016   4.101 -0.2208  0.1735  0.7548
 2258TIP3    H2 6718   2.355   3.120   4.140 -0.2436  0.5586 -0.2984
 2259TIP3   OH2 6719   5.684   6.858   3.085  0.4864 -0.5374 -0.8727
 2259TIP3    H1 6720   5.711   6.786   3.141  0.9344  0.6322  0.4841
 2259TIP3    H2 6721   5.762   6.881   3.035  0.6310 -0.3531 -0.5664
 2260TIP3   OH2 6722   1.229   3.890   4.047  0.3019 -0.2331 -0.8490
 2260TIP3    H1 6723   1.209   3.970   3.998 -1.2783 -0.4661 -0.6392
 2260TIP3    H2 6724   1.158   3.830   4.024 -0.7006 -0.2404  1.9687
 2261TIP3   OH2 6725   0.240   0.229   3.398 -0.4577  0.1555  0.5611
 2261TIP3    H1 6726   0.184   0.160   3.436  0.2220 -0.4046  0.5570
 2261TIP3    H2 6727   0.178   0.295   3.368 -1.0716  0.1312  1.7053
 2262TIP3   OH2 6728   5.024   2.808   3.741  0.1773 -0.5996 -0.3378
 2262TIP3    H1 6729   5.076   2.864   3.683  0.1362 -0.2670 -0.0542
 2262TIP3    H2 6730   5.087   2.745   3.775  0.1829 -0.8593 -0.8181
 2263TIP3   OH2 6731   5.788   5.697   5.025 -0.4674 -0.1983  0.0480
 2263TIP3    H1 6732   5.696   5.690   5.051 -0.2668  0.7670  1.0982
 2263TIP3    H2 6733   5.837   5.665   5.102  0.0994  0.2697 -0.1123
 2264TIP3   OH2 6734   8.065   0.340   2.251  0.4002  0.0176 -0.4988
 2264TIP3    H1 6735   7.993   0.400   2.271  1.3721  0.8622  0.5944
 2264TIP3    H2 6736   8.085   0.298   2.334  0.8703 -0.5604 -0.8969
 2265TIP3   OH2 6737   5.648   6.577   1.965 -0.1476  0.0320 -0.1235
 2265TIP3    H1 6738   5.636   6.486   1.935 -1.3645 -0.2634  1.1751
 2265TIP3    H2 6739   5.727   6.574   2.018  0.3856 -0.0490 -0.9129
 2266TIP3   OH2 6740   1.908   4.381   1.859  0.0287  0.3189  0.2330
 2266TIP3    H1 6741   1.853   4.339   1.792  0.6368 -0.4797  0.2192
 2266TIP3    H2 6742   1.924   4.312   1.923  1.5145  0.3574 -0.0671
 2267TIP3   OH2 6743   4.510   4.145   0.184  0.0566 -0.1675 -0.5401
 2267TIP3    H1 6744   4.525   4.216   0.246  2.3219  0.2907 -1.5043
 2267TIP3    H2 6745   4.582   4.085   0.198  0.3794 -0.2713 -2.3835
 2268TIP3   OH2 6746   5.321   2.826   1.613  0.0376  0.2820 -0.8373
 2268TIP3    H1 6747   5.290   2.886   1.681 -1.6166 -1.7917  0.3540
 2268TIP3    H2 6748   5.410   2.857   1.593 -0.0618  1.9903  1.0135
 2269TIP3   OH2 6749   1.320   6.554   0.097 -0.1668  0.1809 -0.5067
 2269TIP3    H1 6750   1.302   6.465   0.127 -0.7641  0.2738 -0.5814
 2269TIP3    H2 6751   1.403   6.577   0.140  0.7094 -0.8974 -1.5484
 2270TIP3   OH2 6752   3.370   4.798   5.743 -0.3703  0.4700 -0.0532
 2270TIP3    H1 6753   3.411   4.838   5.819 -0.1459 -0.2775  0.2287
 2270TIP3    H2 6754   3.285   4.767   5.774  0.5886 -1.7903  0.5062
 2271TIP3   OH2 6755   1.033   3.820   4.644 -0.4083 -0.3947 -0.4070
 2271TIP3    H1 6756   0.969   3.763   4.602 -1.1425 -0.2062  0.4353
 2271TIP3    H2 6757   1.079   3.763   4.706 -1.7970  0.0932  1.1385
 2272TIP3   OH2 6758   0.762   3.470   2.322 -0.4519 -0.0686 -0.2939
 2272TIP3    H1 6759   0.760   3.535   2.252  1.3082  1.2162  0.7666
 2272TIP3    H2 6760   0.850   3.432   2.318 -1.7504 -3.3046 -1.5965
 2273TIP3   OH2 6761   5.610   5.812   2.654  0.1643 -0.2961  0.6832
 2273TIP3    H1 6762   5.606   5.771   2.568  0.4525 -1.3132  1.1409
 2273TIP3    H2 6763   5.520   5.811   2.685  0.5282 -3.4761  1.9763
 2274TIP3   OH2 6764   7.399   0.356   3.863 -0.2237  0.3613  0.5806
 2274TIP3    H1 6765   7.494   0.350   3.860 -0.1096  1.9858 -1.4102
 2274TIP3    H2 6766   7.382   0.438   3.911 -0.7113 -0.7054  2.3138
 2275TIP3   OH2 6767   6.915   3.351   4.309 -0.2636  0.3824 -0.3823
 2275TIP3    H1 6768   6.859   3.291   4.359  1.0811 -1.0314 -0.4949
 2275TIP3    H2 6769   6.880   3.350   4.221 -1.0038  0.7636 -0.1000
 2276TIP3   OH2 6770   4.836   6.998   1.721 -0.1721 -0.0655 -0.3196
 2276TIP3    H1 6771   4.921   6.994   1.678  0.7260  1.6412  1.1833
 2276TIP3    H2 6772   4.777   7.034   1.654  0.7010  0.4755 -0.8110
 2277TIP3   OH2 6773   0.959   7.358   5.146 -0.1490 -0.6370 -0.1390
 2277TIP3    H1 6774   0.997   7.390   5.228 -1.3208 -0.2008  0.2589
 2277TIP3    H2 6775   1.030   7.365   5.082 -0.1181  2.1373  0.0852
 2278TIP3   OH2 6776   3.714   5.391   1.749  0.4574 -0.0393  0.0644
 2278TIP3    H1 6777   3.794   5.346   1.776  1.8711  1.6051 -1.2112
 2278TIP3    H2 6778   3.719   5.395   1.654 -0.9687  0.4376 -0.0129
 2279TIP3   OH2 6779   4.640   1.317   3.626 -0.6069 -0.1795 -0.1556
 2279TIP3    H1 6780   4.604   1.235   3.659  1.2534 -1.5723 -1.3979
 2279TIP3    H2 6781   4.595   1.332   3.543 -0.1204 -0.5593 -0.4866
 2280TIP3   OH2 6782   7.420   5.724   5.474  0.2839  0.0830  0.0480
 2280TIP3    H1 6783   7.353   5.791   5.462 -0.9591 -0.8802  1.1929
 2280TIP3    H2 6784   7.477   5.759   5.542 -0.1710  0.1307  0.4118
 2281TIP3   OH2 6785   0.327   4.599   4.736  0.2149  0.1459  0.2311
 2281TIP3    H1 6786   0.282   4.683   4.720 -0.3398 -0.4474 -1.6409
 2281TIP3    H2 6787   0.256   4.537   4.751  0.6444  0.0605  2.0515
 2282TIP3   OH2 6788   4.860   2.561   6.653  0.2111  0.1677 -0.0617
 2282TIP3    H1 6789   4.946   2.553   6.695 -0.4374  2.3919  1.9385
 2282TIP3    H2 6790   4.825   2.472   6.655  0.6282 -0.0746  3.4372
 2283TIP3   OH2 6791   8.128   6.366   6.709 -0.6633 -0.1624  0.1399
 2283TIP3    H1 6792   8.188   6.291   6.714 -1.2064 -0.5580  0.7682
 2283TIP3    H2 6793   8.057   6.336   6.652 -1.2653 -0.3982  1.0065
 2284TIP3   OH2 6794   1.897   5.968   0.726  0.1504  0.1601  0.1342
 2284TIP3    H1 6795   1.804   5.955   0.747 -0.0360 -0.1224 -0.8182
 2284TIP3    H2 6796   1.917   5.899   0.663  1.5874 -1.1555  1.9239
 2285TIP3   OH2 6797   7.620   0.838   6.536 -0.3123  0.2027  0.5553
 2285TIP3    H1 6798   7.587   0.769   6.479 -0.1440  0.7546 -0.2238
 2285TIP3    H2 6799   7.653   0.792   6.613 -1.6874 -0.4604  0.7712
 2286TIP3   OH2 6800   3.911   5.310   0.344  0.3508  0.2214  0.6236
 2286TIP3    H1 6801   3.951   5.254   0.409  0.5655  0.8865  1.0733
 2286TIP3    H2 6802   3.975   5.379   0.327  1.0195 -0.8458 -1.5529
 2287TIP3   OH2 6803   8.126   0.259   2.501  0.2564 -0.2670  0.3646
 2287TIP3    H1 6804   8.056   0.207   2.541 -3.2525  2.8800 -0.9986
 2287TIP3    H2 6805   8.181   0.287   2.574 -0.2703 -2.3180  1.6107
 2288TIP3   OH2 6806   6.392   2.785   1.983  0.3420  0.1537 -0.3297
 2288TIP3    H1 6807   6.455   2.850   2.015  1.3502 -1.1534  0.4678
 2288TIP3    H2 6808   6.307   2.817   2.014  0.9298  0.6040  0.8947
 2289TIP3   OH2 6809   6.361   4.194   5.965 -0.0045 -0.1940 -0.1728
 2289TIP3    H1 6810   6.291   4.253   5.992  0.8137  0.7938 -0.1513
 2289TIP3    H2 6811   6.346   4.114   6.016 -0.6876  0.2659  0.3691
 2290TIP3   OH2 6812   4.967   7.545   1.786  0.0363 -0.4412 -0.0137
 2290TIP3    H1 6813   5.042   7.577   1.837 -0.7943  0.2831  0.7762
 2290TIP3    H2 6814   4.977   7.588   1.701  1.1006 -1.2000 -0.3082
 2291TIP3   OH2 6815   6.437   6.613   0.499 -0.6713  0.2620  0.8752
 2291TIP3    H1 6816   6.342   6.613   0.484 -0.8133 -1.8467  1.4438
 2291TIP3    H2 6817   6.474   6.589   0.414 -0.6776  0.7218  0.7440
 2292TIP3   OH2 6818   5.567   2.687   4.131  0.0313 -0.6814 -0.0003
 2292TIP3    H1 6819   5.550   2.778   4.105 -1.3865 -1.1376 -0.7667
 2292TIP3    H2 6820   5.625   2.694   4.207  0.2948  0.8427 -0.3099
 2293TIP3   OH2 6821   3.251   2.920   4.980 -0.2265 -0.7375 -0.3902
 2293TIP3    H1 6822   3.241   2.930   4.885 -0.0454 -0.9153 -0.4295
 2293TIP3    H2 6823   3.322   2.980   5.002 -1.7159  0.9499 -0.0228
 2294TIP3   OH2 6824   3.553   3.297   0.373 -0.7569 -0.4760  0.3076
 2294TIP3    H1 6825   3.493   3.246   0.318 -0.1621 -0.7493 -0.1122
 2294TIP3    H2 6826   3.553   3.252   0.457 -0.9763 -0.5998  0.2430
 2295TIP3   OH2 6827   0.954   3.565   5.122  0.2749  0.3061  0.6121
 2295TIP3    H1 6828   0.920   3.530   5.039  0.8941  1.6979 -0.2536
 2295TIP3    H2 6829   0.878   3.605   5.164  0.1876  0.6203  0.1653
 2296TIP3   OH2 6830   3.438   3.210   0.084  0.3589  0.2062  0.5546
 2296TIP3    H1 6831   3.525   3.250   0.087  1.0879 -1.1337 -1.1598
 2296TIP3    H2 6832   3.413   3.212  -0.008 -1.0645 -0.2229  0.8977
 2297TIP3   OH2 6833   7.509   4.351   5.248  0.4512  0.2956 -0.2707
 2297TIP3    H1 6834   7.431   4.380   5.293  1.2467  2.5852 -0.2459
 2297TIP3    H2 6835   7.523   4.261   5.279 -0.7658  0.7001  1.6061
 2298TIP3   OH2 6836   0.041   2.221   1.956  0.5626  0.0458 -0.5661
 2298TIP3    H1 6837  -0.015   2.212   2.034  0.4363 -0.4098 -0.7028
 2298TIP3    H2 6838   0.130   2.214   1.990  0.5548  1.0444 -0.3121
 2299TIP3   OH2 6839   5.062   6.394   2.703 -0.1384  0.4153  0.3937
 2299TIP3    H1 6840   5.066   6.406   2.608  1.0059  0.2701  0.4103
 2299TIP3    H2 6841   4.977   6.353   2.718  0.1375 -0.6267 -0.6966
 2300TIP3   OH2 6842   5.205   7.752   3.879 -0.6635 -0.6448  1.0176
 2300TIP3    H1 6843   5.155   7.744   3.798 -0.6009  2.9412  0.4431
 2300TIP3    H2 6844   5.147   7.801   3.937  0.9398  0.8045  1.4602
 2301TIP3   OH2 6845   4.073   2.492   5.424  0.1215  0.0578 -0.1781
 2301TIP3    H1 6846   3.998   2.550   5.414  0.0732 -0.1132 -0.8419
 2301TIP3    H2 6847   4.142   2.548   5.458 -0.7012 -0.0751  1.8890
 2302TIP3   OH2 6848   8.033   0.194   1.076  0.2619 -0.4573  0.2632
 2302TIP3    H1 6849   8.048   0.147   1.158  1.3971  0.3758  0.5385
 2302TIP3    H2 6850   8.114   0.185   1.027 -1.0095 -2.5870 -1.6528
 2303TIP3   OH2 6851   5.570   6.149   5.931 -0.7539 -0.1185  0.1214
 2303TIP3    H1 6852   5.642   6.087   5.938 -1.1882 -0.6897 -0.4170
 2303TIP3    H2 6853   5.580   6.206   6.008  2.1980  1.9127 -1.5461
 2304TIP3   OH2 6854   2.307   0.827   1.139 -0.8157  0.4591 -0.0709
 2304TIP3    H1 6855   2.272   0.906   1.099  1.1624  0.6207 -1.6779
 2304TIP3    H2 6856   2.319   0.766   1.067  1.6380  0.2705  0.3878
 2305TIP3   OH2 6857   8.025   5.443   2.496 -0.1423 -0.1410 -0.4292
 2305TIP3    H1 6858   8.081   5.502   2.445 -0.0905  0.0002 -0.2097
 2305TIP3    H2 6859   8.000   5.494   2.572 -0.8860 -0.0733 -0.7096
 2306TIP3   OH2 6860   4.103   1.856   2.214 -0.4750 -0.1573 -0.0289
 2306TIP3    H1 6861   4.060   1.778   2.248 -0.9059 -0.0125 -0.2192
 2306TIP3    H2 6862   4.046   1.928   2.241 -1.6011 -0.1435 -2.1671
 2307TIP3   OH2 6863   5.819   0.660   1.159 -0.4199 -0.0951  0.2291
 2307TIP3    H1 6864   5.872   0.606   1.218 -2.5350 -1.7805  0.7192
 2307TIP3    H2 6865   5.790   0.733   1.214  1.2180  0.7947 -0.0201
 2308TIP3   OH2 6866   6.284   4.628   3.196  0.2899 -0.1759  0.1701
 2308TIP3    H1 6867   6.253   4.544   3.160 -0.0740  0.3165 -0.7115
 2308TIP3    H2 6868   6.345   4.661   3.130 -0.4843  0.8135 -0.0755
 2309TIP3   OH2 6869   7.081   5.933   2.566  0.3081  0.3007 -0.1475
 2309TIP3    H1 6870   7.146   5.864   2.581  0.2550  0.2215 -0.2798
 2309TIP3    H2 6871   7.021   5.925   2.640  1.3443  1.4185  0.8483
 2310TIP3   OH2 6872   8.079   1.070   1.106  0.3619  0.6027 -0.0221
 2310TIP3    H1 6873   8.054   1.134   1.173 -2.1985 -0.8740  0.6118
 2310TIP3    H2 6874   8.124   1.002   1.156 -0.2034  0.2207 -0.0158
 2311TIP3   OH2 6875   6.280   4.728   0.948  0.1442 -0.5103 -0.1446
 2311TIP3    H1 6876   6.237   4.709   0.865 -0.0971 -0.0905 -0.1192
 2311TIP3    H2 6877   6.231   4.802   0.985  0.6413 -0.2714  0.0631
 2312TIP3   OH2 6878   3.916   7.174   5.736  0.1532  0.2442 -0.1241
 2312TIP3    H1 6879   3.884   7.084   5.729 -0.4210  0.3890  0.4322
 2312TIP3    H2 6880   4.010   7.168   5.720  0.0383 -0.3786 -0.6016
 2313TIP3   OH2 6881   6.740   1.625   5.476 -0.0126 -0.7617 -0.1276
 2313TIP3    H1 6882   6.808   1.630   5.409  1.1430  0.0673  1.0719
 2313TIP3    H2 6883   6.665   1.670   5.436  0.8347  0.2125 -0.6797
 2314TIP3   OH2 6884   0.649   2.385   1.368  0.2699 -0.1760  0.4903
 2314TIP3    H1 6885   0.704   2.307   1.365  1.2479  0.5168 -0.4270
 2314TIP3    H2 6886   0.629   2.403   1.276  0.0355  0.6308  0.6957
 2315TIP3   OH2 6887   2.199   2.458   2.038  0.3418  0.0763 -0.2960
 2315TIP3    H1 6888   2.204   2.517   1.963  1.6878 -1.6749 -1.6647
 2315TIP3    H2 6889   2.273   2.398   2.026  0.8288 -0.0704  2.6331
 2316TIP3   OH2 6890   0.944   2.468   1.934 -0.5257  0.3346 -0.0749
 2316TIP3    H1 6891   1.023   2.420   1.959 -0.3618  0.0939 -0.9873
 2316TIP3    H2 6892   0.937   2.453   1.839  0.9638  4.1679 -0.9804
 2317TIP3   OH2 6893   6.933   5.368   3.979  0.0622 -0.3043  0.2974
 2317TIP3    H1 6894   6.879   5.444   4.000  1.3287  0.6008  0.3832
 2317TIP3    H2 6895   6.891   5.330   3.902 -0.3430  0.7547 -0.0301
 2318TIP3   OH2 6896   3.283   5.999   2.798  0.0458  0.4430 -0.1587
 2318TIP3    H1 6897   3.249   6.037   2.717 -0.6653  2.1194  0.8730
 2318TIP3    H2 6898   3.314   6.074   2.848 -2.6986 -0.0969  2.6072
 2319TIP3   OH2 6899   1.809   3.021   1.392  0.0375 -0.0638 -0.1521
 2319TIP3    H1 6900   1.874   3.090   1.382 -0.3054  0.8503  2.8398
 2319TIP3    H2 6901   1.728   3.067   1.413 -0.3231 -1.2833  1.3626
 2320TIP3   OH2 6902   6.259   1.482   2.586  0.3328  0.3489  0.0722
 2320TIP3    H1 6903   6.198   1.444   2.523  1.6109  1.4462 -1.9445
 2320TIP3    H2 6904   6.219   1.566   2.610 -0.4854 -0.3604  1.3364
 2321TIP3   OH2 6905   4.641   4.339   5.888 -0.4318 -0.1524  0.2135
 2321TIP3    H1 6906   4.646   4.417   5.943 -0.8489 -0.7104  1.0578
 2321TIP3    H2 6907   4.558   4.298   5.912 -0.2249 -0.8502 -0.2344
 2322TIP3   OH2 6908   5.088   7.838   0.754  0.4594 -0.0787 -0.3002
 2322TIP3    H1 6909   5.084   7.839   0.658  0.4347 -1.7843 -0.3334
 2322TIP3    H2 6910   5.039   7.761   0.780  0.4448  0.3773  1.1100
 2323TIP3   OH2 6911   8.062   1.603   3.459  0.0032 -0.1658  0.5764
 2323TIP3    H1 6912   8.121   1.632   3.389  0.8319  0.2514  1.4258
 2323TIP3    H2 6913   8.042   1.683   3.507 -0.9764 -0.3681  0.5123
 2324TIP3   OH2 6914   1.157   3.480   1.245 -0.0217  0.6274  0.8974
 2324TIP3    H1 6915   1.190   3.514   1.161 -0.0232  1.5882  1.2731
 2324TIP3    H2 6916   1.173   3.386   1.241 -1.0100  0.4894 -0.6397
 2325TIP3   OH2 6917   0.517   0.402   6.593 -0.1079  0.1361 -0.6126
 2325TIP3    H1 6918   0.563   0.469   6.542  0.5427 -0.4204 -0.7804
 2325TIP3    H2 6919   0.443   0.448   6.632  0.0345  0.8321 -1.1406
 2326TIP3   OH2 6920   6.458   0.992   5.741 -0.4529  0.0443  0.2363
 2326TIP3    H1 6921   6.440   0.932   5.814 -1.0888 -0.2833 -0.1776
 2326TIP3    H2 6922   6.379   1.046   5.735 -0.0994  0.5638  0.2604
 2327TIP3   OH2 6923   8.135   4.646   2.732 -0.1879  0.0100  0.1813
 2327TIP3    H1 6924   8.040   4.649   2.746 -0.2341  0.3966 -0.2195
 2327TIP3    H2 6925   8.171   4.624   2.818 -0.6324 -0.0572  0.3542
 2328TIP3   OH2 6926   8.194   0.760   3.779  0.2887 -0.1702  0.0843
 2328TIP3    H1 6927   8.228   0.843   3.811  0.8585  0.1495 -1.2518
 2328TIP3    H2 6928   8.243   0.693   3.827 -1.1608  0.1926  2.2122
 2329TIP3   OH2 6929   0.990   4.430   2.073 -0.1887 -0.6149  0.3151
 2329TIP3    H1 6930   0.941   4.468   2.001 -1.0107  2.6037  2.3328
 2329TIP3    H2 6931   0.923   4.400   2.135  0.4022 -0.1802  1.1966
 2330TIP3   OH2 6932   1.307   5.785   3.984 -0.4782 -0.0408 -0.1878
 2330TIP3    H1 6933   1.352   5.869   3.986 -0.6499  0.0398  1.6149
 2330TIP3    H2 6934   1.358   5.729   4.043 -1.4911 -0.6032  0.1787
 2331TIP3   OH2 6935   2.737   3.005   2.050 -0.1904  0.1719 -0.4470
 2331TIP3    H1 6936   2.672   3.064   2.087  0.2917 -0.4464  1.5590
 2331TIP3    H2 6937   2.691   2.957   1.982 -2.1179 -0.7528  1.3764
 2332TIP3   OH2 6938   4.753   7.239   5.340  0.1329 -0.2327  0.1769
 2332TIP3    H1 6939   4.845   7.232   5.313  0.3330  0.9899  0.4613
 2332TIP3    H2 6940   4.736   7.159   5.389  0.4355 -1.4404 -1.5669
 2333TIP3   OH2 6941   0.591   1.319   0.658  0.8273 -0.1400  0.8902
 2333TIP3    H1 6942   0.616   1.239   0.705  2.3429 -0.7318 -0.8268
 2333TIP3    H2 6943   0.662   1.381   0.676  0.6806  0.1306  0.5449
 2334TIP3   OH2 6944   4.151   4.701   0.741 -0.0275 -0.1711 -0.0235
 2334TIP3    H1 6945   4.222   4.755   0.707  0.5840 -1.3833 -0.7205
 2334TIP3    H2 6946   4.072   4.735   0.700  0.4296 -0.1957 -0.9303
 2335TIP3   OH2 6947   0.069   5.772   5.693  0.1880  0.2862 -0.3261
 2335TIP3    H1 6948   0.017   5.849   5.716  0.8280  0.5065  0.4278
 2335TIP3    H2 6949   0.082   5.727   5.776  0.9311  0.0684 -0.5531
 2336TIP3   OH2 6950   6.143   1.946   3.221  0.4675 -0.2589 -0.5777
 2336TIP3    H1 6951   6.085   1.896   3.164 -0.1246 -1.5139  1.0591
 2336TIP3    H2 6952   6.232   1.920   3.195  0.3186  0.6514 -2.1689
 2337TIP3   OH2 6953   8.041   1.351   6.640 -0.2287  0.3189 -0.1861
 2337TIP3    H1 6954   8.088   1.308   6.712  0.1438 -0.9211 -1.1303
 2337TIP3    H2 6955   8.099   1.340   6.564 -0.5134  1.7927 -0.6456
 2338TIP3   OH2 6956   2.860   3.818   5.546 -0.6630  0.6009 -0.1082
 2338TIP3    H1 6957   2.900   3.904   5.537  1.5544 -0.1961  1.1424
 2338TIP3    H2 6958   2.889   3.770   5.468  1.9809 -0.3023  1.2768
 2339TIP3   OH2 6959   5.179   7.152   5.804  0.7218  0.1142  0.6029
 2339TIP3    H1 6960   5.089   7.137   5.835  0.3056 -0.8810 -0.9336
 2339TIP3    H2 6961   5.169   7.207   5.727  0.9307 -3.2777 -2.0734
 2340TIP3   OH2 6962   6.188   7.636   5.499  0.0965  0.5562  0.1333
 2340TIP3    H1 6963   6.253   7.585   5.548 -0.2877  1.0960  1.2385
 2340TIP3    H2 6964   6.112   7.578   5.492 -0.1062  0.7334  0.8197
 2341TIP3   OH2 6965   4.018   1.592   0.987 -0.1797  0.1813 -1.0107
 2341TIP3    H1 6966   3.955   1.636   1.045 -0.0137  1.2114 -1.5899
 2341TIP3    H2 6967   3.984   1.503   0.979 -1.7170  0.7756 -1.5142
 2342TIP3   OH2 6968   2.227   2.255   6.285  0.0293 -0.7997  0.0861
 2342TIP3    H1 6969   2.295   2.223   6.226 -0.3578 -1.2228 -0.1401
 2342TIP3    H2 6970   2.245   2.348   6.294  0.0800 -0.7210 -0.7381
 2343TIP3   OH2 6971   2.468   0.366   4.263  0.8416  0.2000  0.1982
 2343TIP3    H1 6972   2.502   0.374   4.174  0.1470  3.2791  0.1032
 2343TIP3    H2 6973   2.406   0.439   4.271  0.8669 -0.0152  3.1879
 2344TIP3   OH2 6974   0.306   0.929   2.726  1.1078 -0.2164 -0.3980
 2344TIP3    H1 6975   0.218   0.894   2.712 -0.0904  2.6462 -0.7149
 2344TIP3    H2 6976   0.353   0.912   2.644 -0.1206  0.7462 -1.3344
 2345TIP3   OH2 6977   6.642   5.881   4.531 -0.1593 -0.0757  0.8175
 2345TIP3    H1 6978   6.733   5.851   4.537 -0.3356 -1.3088 -1.4554
 2345TIP3    H2 6979   6.646   5.960   4.477 -0.0646  2.3783  4.1661
 2346TIP3   OH2 6980   2.416   3.253   5.292  0.1422  0.5536 -0.0953
 2346TIP3    H1 6981   2.426   3.193   5.218  1.0818 -0.3671  0.7531
 2346TIP3    H2 6982   2.429   3.199   5.369  0.8893  1.8151  0.6969
 2347TIP3   OH2 6983   4.015   7.128   3.140  0.1890 -0.3443 -0.1733
 2347TIP3    H1 6984   4.004   7.139   3.235  1.2053  1.3043 -0.2054
 2347TIP3    H2 6985   4.109   7.123   3.127  0.0559 -0.5823 -1.1072
 2348TIP3   OH2 6986   2.670   5.310   5.803 -0.6311  0.0051  0.6712
 2348TIP3    H1 6987   2.633   5.397   5.785  0.5591  0.2000 -1.1249
 2348TIP3    H2 6988   2.709   5.283   5.720  2.0558 -0.7693  2.0685
 2349TIP3   OH2 6989   7.579   6.701   5.199  0.6680  0.4164 -0.2657
 2349TIP3    H1 6990   7.526   6.622   5.187 -0.1943  1.0733 -0.9265
 2349TIP3    H2 6991   7.653   6.689   5.140  1.4632 -0.6416  0.8766
 2350TIP3   OH2 6992   3.738   6.308   1.334  0.5184  0.3133 -0.7140
 2350TIP3    H1 6993   3.652   6.294   1.294  0.3683 -0.2774 -0.2064
 2350TIP3    H2 6994   3.754   6.228   1.385  1.2741  0.5089 -0.6324
 2351TIP3   OH2 6995   5.598   1.689   3.659  0.0643 -0.3496  0.4869
 2351TIP3    H1 6996   5.506   1.718   3.659 -0.1137 -0.6699 -1.9636
 2351TIP3    H2 6997   5.646   1.764   3.623  0.3141 -1.1772 -0.9773
 2352TIP3   OH2 6998   3.490   2.637   4.384  0.4791 -0.5728  0.6631
 2352TIP3    H1 6999   3.527   2.612   4.300  0.2616 -1.7922  0.9170
 2352TIP3    H2 7000   3.561   2.685   4.428  0.6038  0.0333 -0.1770
 2353TIP3   OH2 7001   6.179   2.346   1.181 -0.2769  0.2921 -0.3758
 2353TIP3    H1 7002   6.131   2.412   1.132  0.7649  0.3937 -1.3255
 2353TIP3    H2 7003   6.242   2.396   1.234 -0.6619  0.1314  0.2425
 2354TIP3   OH2 7004   0.036   4.239   0.203  0.0696  0.1947  0.1449
 2354TIP3    H1 7005  -0.028   4.169   0.202  0.2984 -0.0235  0.4086
 2354TIP3    H2 7006   0.117   4.198   0.171  0.0784  0.4654 -0.1845
 2355TIP3   OH2 7007   0.388   6.695   6.104 -0.1492 -0.5845 -0.3723
 2355TIP3    H1 7008   0.350   6.660   6.024 -1.6795 -2.7355  1.1652
 2355TIP3    H2 7009   0.446   6.625   6.136 -0.5278 -0.3096  1.0113
 2356TIP3   OH2 7010   2.881   7.198   2.789 -0.1846  0.0284 -0.1311
 2356TIP3    H1 7011   2.955   7.232   2.839  0.1045 -1.2996  0.3648
 2356TIP3    H2 7012   2.809   7.193   2.852  0.7588 -3.8046  0.9240
 2357TIP3   OH2 7013   7.598   4.218   1.912 -0.2415 -0.6168 -0.7313
 2357TIP3    H1 7014   7.576   4.127   1.932  0.4335 -0.4955  0.6919
 2357TIP3    H2 7015   7.675   4.236   1.965  0.4688  0.3878 -2.0271
 2358TIP3   OH2 7016   5.989   7.058   2.474  0.8281  0.1544 -0.2493
 2358TIP3    H1 7017   5.903   7.018   2.461  0.5340  0.5949  0.2620
 2358TIP3    H2 7018   6.005   7.106   2.393 -1.1854  3.2514  0.9626
 2359TIP3   OH2 7019   7.643   4.172   0.416  0.0081 -0.2611 -0.1469
 2359TIP3    H1 7020   7.558   4.214   0.403 -0.4832  0.2304  3.5418
 2359TIP3    H2 7021   7.671   4.147   0.328 -3.2067  0.9338 -1.6764
 2360TIP3   OH2 7022   6.669   5.170   0.670 -0.0272  0.2576  0.5521
 2360TIP3    H1 7023   6.684   5.252   0.717  1.6953 -0.3973  1.2333
 2360TIP3    H2 7024   6.633   5.198   0.585  1.9589  1.8788  0.1470
 2361TIP3   OH2 7025   3.356   0.746   0.971 -0.2044 -0.3682  0.1511
 2361TIP3    H1 7026   3.289   0.814   0.979  0.0940 -0.1361  0.7471
 2361TIP3    H2 7027   3.317   0.669   1.011 -0.9358 -0.8665 -1.4120
 2362TIP3   OH2 7028   4.500   6.350   0.325  1.1997 -0.2170 -0.5522
 2362TIP3    H1 7029   4.571   6.341   0.261  1.1190  2.5408 -1.1616
 2362TIP3    H2 7030   4.539   6.398   0.398  0.7124 -1.3905  0.5142
 2363TIP3   OH2 7031   7.071   7.515   4.954  0.3329 -0.5569 -0.0609
 2363TIP3    H1 7032   7.054   7.533   5.047 -2.7129  1.1326 -0.8222
 2363TIP3    H2 7033   7.021   7.435   4.936 -1.0357  0.3975 -0.6947
 2364TIP3   OH2 7034   4.949   2.220   6.447  0.2222 -0.0149  0.5000
 2364TIP3    H1 7035   4.890   2.207   6.373 -0.6977  0.5996  1.1013
 2364TIP3    H2 7036   4.891   2.235   6.521  1.1260  1.7149  0.9063
 2365TIP3   OH2 7037   8.178   5.657   2.580 -0.0368  0.2492 -0.1594
 2365TIP3    H1 7038   8.240   5.599   2.626 -1.8265 -0.0221  2.1190
 2365TIP3    H2 7039   8.223   5.741   2.575  2.0498 -0.8838 -2.2337
 2366TIP3   OH2 7040   5.323   0.579   5.893 -0.7159 -0.7860 -0.1910
 2366TIP3    H1 7041   5.282   0.497   5.863 -1.9510 -0.2129 -0.1373
 2366TIP3    H2 7042   5.369   0.554   5.973 -2.0419 -1.2248  0.4675
 2367TIP3   OH2 7043   1.653   0.257   5.408  0.3772  0.0419 -0.3005
 2367TIP3    H1 7044   1.567   0.241   5.447  0.0544 -1.1160 -1.4276
 2367TIP3    H2 7045   1.666   0.352   5.418 -1.6826  0.5074 -1.3915
 2368TIP3   OH2 7046   3.159   1.658   0.533 -0.4365 -0.0305 -0.4225
 2368TIP3    H1 7047   3.200   1.596   0.472  2.0347  1.1711 -0.1015
 2368TIP3    H2 7048   3.141   1.735   0.480  2.2817  1.2547  0.3241
 2369TIP3   OH2 7049   4.150   0.253   6.308  0.0102  0.6497 -0.2755
 2369TIP3    H1 7050   4.185   0.290   6.389  0.0777  0.4327 -0.2030
 2369TIP3    H2 7051   4.056   0.269   6.312 -0.4466 -1.8421  1.2054
 2370TIP3   OH2 7052   2.327   0.844   4.526 -0.3586 -0.1625 -0.3737
 2370TIP3    H1 7053   2.253   0.784   4.522 -0.4142 -0.2780  1.6427
 2370TIP3    H2 7054   2.404   0.787   4.521 -0.4048 -0.2293 -0.3259
 2371TIP3   OH2 7055   3.899   4.946   2.570 -0.2424  0.7468  0.2247
 2371TIP3    H1 7056   3.924   5.028   2.527  2.3621  0.8168  1.6902
 2371TIP3    H2 7057   3.863   4.973   2.654 -1.0619  0.4196 -0.0101
 2372TIP3   OH2 7058   8.238   3.959   0.173  0.0920 -0.2743  0.4275
 2372TIP3    H1 7059   8.302   3.941   0.242 -0.4906  0.8039  1.2787
 2372TIP3    H2 7060   8.161   3.909   0.197 -0.3239  0.5793  0.9109
 2373TIP3   OH2 7061   3.250   6.367   0.429 -0.0771 -0.1249  0.0666
 2373TIP3    H1 7062   3.228   6.391   0.519  1.2310  0.6684  0.2180
 2373TIP3    H2 7063   3.171   6.385   0.379 -0.5929  0.1225  0.9505
 2374TIP3   OH2 7064   0.950   5.305   4.764 -0.0333  0.8746 -0.0715
 2374TIP3    H1 7065   0.940   5.346   4.678  2.1509  0.9980 -0.2981
 2374TIP3    H2 7066   1.015   5.237   4.752 -0.9015 -0.2384  1.1491
 2375TIP3   OH2 7067   5.974   0.602   0.295 -0.1238  0.2274 -0.5138
 2375TIP3    H1 7068   5.995   0.688   0.257 -0.7861  0.4869 -0.3123
 2375TIP3    H2 7069   6.001   0.610   0.387  1.9978 -0.5887 -1.0164
 2376TIP3   OH2 7070   7.994   4.809   3.236 -0.2063  0.5363 -0.3566
 2376TIP3    H1 7071   7.998   4.718   3.264 -0.7645  0.9637  1.2248
 2376TIP3    H2 7072   8.086   4.836   3.230 -0.0388 -0.0916 -0.7553
 2377TIP3   OH2 7073   0.666   4.997   1.673  0.0596 -0.7846 -0.0668
 2377TIP3    H1 7074   0.627   5.083   1.653 -2.0268 -1.6959 -0.2574
 2377TIP3    H2 7075   0.683   4.999   1.767 -0.7334 -0.4121  0.0798
 2378TIP3   OH2 7076   7.238   4.083   4.776  0.2618 -0.0284 -0.4251
 2378TIP3    H1 7077   7.231   4.054   4.867 -2.6739  1.2866 -0.0978
 2378TIP3    H2 7078   7.199   4.011   4.725  0.0647  0.0608 -0.4044
 2379TIP3   OH2 7079   2.250   0.591   5.635 -0.6906  0.1901 -0.1563
 2379TIP3    H1 7080   2.345   0.605   5.638 -0.9275  1.7314  0.8820
 2379TIP3    H2 7081   2.222   0.634   5.554 -0.8483  2.2310  0.9360
 2380TIP3   OH2 7082   2.737   3.962   4.146 -0.0597 -0.2545 -0.9393
 2380TIP3    H1 7083   2.786   3.886   4.114 -1.0264 -0.3636 -2.2433
 2380TIP3    H2 7084   2.691   3.995   4.069 -2.4035 -0.4405  0.3018
 2381TIP3   OH2 7085   4.441   2.655   4.387  0.2374 -0.4028  0.2705
 2381TIP3    H1 7086   4.465   2.671   4.478 -1.7918 -2.0973  1.1886
 2381TIP3    H2 7087   4.361   2.706   4.374  0.1925 -0.6272 -0.3759
 2382TIP3   OH2 7088   5.305   5.576   4.224 -0.1762  0.0670  0.5197
 2382TIP3    H1 7089   5.243   5.576   4.151 -0.8415  1.8032  1.0415
 2382TIP3    H2 7090   5.262   5.522   4.291 -1.2271  1.3525  0.9230
 2383TIP3   OH2 7091   7.342   0.963   3.966  0.1336 -0.2583  0.1640
 2383TIP3    H1 7092   7.389   0.886   3.998  1.4289  1.0765  1.6655
 2383TIP3    H2 7093   7.250   0.936   3.963  0.3247 -1.3560  2.3279
 2384TIP3   OH2 7094   6.446   7.556   1.539  0.0173  0.3899  0.4918
 2384TIP3    H1 7095   6.530   7.522   1.510  0.1559  0.7486  0.4604
 2384TIP3    H2 7096   6.453   7.651   1.526 -0.2003  0.4761  0.9723
 2385TIP3   OH2 7097   1.445   5.007   3.965 -0.1174  0.6055 -0.2517
 2385TIP3    H1 7098   1.508   5.068   3.927  1.0577 -0.5121 -0.1634
 2385TIP3    H2 7099   1.468   4.922   3.928 -0.5407 -0.0943  1.0190
 2386TIP3   OH2 7100   4.085   7.230   3.605 -0.0873  0.0491  0.4189
 2386TIP3    H1 7101   4.170   7.268   3.628 -0.2608  0.6324  0.1022
 2386TIP3    H2 7102   4.023   7.270   3.666  0.0730 -1.5460  1.7176
 2387TIP3   OH2 7103   3.001   7.410   3.106  0.1036 -0.0735 -0.0048
 2387TIP3    H1 7104   3.040   7.378   3.025 -0.7961  1.0331 -0.9158
 2387TIP3    H2 7105   2.955   7.334   3.143  1.2717 -0.8159 -0.0395
 2388TIP3   OH2 7106   5.206   0.439   3.126  0.1897  0.5486  0.0498
 2388TIP3    H1 7107   5.198   0.505   3.195  0.0224 -0.3958  0.9556
 2388TIP3    H2 7108   5.294   0.451   3.091  1.0259 -0.2200  1.7755
 2389TIP3   OH2 7109   8.169   7.172   2.630 -0.3932 -0.3075 -0.0668
 2389TIP3    H1 7110   8.153   7.078   2.621  0.8458 -0.5366 -0.1053
 2389TIP3    H2 7111   8.202   7.182   2.719  0.6572 -0.1075 -0.4643
 2390TIP3   OH2 7112   3.147   6.501   5.666  0.3856 -0.0864 -0.8521
 2390TIP3    H1 7113   3.051   6.496   5.655  0.5591 -1.6185 -2.2019
 2390TIP3    H2 7114   3.161   6.497   5.760 -0.8532 -2.7543 -0.6693
 2391TIP3   OH2 7115   2.191   5.318   0.847  0.1395 -0.1221  0.4693
 2391TIP3    H1 7116   2.235   5.397   0.815 -2.4301  0.5533 -1.8228
 2391TIP3    H2 7117   2.146   5.346   0.926  0.0224  0.4809  0.1982
 2392TIP3   OH2 7118   8.135   5.123   6.648  0.3233 -0.2096  0.5441
 2392TIP3    H1 7119   8.053   5.078   6.629  0.1656  0.5242 -0.5949
 2392TIP3    H2 7120   8.110   5.198   6.702 -0.3636  2.1468 -2.7344
 2393TIP3   OH2 7121   3.498   2.683   4.739 -0.5633  0.0280  0.5897
 2393TIP3    H1 7122   3.565   2.749   4.728 -0.6880  0.0902  0.1894
 2393TIP3    H2 7123   3.447   2.686   4.658 -1.4825  0.4675  1.1617
 2394TIP3   OH2 7124   6.182   5.378   6.174  0.4912  0.4187  1.0590
 2394TIP3    H1 7125   6.276   5.396   6.171  0.3407  1.2233  0.8391
 2394TIP3    H2 7126   6.145   5.437   6.109  0.0556 -1.4690 -0.5226
 2395TIP3   OH2 7127   3.794   1.908   2.958 -0.2053 -0.5577  0.2347
 2395TIP3    H1 7128   3.712   1.946   2.926 -0.4220 -0.9080  0.3684
 2395TIP3    H2 7129   3.795   1.820   2.921  0.7309 -0.1328 -0.8222
 2396TIP3   OH2 7130   4.234   0.852   3.293  0.2513 -0.0010  0.3892
 2396TIP3    H1 7131   4.269   0.900   3.368  1.8369 -1.1562  0.4411
 2396TIP3    H2 7132   4.240   0.912   3.220  3.6018 -0.4724  0.1213
 2397TIP3   OH2 7133   4.695   2.879   1.125 -0.0636 -0.5665 -0.6713
 2397TIP3    H1 7134   4.617   2.919   1.163  1.3273  0.1604  1.6677
 2397TIP3    H2 7135   4.688   2.786   1.146 -0.8621 -0.7163 -1.5634
 2398TIP3   OH2 7136   2.096   7.147   5.431 -0.0593 -0.2805 -0.4698
 2398TIP3    H1 7137   2.119   7.147   5.338  1.2867  0.6385 -0.1525
 2398TIP3    H2 7138   2.173   7.181   5.475 -1.3014  0.9404  0.8418
 2399TIP3   OH2 7139   4.531   0.096   4.106 -0.0243 -0.0999  0.5208
 2399TIP3    H1 7140   4.531   0.011   4.150  1.5165  0.1571  1.0695
 2399TIP3    H2 7141   4.584   0.083   4.028 -1.5722 -0.1746 -0.5703
 2400TIP3   OH2 7142   1.777   4.971   5.919  0.1502 -0.1114  0.1141
 2400TIP3    H1 7143   1.738   4.899   5.870  1.2979 -1.1067  0.6051
 2400TIP3    H2 7144   1.798   4.933   6.005 -0.8028  1.2895  1.0076
 2401TIP3   OH2 7145   7.455   1.015   3.476  0.0323 -0.3654 -0.4225
 2401TIP3    H1 7146   7.429   1.000   3.385  4.6581  0.5031 -2.1820
 2401TIP3    H2 7147   7.417   1.100   3.497 -0.7385 -0.3582 -1.7084
 2402TIP3   OH2 7148   2.533   6.945   5.001 -0.3677  0.5936 -0.1489
 2402TIP3    H1 7149   2.539   6.852   5.023  1.8633  0.7453  0.1461
 2402TIP3    H2 7150   2.522   6.990   5.085  0.3611  0.6764 -0.0851
 2403TIP3   OH2 7151   6.740   3.253   6.653 -0.6305  0.0918  0.5888
 2403TIP3    H1 7152   6.792   3.306   6.592  0.1011 -1.0254  0.2212
 2403TIP3    H2 7153   6.678   3.315   6.692  0.4988  1.2984  0.5028
 2404TIP3   OH2 7154   6.781   4.245   5.659 -0.4087 -0.2346 -0.0507
 2404TIP3    H1 7155   6.848   4.288   5.606  2.0102 -1.8223  1.5394
 2404TIP3    H2 7156   6.754   4.313   5.722 -1.9149  1.0498 -1.9524
 2405TIP3   OH2 7157   3.000   3.771   2.426  0.4636 -0.6850  0.1949
 2405TIP3    H1 7158   3.054   3.817   2.490  0.5317 -0.5103  0.0148
 2405TIP3    H2 7159   3.059   3.705   2.388  1.4214  1.2418 -1.9395
 2406TIP3   OH2 7160   2.005   5.593   5.932  0.2180  0.1638  0.3342
 2406TIP3    H1 7161   1.922   5.558   5.900  0.7333 -0.3814 -0.4621
 2406TIP3    H2 7162   2.042   5.521   5.984  0.6873 -0.0060 -0.2256
 2407TIP3   OH2 7163   2.147   4.374   4.188  0.3918 -0.2174  0.7994
 2407TIP3    H1 7164   2.148   4.313   4.115  0.0471  0.6571  0.0445
 2407TIP3    H2 7165   2.102   4.327   4.258  0.4931 -0.9703  0.3675
 2408TIP3   OH2 7166   2.836   3.191   4.223  0.0470  0.1849  0.5161
 2408TIP3    H1 7167   2.801   3.231   4.143 -1.4412  1.2699  1.6623
 2408TIP3    H2 7168   2.924   3.228   4.230 -1.0411  2.8829  1.1704
 2409TIP3   OH2 7169   5.293   4.943   0.085 -0.1315  0.0984 -0.1213
 2409TIP3    H1 7170   5.248   5.011   0.034  0.7082  0.0731 -0.9187
 2409TIP3    H2 7171   5.386   4.962   0.074  0.0913  0.7860  2.3858
 2410TIP3   OH2 7172   1.267   1.333   5.248  0.1901  0.3907  0.4502
 2410TIP3    H1 7173   1.304   1.253   5.212  0.5888  0.2310  1.2069
 2410TIP3    H2 7174   1.343   1.387   5.270 -0.0703  0.8824  0.1737
 2411TIP3   OH2 7175   7.556   7.443   2.053 -0.1980  0.0128 -0.1012
 2411TIP3    H1 7176   7.494   7.497   2.102 -0.1634  0.3437 -0.4137
 2411TIP3    H2 7177   7.502   7.397   1.989  0.0059  1.2015 -1.1688
 2412TIP3   OH2 7178   7.033   3.897   5.483  0.3167 -0.4626 -0.4706
 2412TIP3    H1 7179   7.032   3.917   5.577 -1.6646 -1.2803 -0.2637
 2412TIP3    H2 7180   7.054   3.804   5.479  1.0082 -0.2927 -0.8879
 2413TIP3   OH2 7181   2.201   2.050   3.673  0.2406 -0.2194 -0.7634
 2413TIP3    H1 7182   2.168   2.111   3.606  0.1059  1.3053  0.6325
 2413TIP3    H2 7183   2.181   2.092   3.756 -0.6018 -2.5858  0.3246
 2414TIP3   OH2 7184   7.545   1.026   6.211 -0.4586  0.1001  0.6809
 2414TIP3    H1 7185   7.517   0.949   6.163  1.8466 -0.9094  0.8439
 2414TIP3    H2 7186   7.516   1.011   6.301  0.7848 -1.0953  0.9225
 2415TIP3   OH2 7187   7.200   6.391   1.577 -0.4904 -0.0192 -0.2687
 2415TIP3    H1 7188   7.130   6.335   1.544 -0.1613 -0.1376 -0.7976
 2415TIP3    H2 7189   7.193   6.387   1.672 -1.8368  0.7905 -0.3226
 2416TIP3   OH2 7190   5.978   2.657   4.310  0.0015 -0.1800 -0.0288
 2416TIP3    H1 7191   6.032   2.578   4.316  0.4036  0.1568  0.9932
 2416TIP3    H2 7192   6.035   2.728   4.339 -0.2947  0.5337 -1.1310
 2417TIP3   OH2 7193   7.494   1.548   5.796  0.1974 -0.5352  0.0718
 2417TIP3    H1 7194   7.581   1.556   5.834  0.2527  0.0874 -0.1737
 2417TIP3    H2 7195   7.490   1.617   5.729 -0.5499 -0.4288  0.2171
 2418TIP3   OH2 7196   5.735   6.214   6.396 -0.2391 -0.0380  0.2475
 2418TIP3    H1 7197   5.736   6.308   6.412  0.0510  0.0239 -0.1303
 2418TIP3    H2 7198   5.816   6.182   6.438  0.8593  0.2144 -1.5776
 2419TIP3   OH2 7199   3.951   4.106   1.637  0.0045  0.8017  0.3717
 2419TIP3    H1 7200   3.899   4.098   1.716  0.6600 -1.4911  0.6535
 2419TIP3    H2 7201   4.024   4.163   1.661 -0.8805  1.7930  0.7736
 2420TIP3   OH2 7202   7.931   3.965   5.792  0.0367 -0.1383  0.2033
 2420TIP3    H1 7203   8.023   3.951   5.770  0.8248 -0.5060  3.2657
 2420TIP3    H2 7204   7.886   3.888   5.756  1.5294 -1.7409  1.5682
 2421TIP3   OH2 7205  -0.014   4.360   1.587  0.5905  0.6554  0.7700
 2421TIP3    H1 7206   0.041   4.292   1.625  0.4597 -0.5239 -1.0417
 2421TIP3    H2 7207   0.047   4.424   1.551  0.9985 -1.3085 -2.4456
 2422TIP3   OH2 7208   1.768   0.381   6.149  0.1055 -0.5389  0.2363
 2422TIP3    H1 7209   1.858   0.384   6.119  0.0203 -0.3299  0.0058
 2422TIP3    H2 7210   1.716   0.418   6.078 -0.4097 -2.6697 -0.5754
 2423TIP3   OH2 7211   0.860   3.195   3.531 -0.1877 -0.3870 -0.2558
 2423TIP3    H1 7212   0.866   3.228   3.441 -2.5707 -0.9462 -0.6856
 2423TIP3    H2 7213   0.882   3.102   3.524  3.2534  0.2384  0.4263
 2424TIP3   OH2 7214   6.890   2.537   5.247  0.0265  0.7722  0.2873
 2424TIP3    H1 7215   6.866   2.450   5.276  2.3457  0.3818  1.2442
 2424TIP3    H2 7216   6.854   2.596   5.314 -0.2651  0.4303  0.4308
 2425TIP3   OH2 7217   4.678   2.875   5.896  0.4031  0.4594 -0.2910
 2425TIP3    H1 7218   4.708   2.831   5.816 -0.0309  1.5266 -1.0614
 2425TIP3    H2 7219   4.593   2.912   5.872 -0.3563 -0.3278  1.0809
 2426TIP3   OH2 7220   3.600   2.498   5.125 -0.3519  0.1490 -0.3539
 2426TIP3    H1 7221   3.578   2.539   5.209  1.7302  0.7857 -0.0738
 2426TIP3    H2 7222   3.628   2.409   5.148  0.5380  0.4312 -0.3203
 2427TIP3   OH2 7223   5.181   5.521   0.279 -0.2569  0.5045 -0.1181
 2427TIP3    H1 7224   5.148   5.462   0.347 -1.9890 -0.4581 -1.6846
 2427TIP3    H2 7225   5.128   5.500   0.202  3.2006 -0.2276 -2.5456
 2428TIP3   OH2 7226   6.519   3.853   3.121 -0.4545  0.0568 -0.4406
 2428TIP3    H1 7227   6.553   3.943   3.121  1.6089 -0.6622 -0.4544
 2428TIP3    H2 7228   6.452   3.853   3.189 -0.2240  1.5254 -0.1689
 2429TIP3   OH2 7229   2.806   5.574   2.458 -0.0087 -0.1739  0.2246
 2429TIP3    H1 7230   2.872   5.599   2.393  1.1892 -1.4801  0.8721
 2429TIP3    H2 7231   2.782   5.656   2.501  0.0355  0.5388 -1.0588
 2430TIP3   OH2 7232   1.722   2.578   0.567  0.6514  0.2486 -0.2365
 2430TIP3    H1 7233   1.781   2.648   0.597 -0.1011  0.6505  0.3608
 2430TIP3    H2 7234   1.693   2.536   0.648  0.4081 -0.1825 -0.5479
 2431TIP3   OH2 7235   5.487   3.402   3.551 -0.2606  0.2914  0.3709
 2431TIP3    H1 7236   5.428   3.458   3.600  0.9088  0.0643  2.1300
 2431TIP3    H2 7237   5.433   3.329   3.521 -1.1343  0.7842  0.7154
 2432TIP3   OH2 7238   7.831   3.704   1.809  0.1919 -0.0169 -0.4324
 2432TIP3    H1 7239   7.816   3.704   1.714 -0.4290 -1.3394 -0.3559
 2432TIP3    H2 7240   7.845   3.796   1.831  0.7526  0.2708 -1.8678
 2433TIP3   OH2 7241   5.798   1.995   2.249  0.4401  0.7378  0.2682
 2433TIP3    H1 7242   5.720   2.028   2.205  0.4688  0.3113 -0.1019
 2433TIP3    H2 7243   5.862   1.981   2.179  0.4868  0.0525  0.4384
 2434TIP3   OH2 7244   7.638   2.288   1.953 -0.0975  0.2382  0.4657
 2434TIP3    H1 7245   7.701   2.332   2.010  1.8454 -1.7471 -0.0042
 2434TIP3    H2 7246   7.601   2.219   2.007  0.3928 -0.4940 -0.1098
 2435TIP3   OH2 7247   0.632   0.452   5.914 -0.8616  0.5166 -0.1863
 2435TIP3    H1 7248   0.650   0.377   5.971 -1.7522  0.7355  0.4095
 2435TIP3    H2 7249   0.589   0.414   5.837  0.7445  0.1677 -0.9452
 2436TIP3   OH2 7250   2.237   7.062   0.850  0.0321  0.0768 -0.3717
 2436TIP3    H1 7251   2.149   7.068   0.812 -0.2431  0.8328  0.3474
 2436TIP3    H2 7252   2.293   7.036   0.776 -0.7044  0.1072 -0.9594
 2437TIP3   OH2 7253   7.685   3.075   4.427 -0.0805  0.2029 -0.2388
 2437TIP3    H1 7254   7.691   3.127   4.347 -1.5448  0.9329  0.0962
 2437TIP3    H2 7255   7.627   3.002   4.405  0.2445 -0.1075 -0.0884
 2438TIP3   OH2 7256   2.848   6.774   0.188  0.1843  0.5876  0.1459
 2438TIP3    H1 7257   2.875   6.812   0.272  0.3092  0.9398 -0.0487
 2438TIP3    H2 7258   2.862   6.680   0.198  0.2126  0.6301  0.5142
 2439TIP3   OH2 7259   1.984   2.698   1.573 -0.3071  0.0968  0.1199
 2439TIP3    H1 7260   1.899   2.655   1.563 -0.1762 -0.4617  1.2397
 2439TIP3    H2 7261   1.962   2.787   1.601 -0.5540 -0.7797  3.0587
 2440TIP3   OH2 7262   1.204   5.102   2.037 -0.1036  0.0693  0.2476
 2440TIP3    H1 7263   1.179   5.163   2.107  0.3202  0.3123  0.1905
 2440TIP3    H2 7264   1.152   5.129   1.962  0.2295  0.4887  0.1661
 2441TIP3   OH2 7265   3.220   3.058   3.758  0.5788 -0.0250  0.0958
 2441TIP3    H1 7266   3.295   3.048   3.816 -0.1564 -2.5216  0.7119
 2441TIP3    H2 7267   3.145   3.063   3.816 -0.1425 -2.3265 -0.5228
 2442TIP3   OH2 7268   2.678   5.429   5.360  0.1436  0.4234 -0.3355
 2442TIP3    H1 7269   2.691   5.440   5.266 -0.7883  0.8156 -0.4306
 2442TIP3    H2 7270   2.618   5.500   5.384  0.3726  0.3274  0.5516
 2443TIP3   OH2 7271   5.618   5.794   2.277  0.4648  0.0745  0.7537
 2443TIP3    H1 7272   5.526   5.801   2.301 -0.1294  2.0266 -1.6473
 2443TIP3    H2 7273   5.657   5.875   2.311  0.9033  0.0249  0.3766
 2444TIP3   OH2 7274   1.229   0.249   4.095 -0.2552  0.2210 -0.0071
 2444TIP3    H1 7275   1.287   0.300   4.039 -0.8233  0.0183 -0.7951
 2444TIP3    H2 7276   1.154   0.306   4.110  1.4291  1.8370  3.6986
 2445TIP3   OH2 7277   5.354   3.910   5.176  0.4977  0.1783 -0.3323
 2445TIP3    H1 7278   5.365   3.868   5.261 -1.6210  1.8763  0.8952
 2445TIP3    H2 7279   5.283   3.861   5.134  1.8842 -0.9813 -1.3992
 2446TIP3   OH2 7280   7.676   5.353   0.644 -0.1405 -0.0249 -0.5844
 2446TIP3    H1 7281   7.620   5.426   0.670 -0.3457  0.1261 -1.4210
 2446TIP3    H2 7282   7.745   5.351   0.710 -1.0609 -0.1554  0.4167
 2447TIP3   OH2 7283   7.965   7.564   5.433  0.0791  0.0002 -0.1922
 2447TIP3    H1 7284   7.930   7.543   5.519  2.6888 -2.2194  0.4307
 2447TIP3    H2 7285   7.887   7.584   5.380 -1.8627 -1.7234  1.8223
 2448TIP3   OH2 7286   6.982   4.643   5.603 -0.0722  0.0200 -0.5632
 2448TIP3    H1 7287   6.889   4.632   5.623  0.0933  0.2166  0.3464
 2448TIP3    H2 7288   7.002   4.734   5.625  0.1982  0.1634 -1.3585
 2449TIP3   OH2 7289   6.483   1.459   3.655 -0.5309  0.4304 -0.2892
 2449TIP3    H1 7290   6.534   1.535   3.684  2.0432 -0.9736 -0.9037
 2449TIP3    H2 7291   6.467   1.475   3.561  0.6692 -0.1060 -0.5969
 2450TIP3   OH2 7292   1.264   6.656   4.267 -0.3608 -0.2441  0.1503
 2450TIP3    H1 7293   1.293   6.685   4.180 -0.0018  1.5521  0.8227
 2450TIP3    H2 7294   1.340   6.671   4.323 -0.8972 -0.5061  0.9615
 2451TIP3   OH2 7295   1.846   6.723   2.199 -0.5994  0.4109  0.6112
 2451TIP3    H1 7296   1.755   6.752   2.209 -0.5712  0.9851 -0.6929
 2451TIP3    H2 7297   1.890   6.794   2.154  0.1076 -0.5610 -0.2831
 2452TIP3   OH2 7298   7.261   4.606   0.774 -0.1797 -0.3956 -0.1629
 2452TIP3    H1 7299   7.316   4.626   0.850  0.4264 -1.7052 -0.2328
 2452TIP3    H2 7300   7.238   4.514   0.785 -1.9461 -0.0212 -0.4150
 2453TIP3   OH2 7301   4.231   4.333   2.997  0.6672  0.2595 -0.2900
 2453TIP3    H1 7302   4.233   4.238   2.995 -1.7571  0.0950  1.1686
 2453TIP3    H2 7303   4.138   4.356   2.991  1.0996  2.4946  0.3485
 2454TIP3   OH2 7304   4.064   0.007   5.365  0.1032 -0.6653 -0.0844
 2454TIP3    H1 7305   4.072   0.063   5.288  2.9106  0.1585  0.6704
 2454TIP3    H2 7306   4.028   0.065   5.433 -1.5820 -1.1651 -0.5156
 2455TIP3   OH2 7307   3.685   7.260   5.882 -0.0325 -0.4586 -0.4312
 2455TIP3    H1 7308   3.733   7.197   5.829 -1.5329 -0.2438 -2.1458
 2455TIP3    H2 7309   3.750   7.293   5.945  1.5619 -1.4483 -1.4835
 2456TIP3   OH2 7310   2.901   5.325   4.062  0.0253 -0.5320 -0.1894
 2456TIP3    H1 7311   2.870   5.411   4.033 -1.6748 -0.9868  0.1238
 2456TIP3    H2 7312   2.991   5.320   4.032 -0.5429  0.4325 -2.2614
 2457TIP3   OH2 7313   1.485   2.801   1.761 -0.2277 -0.2703 -0.5818
 2457TIP3    H1 7314   1.487   2.848   1.678 -1.2888  1.2136  0.2009
 2457TIP3    H2 7315   1.571   2.817   1.800 -0.7003  1.3783 -0.1579
 2458TIP3   OH2 7316   0.445   7.612   4.432 -0.3070 -0.2079  0.2491
 2458TIP3    H1 7317   0.480   7.686   4.482  0.2962  2.3204 -3.5368
 2458TIP3    H2 7318   0.350   7.622   4.441 -0.2793 -1.2703  2.6448
 2459TIP3   OH2 7319   2.930   3.262   2.632  0.3425 -0.1315 -0.1469
 2459TIP3    H1 7320   2.889   3.266   2.545 -0.6962 -0.7744  0.2909
 2459TIP3    H2 7321   2.924   3.169   2.656 -0.2256  0.1908  1.0006
 2460TIP3   OH2 7322   0.344   3.234   2.537 -0.3166 -0.0263 -0.0605
 2460TIP3    H1 7323   0.432   3.218   2.569 -0.5243  0.6207  0.8728
 2460TIP3    H2 7324   0.293   3.158   2.565 -0.7035  0.9218  2.0262
 2461TIP3   OH2 7325   7.249   6.142   2.474 -0.0653  0.4232 -0.0081
 2461TIP3    H1 7326   7.184   6.074   2.488 -0.1748  0.6020  0.3609
 2461TIP3    H2 7327   7.284   6.160   2.561  2.8339 -1.9632 -0.4882
 2462TIP3   OH2 7328   6.130   4.505   4.907  0.1713 -0.5762  0.4847
 2462TIP3    H1 7329   6.216   4.468   4.926  0.2671 -0.5240  0.1567
 2462TIP3    H2 7330   6.135   4.531   4.815  0.0834  0.1792  0.6885
 2463TIP3   OH2 7331   5.538   3.098   3.488  0.5117 -0.4321  0.1979
 2463TIP3    H1 7332   5.490   3.019   3.465  1.7882 -1.0852 -0.2638
 2463TIP3    H2 7333   5.528   3.155   3.412 -1.7113  0.5498  1.1103
 2464TIP3   OH2 7334   3.356   3.954   5.821  0.2642 -0.0491 -0.1613
 2464TIP3    H1 7335   3.363   3.941   5.915  1.2826 -0.2104 -0.2498
 2464TIP3    H2 7336   3.262   3.953   5.803 -0.0889  2.3297  1.1848
 2465TIP3   OH2 7337   1.950   4.637   5.413  0.2627  0.1602 -0.1477
 2465TIP3    H1 7338   1.960   4.731   5.424 -0.4524  0.2389 -0.1532
 2465TIP3    H2 7339   2.002   4.616   5.336 -0.3385  0.7014 -0.7054
 2466TIP3   OH2 7340   3.811   7.174   0.566  0.1317 -0.0279  1.4480
 2466TIP3    H1 7341   3.895   7.129   0.573  0.4561  0.5673  1.4152
 2466TIP3    H2 7342   3.823   7.238   0.497 -0.2198  0.3467  1.7299
 2467TIP3   OH2 7343   8.080   6.863   5.871  0.1304  0.3137 -0.4114
 2467TIP3    H1 7344   8.055   6.908   5.791  0.2965  2.2140  0.5512
 2467TIP3    H2 7345   8.123   6.930   5.924  1.5145 -1.2922  0.6002
 2468TIP3   OH2 7346   8.301   3.189   5.953 -0.4061 -0.3176 -0.3573
 2468TIP3    H1 7347   8.281   3.205   5.861  0.1154 -2.4495 -0.9035
 2468TIP3    H2 7348   8.311   3.276   5.992  0.1293  0.6164 -2.4748
 2469TIP3   OH2 7349   7.459   3.245   1.069 -0.4143 -0.0367 -0.5369
 2469TIP3    H1 7350   7.493   3.159   1.093 -1.1469  0.4037  2.4336
 2469TIP3    H2 7351   7.535   3.303   1.071 -0.2090 -0.2864 -0.9027
 2470TIP3   OH2 7352   5.380   7.838   0.132  0.1454 -0.1633 -0.2114
 2470TIP3    H1 7353   5.325   7.761   0.118  2.2485 -1.7408 -0.2384
 2470TIP3    H2 7354   5.428   7.819   0.213 -1.0674  2.2826  1.2166
 2471TIP3   OH2 7355   4.551   7.395   5.164  0.0499  0.0136 -0.2081
 2471TIP3    H1 7356   4.600   7.360   5.090 -0.4956  0.3175 -0.7238
 2471TIP3    H2 7357   4.599   7.474   5.190 -0.6815  0.8726 -1.3500
 2472TIP3   OH2 7358   5.973   4.863   0.443  0.0571  0.1655  0.2881
 2472TIP3    H1 7359   5.894   4.901   0.404 -1.6258 -2.7727  0.5712
 2472TIP3    H2 7360   6.031   4.846   0.369 -0.2320  0.9112 -0.1166
 2473TIP3   OH2 7361   2.673   6.754   2.279  0.4187  0.1120 -0.1350
 2473TIP3    H1 7362   2.664   6.684   2.214 -0.9202  1.3205 -1.3147
 2473TIP3    H2 7363   2.703   6.830   2.229 -0.5452  1.0397  0.6449
 2474TIP3   OH2 7364   7.150   2.032   3.517  0.2415  0.0572  0.4284
 2474TIP3    H1 7365   7.232   1.991   3.490 -0.7657 -1.3018 -0.7376
 2474TIP3    H2 7366   7.150   2.117   3.473  1.0738  0.1330  0.5588
 2475TIP3   OH2 7367   6.393   7.089   1.988  0.3700 -0.5107 -0.3072
 2475TIP3    H1 7368   6.416   7.008   2.034 -2.5690 -0.3787  1.6946
 2475TIP3    H2 7369   6.337   7.060   1.916  0.5109 -0.3501 -0.4798
 2476TIP3   OH2 7370   5.684   1.435   4.101  0.1864  0.0121 -0.1513
 2476TIP3    H1 7371   5.763   1.462   4.054 -1.0268  1.7654 -1.2940
 2476TIP3    H2 7372   5.705   1.450   4.193  2.3328 -2.7662 -0.0702
 2477TIP3   OH2 7373   5.515   4.028   2.616  0.3111  0.1741 -0.8138
 2477TIP3    H1 7374   5.462   4.052   2.539  0.9012  1.2250 -0.9155
 2477TIP3    H2 7375   5.461   3.965   2.663 -0.6411  0.5262 -1.3950
 2478TIP3   OH2 7376   7.417   6.982   4.281 -0.4233  0.0786  0.2181
 2478TIP3    H1 7377   7.443   6.889   4.279 -0.8299 -0.0394  0.2911
 2478TIP3    H2 7378   7.321   6.980   4.282 -0.4519  0.5244 -0.8605
 2479TIP3   OH2 7379   0.374   3.490   4.218 -0.4981 -0.2323 -0.4922
 2479TIP3    H1 7380   0.368   3.477   4.123  2.6711  2.1751 -1.2287
 2479TIP3    H2 7381   0.299   3.545   4.240 -1.5084 -1.1826 -1.5086
 2480TIP3   OH2 7382   6.523   3.931   4.057 -0.3365  0.3168  0.5143
 2480TIP3    H1 7383   6.431   3.910   4.069 -0.3327 -1.0656 -1.4268
 2480TIP3    H2 7384   6.569   3.871   4.116 -0.6268  0.7115  1.1600
 2481TIP3   OH2 7385   7.568   0.106   4.100  0.3189  0.2500  0.5611
 2481TIP3    H1 7386   7.566   0.074   4.190  1.8034  1.2800  0.9904
 2481TIP3    H2 7387   7.491   0.066   4.059  0.0242 -0.8235  2.0712
 2482TIP3   OH2 7388   7.694   4.889   6.499 -0.4312 -0.1513 -0.2181
 2482TIP3    H1 7389   7.627   4.827   6.528  1.4158 -1.3674  1.8427
 2482TIP3    H2 7390   7.733   4.847   6.422 -0.5054 -0.6061 -0.0128
 2483TIP3   OH2 7391   1.646   3.633   4.344  0.2887  0.2794  0.0847
 2483TIP3    H1 7392   1.676   3.648   4.434  2.7477 -0.5656 -0.5267
 2483TIP3    H2 7393   1.675   3.711   4.296 -0.1723  0.2991 -0.1668
 2484TIP3   OH2 7394   3.001   5.049   5.390  0.8673 -0.1146  0.2067
 2484TIP3    H1 7395   3.065   5.117   5.410  0.0176  0.4015  1.2399
 2484TIP3    H2 7396   2.936   5.094   5.336  0.3026 -0.0963  0.8962
 2485TIP3   OH2 7397   0.157   2.122   1.156 -0.4572  0.7360 -0.1492
 2485TIP3    H1 7398   0.143   2.164   1.240  0.5259  0.0137  0.3978
 2485TIP3    H2 7399   0.249   2.093   1.158 -0.7962 -0.4868 -0.9192
 2486TIP3   OH2 7400   1.404   3.381   5.162  0.3322 -0.0326  0.2072
 2486TIP3    H1 7401   1.336   3.445   5.182 -0.1279 -0.5669  0.4040
 2486TIP3    H2 7402   1.462   3.382   5.238  0.5342  0.4130  0.0471
 2487TIP3   OH2 7403   4.557   0.518   4.803 -0.3726 -0.3529 -0.1893
 2487TIP3    H1 7404   4.553   0.608   4.771  1.1724 -0.1352  0.1498
 2487TIP3    H2 7405   4.470   0.502   4.841 -0.9313  0.7053 -0.9521
 2488TIP3   OH2 7406   5.563   0.454   1.335  0.4645 -0.0275 -0.8457
 2488TIP3    H1 7407   5.468   0.454   1.331  0.2773 -0.2539  1.6879
 2488TIP3    H2 7408   5.588   0.547   1.325  0.0591 -0.0334 -2.0625
 2489TIP3   OH2 7409   6.258   2.668   0.253  0.2923  0.4342 -0.2324
 2489TIP3    H1 7410   6.271   2.762   0.268  0.0541  0.5854 -0.9533
 2489TIP3    H2 7411   6.174   2.649   0.295  1.3388  0.0711  1.8249
 2490TIP3   OH2 7412   0.465   6.355   0.413  0.1205 -0.0738  0.2203
 2490TIP3    H1 7413   0.466   6.451   0.409  1.1857  0.0038  1.7645
 2490TIP3    H2 7414   0.378   6.334   0.447 -0.0734  0.3411 -0.0010
 2491TIP3   OH2 7415   2.463   4.648   0.551  0.4430  0.7151  0.7188
 2491TIP3    H1 7416   2.555   4.675   0.542  0.1932  1.3228 -0.1020
 2491TIP3    H2 7417   2.466   4.574   0.612  1.6949 -0.4311 -0.6461
 2492TIP3   OH2 7418   2.055   3.928   1.322 -0.0591 -0.2921 -0.1611
 2492TIP3    H1 7419   2.060   3.912   1.416  0.7426 -1.0031 -0.3158
 2492TIP3    H2 7420   2.052   3.841   1.282  1.5308 -0.0621 -0.8725
 2493TIP3   OH2 7421   3.455   7.014   5.249 -0.4050 -0.7960 -0.3669
 2493TIP3    H1 7422   3.394   7.086   5.231 -0.6859 -0.6897  0.9322
 2493TIP3    H2 7423   3.537   7.058   5.275  0.0359 -0.9458 -1.4417
 2494TIP3   OH2 7424   8.058   5.535   4.786  0.0013 -0.2959 -0.1799
 2494TIP3    H1 7425   8.043   5.444   4.758 -0.6538 -0.2543  0.0197
 2494TIP3    H2 7426   8.087   5.527   4.877 -1.6129 -0.2387  0.3735
 2495TIP3   OH2 7427   5.553   0.818   0.492 -0.0260 -0.3212  0.3592
 2495TIP3    H1 7428   5.614   0.814   0.565 -1.4215  0.5435  1.6388
 2495TIP3    H2 7429   5.486   0.753   0.514 -0.2356 -0.3590 -0.3717
 2496TIP3   OH2 7430   6.261   3.813   3.282 -0.3694 -0.4935 -0.2125
 2496TIP3    H1 7431   6.239   3.898   3.245 -1.7242 -1.1054 -0.8919
 2496TIP3    H2 7432   6.329   3.831   3.346 -1.1277  1.1887  0.1618
 2497TIP3   OH2 7433   6.286   7.321   2.145  0.3435 -0.3915  0.6608
 2497TIP3    H1 7434   6.194   7.299   2.131 -0.1683  1.8500  0.1688
 2497TIP3    H2 7435   6.333   7.267   2.082 -0.9338  0.5815 -1.2293
 2498TIP3   OH2 7436   2.003   5.182   6.278  0.5620 -0.6291  1.0810
 2498TIP3    H1 7437   2.046   5.231   6.348 -0.0048  1.5492 -0.0171
 2498TIP3    H2 7438   1.928   5.235   6.253  0.3657 -1.6611 -0.7500
 2499TIP3   OH2 7439   4.347   1.698   1.922 -0.0393 -0.3723 -0.8838
 2499TIP3    H1 7440   4.384   1.740   2.000 -0.1365  0.5207 -1.3154
 2499TIP3    H2 7441   4.326   1.609   1.951 -0.1499 -0.0274  0.1360
 2500TIP3   OH2 7442   7.267   1.401   5.379  0.3510  0.2854  0.2925
 2500TIP3    H1 7443   7.288   1.355   5.297 -3.0482 -3.1550  1.0431
 2500TIP3    H2 7444   7.324   1.361   5.444  0.5300  0.3664  0.1844
 2501TIP3   OH2 7445   4.457   5.557   5.027  0.0198  0.2615  0.3523
 2501TIP3    H1 7446   4.508   5.478   5.045 -0.7936 -0.6279 -1.0927
 2501TIP3    H2 7447   4.367   5.533   5.050 -0.2565  0.7035 -0.2387
 2502TIP3   OH2 7448   2.779   4.289   2.889 -0.4794  0.6831  0.3090
 2502TIP3    H1 7449   2.767   4.202   2.925 -0.5336  0.2337 -0.7561
 2502TIP3    H2 7450   2.803   4.274   2.797  0.8238  1.7507  0.4483
 2503TIP3   OH2 7451   3.302   7.376   1.689  0.0969  0.2214 -0.1131
 2503TIP3    H1 7452   3.268   7.446   1.633  1.8301  0.7945 -0.4988
 2503TIP3    H2 7453   3.247   7.380   1.767 -0.2536  1.5992 -0.3946
 2504TIP3   OH2 7454   6.577   4.180   3.616  0.9177  0.4910 -0.4249
 2504TIP3    H1 7455   6.593   4.108   3.677 -0.0303 -0.2149 -0.9897
 2504TIP3    H2 7456   6.565   4.257   3.672 -1.7012 -0.4468  0.4417
 2505TIP3   OH2 7457   2.344   1.257   3.242  0.1687  0.0262 -0.5036
 2505TIP3    H1 7458   2.418   1.298   3.286 -0.0127 -0.2961  0.1172
 2505TIP3    H2 7459   2.322   1.317   3.171 -1.8005  2.4291  1.9401
 2506TIP3   OH2 7460   6.357   7.072   0.472  0.6272  0.1527 -0.2219
 2506TIP3    H1 7461   6.408   7.028   0.404 -0.8123 -2.4656  0.2823
 2506TIP3    H2 7462   6.313   7.144   0.426  3.7805  1.8634 -0.8654
 2507TIP3   OH2 7463   7.951   7.531   4.968 -0.5970 -0.8272  0.0136
 2507TIP3    H1 7464   7.857   7.536   4.988 -0.7869  0.1402 -1.0387
 2507TIP3    H2 7465   7.955   7.494   4.880 -0.0422  0.0886 -0.3556
 2508TIP3   OH2 7466   7.825   6.670   2.408 -0.0898  0.5764 -0.3444
 2508TIP3    H1 7467   7.788   6.730   2.343  1.9780  0.4877 -1.6736
 2508TIP3    H2 7468   7.814   6.715   2.491 -2.6871  0.7481 -0.6726
 2509TIP3   OH2 7469   2.508   7.458   2.414  0.2722 -0.6454 -0.0324
 2509TIP3    H1 7470   2.599   7.471   2.387  0.4129  0.0081  0.7170
 2509TIP3    H2 7471   2.511   7.378   2.467  1.0045  0.8931  2.4637
 2510TIP3   OH2 7472   8.061   4.620   1.553  0.3014 -0.5852 -0.1038
 2510TIP3    H1 7473   8.092   4.652   1.637 -1.2984  1.8338 -0.3391
 2510TIP3    H2 7474   8.101   4.678   1.488 -1.0868 -0.2988 -0.7378
 2511TIP3   OH2 7475   7.741   5.297   3.635 -0.6420 -0.3239 -0.4448
 2511TIP3    H1 7476   7.749   5.341   3.550  0.5580 -0.0548 -0.2211
 2511TIP3    H2 7477   7.800   5.221   3.628 -0.2524 -0.0962  0.2553
 2512TIP3   OH2 7478   2.397   3.879   0.644  0.0663 -0.1051  0.6310
 2512TIP3    H1 7479   2.318   3.888   0.697  0.7933 -1.1162  1.9654
 2512TIP3    H2 7480   2.455   3.949   0.674 -0.7563  1.5164 -1.3015
 2513TIP3   OH2 7481   2.866   1.247   0.947  0.0628  0.4780  0.4236
 2513TIP3    H1 7482   2.877   1.164   0.994 -3.0282 -1.1224 -1.3220
 2513TIP3    H2 7483   2.892   1.226   0.857 -1.6906  1.0439 -0.2508
 2514TIP3   OH2 7484   6.462   1.945   0.704  0.3581 -0.0801  0.1743
 2514TIP3    H1 7485   6.486   2.030   0.739  0.5448 -0.2085  0.3620
 2514TIP3    H2 7486   6.489   1.947   0.612  0.3061  0.0831  0.1634
 2515TIP3   OH2 7487   2.369   7.484   1.219 -0.6296 -0.8091 -0.4428
 2515TIP3    H1 7488   2.406   7.416   1.277  0.3314 -0.1469 -0.2541
 2515TIP3    H2 7489   2.281   7.452   1.199 -0.0020 -2.4058 -0.8310
 2516TIP3   OH2 7490   7.033   6.661   1.873  0.6585 -0.4473  0.3350
 2516TIP3    H1 7491   7.123   6.636   1.896  0.4066 -0.8714  0.8934
 2516TIP3    H2 7492   7.037   6.756   1.861  1.4181 -0.6069 -0.7850
 2517TIP3   OH2 7493   4.448   1.428   4.808  0.0250 -0.2917  0.3747
 2517TIP3    H1 7494   4.523   1.468   4.764  1.0800 -3.5022 -1.0253
 2517TIP3    H2 7495   4.372   1.476   4.774  1.2059  0.7575 -0.8723
 2518TIP3   OH2 7496   5.577   1.978   5.863 -0.1951  0.0014  0.4759
 2518TIP3    H1 7497   5.668   2.004   5.849  0.1603 -0.6845  1.3878
 2518TIP3    H2 7498   5.582   1.908   5.929 -1.4344  0.4058  1.0287
 2519TIP3   OH2 7499   3.516   0.825   6.651  0.5133  0.0870 -0.2349
 2519TIP3    H1 7500   3.542   0.758   6.588  1.1720 -0.1873  0.3252
 2519TIP3    H2 7501   3.501   0.777   6.733  1.7350  0.7049  0.3774
 2520TIP3   OH2 7502   4.658   3.931   6.022  0.1424  0.0457  0.3782
 2520TIP3    H1 7503   4.738   3.965   6.061  0.2363 -0.4467  0.6201
 2520TIP3    H2 7504   4.612   3.888   6.094 -0.4464  0.5119  0.2892
 2521TIP3   OH2 7505   0.687   3.832   1.524  0.0348 -0.0774 -0.0301
 2521TIP3    H1 7506   0.738   3.797   1.450 -0.8987 -2.6932  0.4578
 2521TIP3    H2 7507   0.598   3.803   1.506 -0.2775 -0.4021  1.9190
 2522TIP3   OH2 7508   7.244   2.253   2.118  0.1891 -0.0229 -0.5080
 2522TIP3    H1 7509   7.174   2.204   2.074  1.6303 -0.9376 -1.8721
 2522TIP3    H2 7510   7.307   2.186   2.145  1.1140  0.8728 -0.3782
 2523TIP3   OH2 7511   0.475   5.809   1.659  0.7094 -0.7867 -0.7829
 2523TIP3    H1 7512   0.537   5.740   1.680  0.5746 -0.1486  2.1560
 2523TIP3    H2 7513   0.423   5.820   1.739 -1.3472  0.6025 -2.1966
 2524TIP3   OH2 7514   0.129   2.228   3.352 -0.5118  0.0419  0.4673
 2524TIP3    H1 7515   0.167   2.222   3.439 -1.3242  0.0917  0.8358
 2524TIP3    H2 7516   0.138   2.320   3.328  0.5483 -0.1409  0.0978
 2525TIP3   OH2 7517   3.046   1.260   4.792  0.2901  0.0373 -0.1879
 2525TIP3    H1 7518   3.116   1.314   4.756  1.1102 -0.1720  1.0306
 2525TIP3    H2 7519   3.091   1.195   4.845 -0.7851 -0.7230 -0.1801
 2526TIP3   OH2 7520   7.896   6.857   0.244 -0.0806 -0.3601 -0.2430
 2526TIP3    H1 7521   7.804   6.872   0.268  0.3420 -0.0847  1.2861
 2526TIP3    H2 7522   7.925   6.788   0.304  1.0537  0.4270  0.1320
 2527TIP3   OH2 7523   0.235   2.909   3.500 -0.1886 -0.2410  0.0147
 2527TIP3    H1 7524   0.156   2.926   3.551  1.1059 -0.6863  2.3245
 2527TIP3    H2 7525   0.256   2.817   3.519  0.1426 -0.5717 -1.7274
 2528TIP3   OH2 7526   5.822   1.066   0.607  0.1695  0.4519  0.1126
 2528TIP3    H1 7527   5.776   1.104   0.682 -1.2200  0.3063 -0.6321
 2528TIP3    H2 7528   5.909   1.106   0.610  0.3704 -0.0317  2.1493
 2529TIP3   OH2 7529   0.623   0.802   5.450 -0.3306  0.3236 -0.3483
 2529TIP3    H1 7530   0.617   0.866   5.379 -0.8288  0.3532 -0.2818
 2529TIP3    H2 7531   0.558   0.830   5.513  1.0669  1.1118  0.7906
 2530TIP3   OH2 7532   7.955   1.006   2.125  0.1558  0.0364 -0.1567
 2530TIP3    H1 7533   7.902   0.995   2.203  0.4558  0.3833  0.1031
 2530TIP3    H2 7534   8.037   1.044   2.157  0.8801 -1.2187 -0.4424
 2531TIP3   OH2 7535   7.823   6.256   0.538 -0.5395  0.1419  0.2698
 2531TIP3    H1 7536   7.854   6.232   0.450 -0.9426 -0.3169  0.2570
 2531TIP3    H2 7537   7.746   6.310   0.522 -0.8806 -0.3176  0.3507
 2532TIP3   OH2 7538   2.563   1.924   2.854 -0.8438  0.5299  0.3392
 2532TIP3    H1 7539   2.647   1.896   2.818 -0.6794  2.8064 -1.2442
 2532TIP3    H2 7540   2.509   1.845   2.852  0.1270 -0.1541 -2.1114
 2533TIP3   OH2 7541   4.250   2.924   0.605  0.5085  0.1390  0.4253
 2533TIP3    H1 7542   4.257   2.832   0.630  0.4616  0.2423  0.8282
 2533TIP3    H2 7543   4.189   2.962   0.669  2.8108  1.1228  2.1897
 2534TIP3   OH2 7544   2.631   5.309   2.052  0.2413  0.2497  0.6003
 2534TIP3    H1 7545   2.568   5.367   2.094 -0.5238  0.6530 -1.0236
 2534TIP3    H2 7546   2.578   5.236   2.020  0.5743  0.5918 -0.7819
 2535TIP3   OH2 7547   4.318   3.426   1.761  0.6682  0.0887 -0.8449
 2535TIP3    H1 7548   4.363   3.377   1.830 -1.3512 -0.5930  0.0621
 2535TIP3    H2 7549   4.360   3.512   1.762  1.1338 -0.1112  0.8004
 2536TIP3   OH2 7550   5.132   5.830   6.344  0.1428  0.0078  0.0216
 2536TIP3    H1 7551   5.108   5.737   6.344 -0.0919  0.0566  0.9888
 2536TIP3    H2 7552   5.057   5.874   6.384  0.7410  0.4704  0.6615
 2537TIP3   OH2 7553   5.916   7.538   6.521 -0.3855  0.2377 -0.1258
 2537TIP3    H1 7554   6.007   7.516   6.501 -0.4347 -1.8518  1.5440
 2537TIP3    H2 7555   5.916   7.633   6.533  2.4032 -0.0223  3.3547
 2538TIP3   OH2 7556   1.036   2.499   4.429  0.1663 -0.1946 -0.3794
 2538TIP3    H1 7557   1.040   2.421   4.373  0.4866  0.3507 -1.1357
 2538TIP3    H2 7558   1.058   2.467   4.517  1.7117 -0.7176 -0.9294
 2539TIP3   OH2 7559   1.569   1.364   4.764  0.4474 -0.0195  0.4411
 2539TIP3    H1 7560   1.538   1.282   4.801  0.0609 -0.3433 -0.5737
 2539TIP3    H2 7561   1.664   1.357   4.765  0.4307 -0.2055  0.9438
 2540TIP3   OH2 7562   5.839   2.105   5.813  0.1509 -1.1876  0.2389
 2540TIP3    H1 7563   5.818   2.166   5.884 -0.4434 -1.7009  0.5150
 2540TIP3    H2 7564   5.864   2.161   5.740  2.6631 -0.6721  1.4098
 2541TIP3   OH2 7565   0.319   7.820   4.028  0.4095 -0.0112  0.1269
 2541TIP3    H1 7566   0.271   7.741   4.004 -0.4639  1.2955 -2.9216
 2541TIP3    H2 7567   0.407   7.806   3.993  0.5896 -0.0554  0.5856
 2542TIP3   OH2 7568   7.144   6.644   3.643  0.2504  0.2646  0.2632
 2542TIP3    H1 7569   7.171   6.675   3.556 -0.5406 -0.8951 -0.4069
 2542TIP3    H2 7570   7.226   6.617   3.684  0.3963 -1.4645 -1.0569
 2543TIP3   OH2 7571   1.264   0.094   1.299 -0.2599 -0.1810  0.3944
 2543TIP3    H1 7572   1.358   0.087   1.310 -0.3515 -1.2545  0.6134
 2543TIP3    H2 7573   1.247   0.051   1.215 -0.5523  0.0296  0.3444
 2544TIP3   OH2 7574   1.461   1.209   3.629  0.1376 -0.0760  0.0317
 2544TIP3    H1 7575   1.517   1.273   3.584 -0.2055 -1.1318 -2.0273
 2544TIP3    H2 7576   1.511   1.127   3.624 -0.4347 -0.4602  0.5484
 2545TIP3   OH2 7577   2.563   5.429   4.951 -0.2816 -0.1829 -0.0924
 2545TIP3    H1 7578   2.528   5.423   4.862  0.3843  1.4509 -0.5096
 2545TIP3    H2 7579   2.489   5.458   5.004 -0.5993 -0.8471 -0.1633
 2546TIP3   OH2 7580   3.202   2.721   3.414 -0.1316  0.0111  0.1625
 2546TIP3    H1 7581   3.132   2.727   3.350 -0.1485  0.6562  0.2325
 2546TIP3    H2 7582   3.174   2.778   3.487  0.1002 -0.3424  0.5336
 2547TIP3   OH2 7583   7.897   6.179   0.267  0.3029 -0.2580  0.4116
 2547TIP3    H1 7584   7.891   6.087   0.241 -0.1329 -0.4474  1.1469
 2547TIP3    H2 7585   7.825   6.221   0.219  0.2915 -0.3636  0.3342
 2548TIP3   OH2 7586   4.675   1.264   1.904 -0.7983 -0.2434 -0.0014
 2548TIP3    H1 7587   4.638   1.179   1.926  0.7266 -0.5318  1.6279
 2548TIP3    H2 7588   4.765   1.246   1.879 -1.2073  0.6153 -2.3965
 2549TIP3   OH2 7589   2.139   4.266   4.819 -0.0871  0.2462 -0.4827
 2549TIP3    H1 7590   2.121   4.222   4.736 -0.3751  0.5084 -0.5585
 2549TIP3    H2 7591   2.060   4.253   4.871  1.1490 -2.5503  0.9334
 2550TIP3   OH2 7592   5.772   4.519   5.875 -0.0480 -0.5389 -0.5276
 2550TIP3    H1 7593   5.699   4.458   5.864  0.6801 -1.3083 -1.1802
 2550TIP3    H2 7594   5.843   4.482   5.822  1.9956 -1.7157  2.6973
 2551TIP3   OH2 7595   6.954   0.955   4.681  0.4888  0.4765  0.2206
 2551TIP3    H1 7596   6.974   0.862   4.676 -0.4096  0.3539 -2.1980
 2551TIP3    H2 7597   6.881   0.968   4.621  0.8518  2.8128  0.1858
 2552TIP3   OH2 7598   3.291   2.857   2.581  0.1958 -0.5634  0.3028
 2552TIP3    H1 7599   3.239   2.929   2.548  0.4945 -0.9712 -1.1681
 2552TIP3    H2 7600   3.328   2.816   2.502  0.8891 -1.6618  1.1549
 2553TIP3   OH2 7601   2.037   0.030   0.158 -0.2064 -0.5174 -0.4637
 2553TIP3    H1 7602   2.074   0.118   0.150  1.7969 -1.2237  0.3629
 2553TIP3    H2 7603   2.081  -0.020   0.089 -0.8095 -1.0364 -0.4792
 2554TIP3   OH2 7604   3.930   5.701   2.036 -0.1419 -0.2872  0.0376
 2554TIP3    H1 7605   3.958   5.790   2.014 -2.3045  0.2092 -1.0092
 2554TIP3    H2 7606   3.944   5.652   1.955 -0.7310 -0.4099  0.0043
 2555TIP3   OH2 7607   2.272   6.278   6.204  0.5241 -0.5884  0.2088
 2555TIP3    H1 7608   2.309   6.362   6.230  0.9486 -0.2063 -1.5452
 2555TIP3    H2 7609   2.214   6.298   6.130  0.2125 -1.7639  0.1097
 2556TIP3   OH2 7610   4.831   1.047   6.391 -0.0897  0.2598 -0.7946
 2556TIP3    H1 7611   4.923   1.034   6.368  0.2295  1.8329 -0.5049
 2556TIP3    H2 7612   4.782   1.016   6.314  0.7439  0.7432 -1.5319
 2557TIP3   OH2 7613   1.658   3.643   3.018  0.6729  0.4459 -0.3798
 2557TIP3    H1 7614   1.715   3.572   2.988  0.0912 -0.4475  0.5609
 2557TIP3    H2 7615   1.698   3.722   2.982  2.9316 -0.0622  0.7990
 2558TIP3   OH2 7616   0.925   4.493   0.014  0.3780  0.4726 -0.3402
 2558TIP3    H1 7617   0.913   4.419   0.073  2.2657  0.9300  0.7103
 2558TIP3    H2 7618   0.848   4.549   0.030 -0.3936 -0.5951 -0.1842
 2559TIP3   OH2 7619   4.620   0.190   1.375 -0.5008 -0.3344 -0.0097
 2559TIP3    H1 7620   4.531   0.180   1.340 -0.2274 -0.2259 -0.7534
 2559TIP3    H2 7621   4.632   0.284   1.385 -1.1101 -0.4022  1.8371
 2560TIP3   OH2 7622   4.631   5.210   6.089 -0.0609  0.5426 -0.1706
 2560TIP3    H1 7623   4.598   5.133   6.044 -1.2349  1.0513 -0.2205
 2560TIP3    H2 7624   4.674   5.262   6.021 -1.1588  0.9487 -0.5655
 2561TIP3   OH2 7625   2.569   3.277   1.690 -0.0008 -0.0191  0.2718
 2561TIP3    H1 7626   2.558   3.362   1.649 -2.9160  0.0168  0.9024
 2561TIP3    H2 7627   2.652   3.284   1.738  0.3855  2.0358 -0.5976
 2562TIP3   OH2 7628   2.598   3.538   2.997  0.0382  0.1851 -0.0645
 2562TIP3    H1 7629   2.665   3.501   2.939 -0.1938  1.1201 -0.9566
 2562TIP3    H2 7630   2.619   3.502   3.083  3.2581  2.3799  0.2421
 2563TIP3   OH2 7631   2.748   4.592   0.658 -0.0529  0.5289 -0.1297
 2563TIP3    H1 7632   2.794   4.674   0.638 -1.5737  1.2665 -0.7580
 2563TIP3    H2 7633   2.806   4.523   0.626  2.2603  1.1788  2.2548
 2564TIP3   OH2 7634   1.840   0.415   0.732  0.7185 -0.2448 -0.4512
 2564TIP3    H1 7635   1.863   0.360   0.658  0.2117  1.9588 -2.3423
 2564TIP3    H2 7636   1.918   0.416   0.787  2.0358  0.0872 -2.2532
 2565TIP3   OH2 7637   7.112   5.717   5.894 -0.0620 -0.0228 -0.2528
 2565TIP3    H1 7638   7.127   5.737   5.801  1.0153  0.0123 -0.0823
 2565TIP3    H2 7639   7.020   5.737   5.908 -0.2813 -0.1845 -1.3595
 2566TIP3   OH2 7640   1.530   1.051   2.897 -0.2295  0.0569  0.3631
 2566TIP3    H1 7641   1.554   1.135   2.857 -0.3309 -0.2524 -0.3720
 2566TIP3    H2 7642   1.476   1.074   2.972  1.0827  0.7143  1.1401
 2567TIP3   OH2 7643   6.762   3.781   1.483 -0.2039 -0.0154 -0.4309
 2567TIP3    H1 7644   6.749   3.814   1.571 -0.5561 -1.0462 -0.0869
 2567TIP3    H2 7645   6.691   3.820   1.431 -0.4784 -0.0477 -0.0806
 2568TIP3   OH2 7646   4.578   2.192   5.208  0.0533 -0.1624  0.1851
 2568TIP3    H1 7647   4.594   2.272   5.158  1.4533 -0.1266  0.6573
 2568TIP3    H2 7648   4.649   2.134   5.182 -0.1440 -0.7381  0.9218
 2569TIP3   OH2 7649   6.211   0.681   2.098 -0.1913 -0.0409 -0.1691
 2569TIP3    H1 7650   6.247   0.767   2.116 -1.4617  0.7492 -1.2346
 2569TIP3    H2 7651   6.116   0.691   2.113 -0.1078 -2.0822  2.7566
 2570TIP3   OH2 7652   0.530   4.208   6.170  0.0293 -0.0126  0.4699
 2570TIP3    H1 7653   0.623   4.218   6.149 -0.1795  0.3169 -0.3149
 2570TIP3    H2 7654   0.491   4.169   6.092 -0.7423  1.1913  0.2197
 2571TIP3   OH2 7655   3.366   0.096   0.971  0.2495 -0.6257  0.0132
 2571TIP3    H1 7656   3.376   0.030   1.040 -3.5831 -1.1669  0.2587
 2571TIP3    H2 7657   3.358   0.179   1.017 -0.9233 -0.8107  0.1688
 2572TIP3   OH2 7658   5.687   4.014   3.939  0.6095 -0.0478  0.2304
 2572TIP3    H1 7659   5.702   4.065   3.859 -2.1201  0.5667  0.0112
 2572TIP3    H2 7660   5.721   4.069   4.009 -0.1263  1.0268 -0.2286
 2573TIP3   OH2 7661   4.719   4.247   6.653  0.4742  0.1197  0.5675
 2573TIP3    H1 7662   4.796   4.208   6.695  0.6063  1.3459  1.5146
 2573TIP3    H2 7663   4.723   4.215   6.563  0.0535 -2.7435  1.4947
 2574TIP3   OH2 7664   7.359   2.293   2.973  0.5066  0.2499 -0.4064
 2574TIP3    H1 7665   7.359   2.212   3.025  0.1369  1.0172  0.8219
 2574TIP3    H2 7666   7.447   2.330   2.985  0.3980  0.4655 -0.2791
 2575TIP3   OH2 7667   6.010   2.202   1.355  0.7533 -0.8003  0.7073
 2575TIP3    H1 7668   6.055   2.271   1.305 -2.4264  1.4895  0.6662
 2575TIP3    H2 7669   5.995   2.132   1.291 -0.0164  0.5090 -0.6139
 2576TIP3   OH2 7670  -0.010   3.052   2.270 -0.3814  0.4037 -0.4075
 2576TIP3    H1 7671  -0.055   3.023   2.191  0.0417  0.3273 -0.6227
 2576TIP3    H2 7672   0.083   3.054   2.246  0.1070 -2.2571  0.8441
 2577TIP3   OH2 7673   4.745   3.945   3.027  0.1065 -0.9238  0.0517
 2577TIP3    H1 7674   4.828   3.974   2.989 -0.6382  0.6323 -0.4866
 2577TIP3    H2 7675   4.762   3.940   3.121  0.3744  1.1010  0.1536
 2578TIP3   OH2 7676   6.066   4.799   1.981  0.0620 -0.2100  0.1206
 2578TIP3    H1 7677   6.032   4.718   1.943 -0.0727 -0.7922  1.4012
 2578TIP3    H2 7678   6.115   4.840   1.911 -0.4158 -1.0771 -0.7514
 2579TIP3   OH2 7679   3.697   0.386   3.223 -0.2871  0.2379  0.2049
 2579TIP3    H1 7680   3.778   0.335   3.217 -0.1773 -0.0513  3.0451
 2579TIP3    H2 7681   3.725   0.476   3.203  1.6672  0.8327  4.5252
 2580TIP3   OH2 7682   4.063   1.013   0.256 -0.5321 -0.2880 -0.0634
 2580TIP3    H1 7683   4.076   1.083   0.192 -1.8277  0.0190 -0.0251
 2580TIP3    H2 7684   3.994   1.046   0.314  0.2640 -0.7704  1.1884
 2581TIP3   OH2 7685   5.362   0.805   6.051 -0.5688 -0.9590 -0.0284
 2581TIP3    H1 7686   5.351   0.732   5.990 -1.5776 -0.7478 -0.1252
 2581TIP3    H2 7687   5.294   0.793   6.116 -0.3836 -0.4172  0.2750
 2582TIP3   OH2 7688   6.008   5.545   3.245 -0.1705  0.5271 -0.0577
 2582TIP3    H1 7689   6.080   5.591   3.288  0.5341 -0.4714 -0.1271
 2582TIP3    H2 7690   6.019   5.564   3.152 -0.8398  1.4966  0.0333
 2583TIP3   OH2 7691   4.595   4.025   4.307  0.5854  0.2194 -0.2647
 2583TIP3    H1 7692   4.627   3.959   4.247  1.5200 -0.4491  0.9320
 2583TIP3    H2 7693   4.622   4.108   4.268  0.5774 -0.1622 -1.0995
 2584TIP3   OH2 7694   1.490   4.527   5.724  0.5983  0.4640  0.3913
 2584TIP3    H1 7695   1.444   4.520   5.808 -0.8116  1.8097 -0.2158
 2584TIP3    H2 7696   1.582   4.530   5.748  0.2105  1.4140  1.9503
 2585TIP3   OH2 7697   2.018   6.170   2.997  0.0184 -0.1140  0.8429
 2585TIP3    H1 7698   1.940   6.148   2.945 -0.1872 -0.6934  1.3800
 2585TIP3    H2 7699   2.082   6.201   2.932 -0.5210 -0.0039  0.3501
 2586TIP3   OH2 7700   7.576   5.605   1.632  0.1666 -0.6092 -0.6427
 2586TIP3    H1 7701   7.494   5.568   1.665 -0.1561  0.1642 -0.5654
 2586TIP3    H2 7702   7.588   5.562   1.547  0.0859 -1.2943 -0.3135
 2587TIP3   OH2 7703   7.290   1.238   3.879 -0.1456  0.2883 -0.0621
 2587TIP3    H1 7704   7.314   1.156   3.921 -0.9192  0.8664  1.5862
 2587TIP3    H2 7705   7.227   1.279   3.939  0.2685  2.1141 -0.7932
 2588TIP3   OH2 7706   2.415   3.892   1.546 -0.1502 -0.4618  0.3401
 2588TIP3    H1 7707   2.481   3.891   1.477 -0.2148 -0.7580  0.2836
 2588TIP3    H2 7708   2.363   3.970   1.528 -2.6865 -2.5416 -2.3353
 2589TIP3   OH2 7709   4.848   2.246   5.941 -0.6516  0.7356  0.1223
 2589TIP3    H1 7710   4.794   2.218   5.867 -0.8975  1.5979 -0.0393
 2589TIP3    H2 7711   4.925   2.286   5.902 -0.6357  0.9131  0.3299
 2590TIP3   OH2 7712   2.135   2.184   1.688 -0.3203 -0.2128 -0.4937
 2590TIP3    H1 7713   2.107   2.093   1.675  0.8209 -0.5989 -0.3990
 2590TIP3    H2 7714   2.105   2.206   1.776 -0.6078 -0.4961 -0.5180
 2591TIP3   OH2 7715   7.652   0.441   0.789  0.2093  0.1416  0.2503
 2591TIP3    H1 7716   7.712   0.473   0.857  1.2324 -4.3271  1.8341
 2591TIP3    H2 7717   7.709   0.402   0.723 -0.8940  1.6701 -1.7051
 2592TIP3   OH2 7718   2.211   0.962   4.801  0.1493 -0.8322 -0.0839
 2592TIP3    H1 7719   2.291   0.985   4.849 -0.1785 -0.4767  0.2979
 2592TIP3    H2 7720   2.241   0.943   4.712  0.5266  0.3584 -0.2302
 2593TIP3   OH2 7721   3.040   0.276   5.007 -0.2888  0.2717 -0.5578
 2593TIP3    H1 7722   2.966   0.269   4.947  0.8935  0.6219 -2.1063
 2593TIP3    H2 7723   3.004   0.250   5.092 -2.2771  0.8190 -1.1816
 2594TIP3   OH2 7724   2.525   7.037   2.729  0.1450 -0.1063  0.3082
 2594TIP3    H1 7725   2.467   7.008   2.658  1.3253 -0.3238 -0.5890
 2594TIP3    H2 7726   2.515   7.132   2.729 -1.7890 -0.2407  1.5745
 2595TIP3   OH2 7727   2.907   4.189   0.756 -0.2949  0.1106 -0.4838
 2595TIP3    H1 7728   2.869   4.274   0.731 -0.2805  0.8509  1.7749
 2595TIP3    H2 7729   2.974   4.173   0.690  1.9920  3.4960  0.7390
 2596TIP3   OH2 7730   0.648   3.041   5.401 -0.0047 -0.1760 -0.8625
 2596TIP3    H1 7731   0.659   3.136   5.392 -0.8419  0.0363  0.1947
 2596TIP3    H2 7732   0.605   3.030   5.485  2.0339 -1.6244  0.0884
 2597TIP3   OH2 7733   3.811   6.527   0.969 -0.2964  0.4416  0.6417
 2597TIP3    H1 7734   3.897   6.513   0.930 -1.2583 -1.8552 -0.8327
 2597TIP3    H2 7735   3.830   6.560   1.057  2.0831  0.1555  0.2918
 2598TIP3   OH2 7736   5.510   5.676   4.832 -0.4100  0.0411 -0.1319
 2598TIP3    H1 7737   5.424   5.655   4.796 -0.8144  0.5376  0.5137
 2598TIP3    H2 7738   5.491   5.737   4.904  0.5670  1.2631 -0.8603
 2599TIP3   OH2 7739   0.364   6.834   3.688  0.0683  0.0406  0.8135
 2599TIP3    H1 7740   0.319   6.914   3.664  0.6056  0.2428  0.4544
 2599TIP3    H2 7741   0.354   6.827   3.783 -3.4286 -1.5749  0.4785
 2600TIP3   OH2 7742   2.521   6.684   5.914  0.1971 -0.2346 -0.1976
 2600TIP3    H1 7743   2.594   6.703   5.974  0.5288  0.5562 -0.8281
 2600TIP3    H2 7744   2.464   6.626   5.964  2.0435 -2.1996 -0.2462
 2601TIP3   OH2 7745   6.926   3.185   0.757  0.5336  0.9694  0.5208
 2601TIP3    H1 7746   6.949   3.116   0.695  0.3875  0.2619  1.2400
 2601TIP3    H2 7747   6.932   3.266   0.706 -0.8257  0.3010 -0.7728
 2602TIP3   OH2 7748   2.455   2.583   4.723 -0.2193 -0.1168 -0.9288
 2602TIP3    H1 7749   2.539   2.616   4.691  0.4184 -1.8193 -1.1466
 2602TIP3    H2 7750   2.436   2.507   4.667 -0.8831 -0.9853  0.4138
 2603TIP3   OH2 7751   2.403   5.835   2.869  0.2439  0.3526 -0.1308
 2603TIP3    H1 7752   2.401   5.772   2.797  0.8776  0.2934 -0.1038
 2603TIP3    H2 7753   2.474   5.805   2.926  0.0068  0.6221  0.3175
 2604TIP3   OH2 7754   5.380   6.192   3.379 -0.4450  0.1429  0.3885
 2604TIP3    H1 7755   5.417   6.109   3.408 -1.6962 -0.3041  0.7486
 2604TIP3    H2 7756   5.447   6.229   3.321 -0.2177 -1.4761 -0.4156
 2605TIP3   OH2 7757   5.271   3.893   5.864  0.1552 -0.4793 -0.2412
 2605TIP3    H1 7758   5.234   3.807   5.882  0.0270 -0.3235  0.2709
 2605TIP3    H2 7759   5.234   3.918   5.780 -2.3275  0.4095  1.0252
 2606TIP3   OH2 7760   5.624   2.576   5.910 -0.0444  0.2233  0.5766
 2606TIP3    H1 7761   5.649   2.595   6.000  0.8424 -1.1377  0.6402
 2606TIP3    H2 7762   5.694   2.614   5.857 -0.2220  0.4279  0.4833
 2607TIP3   OH2 7763   0.161   6.283   4.952  0.8362 -0.2000  0.3856
 2607TIP3    H1 7764   0.238   6.317   4.907  0.4768 -1.1298 -1.0182
 2607TIP3    H2 7765   0.099   6.356   4.954  0.1560 -0.5724 -2.3710
 2608TIP3   OH2 7766   4.879   0.867   2.488  0.4826 -0.0407  0.0238
 2608TIP3    H1 7767   4.878   0.955   2.450  0.7563 -0.0971 -0.1144
 2608TIP3    H2 7768   4.924   0.813   2.423 -0.1275 -0.3874 -0.1117
 2609TIP3   OH2 7769   2.927   3.234   0.548  0.0959  0.6800 -0.3435
 2609TIP3    H1 7770   2.992   3.241   0.618  1.0536 -0.2962 -1.0989
 2609TIP3    H2 7771   2.857   3.179   0.585  0.0368  1.1258  0.2234
 2610TIP3   OH2 7772   3.649   0.920   0.479  0.0120 -0.1220 -0.3067
 2610TIP3    H1 7773   3.710   0.852   0.507  0.1661  0.0520 -0.2208
 2610TIP3    H2 7774   3.648   0.982   0.551  1.5532  1.1037 -1.2697
 2611TIP3   OH2 7775   7.675   0.037   3.234 -0.0930  0.4781  0.0269
 2611TIP3    H1 7776   7.762   0.016   3.267 -0.5264 -2.5159 -0.4127
 2611TIP3    H2 7777   7.618  -0.030   3.272 -1.8781  1.2333 -1.1555
 2612TIP3   OH2 7778   4.082   3.163   5.770  0.8823  0.5181  0.5815
 2612TIP3    H1 7779   4.127   3.131   5.692 -1.2242 -1.3490  0.0491
 2612TIP3    H2 7780   3.996   3.192   5.738 -0.4546 -1.3143  2.2816
 2613TIP3   OH2 7781   0.103   3.425   6.356  0.4257  0.4077 -0.3550
 2613TIP3    H1 7782   0.179   3.483   6.355 -0.1989  1.2403 -1.1807
 2613TIP3    H2 7783   0.028   3.484   6.367 -0.1081 -0.3933  0.3765
 2614TIP3   OH2 7784   0.770   6.598   1.164  0.6425 -0.4183  0.8770
 2614TIP3    H1 7785   0.844   6.629   1.113 -1.8422  1.1455 -2.1584
 2614TIP3    H2 7786   0.744   6.516   1.123  1.4632 -1.7106  2.8253
 2615TIP3   OH2 7787   2.723   4.914   3.755  0.5299  0.0669 -0.3177
 2615TIP3    H1 7788   2.817   4.923   3.741  0.8943  0.6183  2.0881
 2615TIP3    H2 7789   2.714   4.893   3.848 -1.7236 -0.1621 -0.5250
 2616TIP3   OH2 7790   6.450   4.104   6.615  0.1538  0.0616 -0.1089
 2616TIP3    H1 7791   6.436   4.053   6.695  0.4896  0.7450  0.4016
 2616TIP3    H2 7792   6.481   4.041   6.551 -0.3283 -0.5387  0.2363
 2617TIP3   OH2 7793   2.894   2.231   4.120  0.8374 -0.9923 -0.0115
 2617TIP3    H1 7794   2.931   2.145   4.100 -0.1097 -1.4490  0.1532
 2617TIP3    H2 7795   2.800   2.222   4.105  0.5903 -0.2727  0.9422
 2618TIP3   OH2 7796   1.364   7.559   1.741  0.6550 -0.0057  0.8704
 2618TIP3    H1 7797   1.307   7.553   1.664  0.0916  1.3092  1.1482
 2618TIP3    H2 7798   1.339   7.485   1.796  0.7649 -0.7059 -0.0114
 2619TIP3   OH2 7799   6.026   2.637   2.852 -0.5043  0.1701 -0.4137
 2619TIP3    H1 7800   6.013   2.623   2.946 -0.2268 -1.2233 -0.5585
 2619TIP3    H2 7801   6.081   2.715   2.847 -0.0348 -0.0738  0.6082
 2620TIP3   OH2 7802   5.586   3.986   6.362  0.3407  0.4136 -0.1849
 2620TIP3    H1 7803   5.563   3.899   6.329  0.1750  0.0049  0.9781
 2620TIP3    H2 7804   5.681   3.989   6.358  0.3563  0.1052 -0.0296
 2621TIP3   OH2 7805   5.894   2.902   0.423 -0.0373  0.1763  0.4192
 2621TIP3    H1 7806   5.799   2.905   0.415  0.0443  0.7800 -0.3991
 2621TIP3    H2 7807   5.910   2.910   0.517 -0.8119 -0.8597  0.6576
 2622TIP3   OH2 7808   7.729   7.150   4.840 -0.0565 -0.2391  0.3499
 2622TIP3    H1 7809   7.803   7.207   4.859 -1.1090  1.3815 -0.1918
 2622TIP3    H2 7810   7.764   7.085   4.779  0.9029  0.5012  0.0892
 2623TIP3   OH2 7811   1.866   6.040   0.261  0.2307 -0.4625 -0.2999
 2623TIP3    H1 7812   1.796   6.106   0.263  0.4446 -0.1675 -1.4096
 2623TIP3    H2 7813   1.830   5.966   0.309 -1.1017 -0.5339 -1.3201
 2624TIP3   OH2 7814   5.992   3.751   2.670  0.0651  0.1764  0.3106
 2624TIP3    H1 7815   6.049   3.743   2.593  1.0237 -0.9154  1.0857
 2624TIP3    H2 7816   6.047   3.794   2.735  0.4398 -1.8406  1.4168
 2625TIP3   OH2 7817   1.276   5.140   3.130 -0.3848  0.2086 -0.6749
 2625TIP3    H1 7818   1.301   5.214   3.186  2.9507 -0.4632 -1.0791
 2625TIP3    H2 7819   1.248   5.072   3.190 -0.3895  0.7259 -0.0840
 2626TIP3   OH2 7820   5.044   3.630   0.239  0.5488 -0.2333  0.5788
 2626TIP3    H1 7821   4.990   3.683   0.297  1.1262  0.6342  0.3479
 2626TIP3    H2 7822   5.016   3.540   0.255 -2.0597  0.2846 -0.6852
 2627TIP3   OH2 7823   1.090   3.916   5.694 -0.2156  0.0590 -0.5487
 2627TIP3    H1 7824   1.004   3.874   5.695  0.0961 -0.6425  1.6635
 2627TIP3    H2 7825   1.079   3.997   5.745  0.0904  0.7881 -1.5936
 2628TIP3   OH2 7826   6.249   5.950   4.405 -0.3096 -0.3009  0.4563
 2628TIP3    H1 7827   6.229   5.882   4.341  1.6948 -0.0507 -0.5130
 2628TIP3    H2 7828   6.262   5.902   4.487  1.8967 -1.3013 -0.3740
 2629TIP3   OH2 7829   5.867   1.489   1.741  0.4890 -0.1221 -0.4047
 2629TIP3    H1 7830   5.845   1.453   1.656 -1.7636 -0.1681  0.1260
 2629TIP3    H2 7831   5.955   1.457   1.759  1.3466  0.5396 -3.0237
 2630TIP3   OH2 7832   3.500   6.556   5.493 -0.4208 -0.9257  0.1915
 2630TIP3    H1 7833   3.468   6.509   5.416  0.9349  1.0907 -1.7507
 2630TIP3    H2 7834   3.439   6.629   5.504 -0.0221 -0.6034  0.3317
 2631TIP3   OH2 7835   0.704   4.030   2.270  0.3458  0.0297  0.2963
 2631TIP3    H1 7836   0.769   3.961   2.254 -0.6596 -1.3472  1.8738
 2631TIP3    H2 7837   0.643   4.023   2.197  0.3598 -0.6067  0.3451
 2632TIP3   OH2 7838   7.807   0.245   1.519  0.0578  0.4907  0.8229
 2632TIP3    H1 7839   7.877   0.189   1.485 -0.3580 -0.3746  1.3442
 2632TIP3    H2 7840   7.810   0.231   1.614 -0.7650  0.5090  0.8561
 2633TIP3   OH2 7841   1.361   0.040   3.437  0.0798 -0.3750  0.4460
 2633TIP3    H1 7842   1.336   0.130   3.414 -0.3451 -1.1395 -2.5663
 2633TIP3    H2 7843   1.291   0.009   3.494 -2.4139 -0.2251 -2.2797
 2634TIP3   OH2 7844   5.113   7.501   6.318  0.0562  0.2027 -0.1141
 2634TIP3    H1 7845   5.163   7.458   6.249 -0.1695  1.0809 -0.8391
 2634TIP3    H2 7846   5.033   7.448   6.327 -0.1996  0.4380 -0.9651
 2635TIP3   OH2 7847   0.134   3.961   6.068 -0.8220  0.4192 -0.2910
 2635TIP3    H1 7848   0.136   4.006   6.152 -1.7031  0.0223 -0.0434
 2635TIP3    H2 7849   0.054   3.992   6.026  0.7048  2.3477 -1.9935
 2636TIP3   OH2 7850   7.269   5.963   5.711  0.1612  0.3214  0.2838
 2636TIP3    H1 7851   7.192   5.994   5.758 -0.0206  0.1879  0.0762
 2636TIP3    H2 7852   7.293   6.035   5.653 -0.8673 -0.2907 -0.9370
 2637TIP3   OH2 7853   3.715   3.740   4.238  0.0062 -0.2590 -0.0626
 2637TIP3    H1 7854   3.630   3.766   4.275 -0.1181 -0.0555 -0.4858
 2637TIP3    H2 7855   3.776   3.746   4.312  0.1532  2.0214 -0.2816
 2638TIP3   OH2 7856   6.093   3.111   4.187  0.2599 -0.0293  0.5340
 2638TIP3    H1 7857   6.084   3.151   4.273 -0.0116 -0.1613  0.5695
 2638TIP3    H2 7858   6.103   3.185   4.127 -1.3195  0.1646  0.4685
 2639TIP3   OH2 7859   1.379   1.885   1.799  0.6000  0.0018  0.8254
 2639TIP3    H1 7860   1.420   1.971   1.790 -0.3868  0.5009  0.9005
 2639TIP3    H2 7861   1.347   1.865   1.711 -2.3329  1.3931  1.4533
 2640TIP3   OH2 7862   1.438   7.579   2.309  0.8959 -0.1319  0.1229
 2640TIP3    H1 7863   1.346   7.597   2.290  0.6671 -1.2773  0.0855
 2640TIP3    H2 7864   1.476   7.554   2.225  1.2525  0.3448  0.1351
 2641TIP3   OH2 7865   5.233   2.680   5.344  0.1943 -0.2710  0.0903
 2641TIP3    H1 7866   5.269   2.757   5.388  4.6544 -0.8539 -1.9887
 2641TIP3    H2 7867   5.248   2.696   5.251 -1.1155 -2.5758 -0.5856
 2642TIP3   OH2 7868   0.425   4.674   4.995 -0.1217  1.0470  0.4077
 2642TIP3    H1 7869   0.478   4.595   4.983  1.8450  2.3513  0.1277
 2642TIP3    H2 7870   0.397   4.698   4.907 -1.3928  0.2952  0.5642
 2643TIP3   OH2 7871   6.847   2.317   5.865 -0.4710 -0.0069 -0.0766
 2643TIP3    H1 7872   6.802   2.363   5.936 -0.0492 -0.3042  0.3874
 2643TIP3    H2 7873   6.939   2.340   5.875 -0.3601 -0.3280 -0.3201
 2644TIP3   OH2 7874   2.491   5.822   1.281  0.6397 -0.6346 -0.7814
 2644TIP3    H1 7875   2.529   5.739   1.310  0.0021  0.0978  2.5333
 2644TIP3    H2 7876   2.562   5.885   1.288  0.4235 -0.4076 -0.5882
 2645TIP3   OH2 7877   0.088   5.087   6.116  0.2469  0.1624  0.0946
 2645TIP3    H1 7878   0.104   5.099   6.209  1.8574  1.1104 -0.2603
 2645TIP3    H2 7879   0.116   4.997   6.098  4.1949  1.2569 -0.1879
 2646TIP3   OH2 7880   4.926   6.374   6.250 -0.0451 -0.0104  0.0999
 2646TIP3    H1 7881   4.953   6.328   6.330  2.8242 -1.6475 -1.6177
 2646TIP3    H2 7882   4.852   6.324   6.217 -0.6132  0.0805  1.1941
 2647TIP3   OH2 7883   3.782   2.596   0.378  0.0568 -0.1760  0.3934
 2647TIP3    H1 7884   3.825   2.522   0.421  1.9758  1.0013  0.6059
 2647TIP3    H2 7885   3.818   2.596   0.289  0.9116  1.0839  0.7039
 2648TIP3   OH2 7886   2.385   1.971   5.370  0.0443  0.3013 -0.0974
 2648TIP3    H1 7887   2.323   1.991   5.440 -1.0162 -2.8685  0.0679
 2648TIP3    H2 7888   2.469   1.960   5.415 -0.5614 -1.3819  0.7414
 2649TIP3   OH2 7889   7.950   5.072   4.100 -0.3364 -0.2848 -0.0123
 2649TIP3    H1 7890   7.993   4.992   4.073 -1.9211 -0.8182 -1.0416
 2649TIP3    H2 7891   7.972   5.136   4.032  0.1423 -0.1062  0.3076
 2650TIP3   OH2 7892   2.937   3.632   1.202 -0.3939  0.0371  0.2402
 2650TIP3    H1 7893   2.988   3.699   1.248  0.3908  0.9230 -1.7837
 2650TIP3    H2 7894   2.862   3.616   1.259  0.4588  1.1232  1.7523
 2651TIP3   OH2 7895   5.651   4.574   1.409 -0.3198 -0.1967 -0.4354
 2651TIP3    H1 7896   5.603   4.573   1.326 -1.1539 -0.7768  0.0437
 2651TIP3    H2 7897   5.739   4.605   1.385 -0.5638 -0.2961 -1.5205
 2652TIP3   OH2 7898   0.973   1.477   2.654  0.0282  0.0599  0.8670
 2652TIP3    H1 7899   0.929   1.558   2.629  2.9991  1.7073  0.4450
 2652TIP3    H2 7900   0.946   1.462   2.744 -1.3610  0.9695  0.6297
 2653TIP3   OH2 7901   6.123   2.690   3.400  0.2020  0.1578  0.0419
 2653TIP3    H1 7902   6.063   2.760   3.423 -1.0649 -0.5790 -0.9129
 2653TIP3    H2 7903   6.103   2.619   3.462 -0.6895 -0.4776 -0.9364
 2654TIP3   OH2 7904   2.432   7.096   1.338 -0.0806 -0.4173 -0.2324
 2654TIP3    H1 7905   2.437   7.158   1.411  2.0839 -0.3676 -0.3532
 2654TIP3    H2 7906   2.366   7.134   1.279  2.4115  2.8566 -1.2119
 2655TIP3   OH2 7907   5.201   3.671   5.133 -0.2456  1.1503 -0.0449
 2655TIP3    H1 7908   5.159   3.612   5.195 -1.0594  0.7737 -0.9321
 2655TIP3    H2 7909   5.157   3.655   5.050  0.5121  1.9664 -0.6335
 2656TIP3   OH2 7910   6.047   5.114   4.906  0.9435  0.1569  0.3289
 2656TIP3    H1 7911   6.111   5.185   4.912  0.6615  0.8812 -3.3683
 2656TIP3    H2 7912   5.964   5.153   4.934  1.0154  0.9472 -0.5340
 2657TIP3   OH2 7913   6.743   3.414   2.324 -0.3560  0.6218 -0.7915
 2657TIP3    H1 7914   6.808   3.351   2.356 -0.0752  1.6001  0.6619
 2657TIP3    H2 7915   6.709   3.374   2.244 -0.4257 -1.5073  0.2322
 2658TIP3   OH2 7916   7.976   4.253   5.764  0.0258 -0.0883 -0.8221
 2658TIP3    H1 7917   7.901   4.268   5.822 -0.1689 -0.1038 -1.0656
 2658TIP3    H2 7918   7.956   4.169   5.721  0.9763 -0.9478  0.3415
 2659TIP3   OH2 7919   0.663   2.070   4.942 -0.1671 -0.6190 -0.1040
 2659TIP3    H1 7920   0.679   2.004   5.010 -0.4177 -0.8614 -0.2773
 2659TIP3    H2 7921   0.605   2.026   4.880  0.7918 -0.7253 -0.9550
 2660TIP3   OH2 7922   0.972   6.310   0.782 -0.3621 -0.2230 -0.0110
 2660TIP3    H1 7923   0.945   6.332   0.871 -0.4890 -0.8246  0.1043
 2660TIP3    H2 7924   1.005   6.392   0.746  0.2114 -0.0868  0.7772
 2661TIP3   OH2 7925   3.686   3.422   0.811  0.1343 -0.3344 -0.7298
 2661TIP3    H1 7926   3.779   3.403   0.802  1.1774  2.0444  2.6633
 2661TIP3    H2 7927   3.681   3.518   0.812 -2.1934 -0.3876  0.1551
 2662TIP3   OH2 7928   2.289   4.962   3.868 -0.4102 -0.4090  0.3448
 2662TIP3    H1 7929   2.222   5.025   3.893  0.7442 -0.0552  2.9196
 2662TIP3    H2 7930   2.354   4.967   3.938  1.6099 -1.7606 -1.2948
 2663TIP3   OH2 7931   0.635   3.116   3.077 -0.4048  0.1704 -0.5370
 2663TIP3    H1 7932   0.640   3.208   3.103  0.1105  0.1310 -0.5042
 2663TIP3    H2 7933   0.566   3.115   3.010 -1.9787  0.2248  1.0051
 2664TIP3   OH2 7934   2.696   1.526   6.666 -0.1219  0.3104 -0.0633
 2664TIP3    H1 7935   2.624   1.469   6.639 -0.5387  0.0388  1.5472
 2664TIP3    H2 7936   2.775   1.473   6.652 -0.3737 -0.0313 -0.1989
 2665TIP3   OH2 7937   6.562   2.708   4.971 -0.2523  0.5613 -0.3150
 2665TIP3    H1 7938   6.532   2.618   4.957 -0.1396  0.5823 -0.6922
 2665TIP3    H2 7939   6.643   2.715   4.921 -0.5479  1.0384 -0.7386
 2666TIP3   OH2 7940   7.331   4.144   6.041 -0.7898 -0.5642 -0.0644
 2666TIP3    H1 7941   7.384   4.112   6.114 -0.1918  0.2215 -0.1398
 2666TIP3    H2 7942   7.254   4.088   6.041 -0.2690 -1.3027  0.4675
 2667TIP3   OH2 7943   6.653   6.803   4.314 -0.4823  0.5822  0.5563
 2667TIP3    H1 7944   6.564   6.815   4.281 -0.4801 -1.0721 -0.1455
 2667TIP3    H2 7945   6.642   6.799   4.409 -1.0310  1.2263  0.5337
 2668TIP3   OH2 7946   1.787   3.546   0.223 -0.3264  0.5420 -0.2452
 2668TIP3    H1 7947   1.861   3.599   0.252  0.9319 -0.5865 -1.2605
 2668TIP3    H2 7948   1.793   3.548   0.127 -0.4787 -1.0842 -0.3160
 2669TIP3   OH2 7949   0.033   7.415   5.684 -0.0220  0.2486  0.5694
 2669TIP3    H1 7950   0.098   7.483   5.663 -0.7006  0.9892  0.8249
 2669TIP3    H2 7951   0.080   7.333   5.671  1.1906  0.7667  1.3943
 2670TIP3   OH2 7952   0.492   0.430   5.205 -0.0762 -0.5797 -0.1601
 2670TIP3    H1 7953   0.446   0.498   5.254  1.9602  0.1120  0.9577
 2670TIP3    H2 7954   0.540   0.478   5.137  1.4620 -0.8165  0.7069
 2671TIP3   OH2 7955   7.610   6.757   4.916  0.1574  0.2665 -1.0103
 2671TIP3    H1 7956   7.682   6.714   4.964  1.3305  1.2072 -1.8692
 2671TIP3    H2 7957   7.593   6.837   4.966 -0.9055 -0.3549 -0.3340
 2672TIP3   OH2 7958   8.287   5.249   4.453 -0.0962 -0.0432  0.2025
 2672TIP3    H1 7959   8.207   5.265   4.502  1.2956  0.6685  2.3374
 2672TIP3    H2 7960   8.282   5.310   4.379 -0.0797  2.3858  2.0719
 2673TIP3   OH2 7961   0.155   7.315   1.064 -0.1569 -0.3498  0.2861
 2673TIP3    H1 7962   0.127   7.229   1.097 -0.4377 -0.4577 -0.2313
 2673TIP3    H2 7963   0.135   7.313   0.971 -2.0087  1.0238  0.5996
 2674TIP3   OH2 7964   0.441   5.259   6.009  1.0052  0.0310 -0.3113
 2674TIP3    H1 7965   0.412   5.170   6.033  0.1858  0.1003 -1.0115
 2674TIP3    H2 7966   0.505   5.245   5.939  1.2534 -0.0238 -0.0777
 2675TIP3   OH2 7967   1.007   2.489   1.505 -0.1611  0.4317 -0.4043
 2675TIP3    H1 7968   0.935   2.458   1.560 -1.5796 -0.0311 -2.3799
 2675TIP3    H2 7969   1.044   2.409   1.468 -0.2375  0.7846 -1.2712
 2676TIP3   OH2 7970   5.398   5.115   1.582 -0.3596 -0.1449  0.1859
 2676TIP3    H1 7971   5.340   5.167   1.526  1.3566  0.9144 -0.6816
 2676TIP3    H2 7972   5.410   5.033   1.534 -0.6611 -0.1320  0.0876
 2677TIP3   OH2 7973   6.367   6.173   1.131  0.5761 -0.5853  0.3518
 2677TIP3    H1 7974   6.360   6.181   1.227  0.8381 -1.4984  0.4633
 2677TIP3    H2 7975   6.280   6.196   1.099  0.5807  0.0584  0.7820
 2678TIP3   OH2 7976   6.699   6.109   3.014  0.3874  0.5538 -0.6833
 2678TIP3    H1 7977   6.712   6.184   3.071 -0.6454 -0.4671  0.9664
 2678TIP3    H2 7978   6.716   6.143   2.926  1.6684  2.2538  0.1613
 2679TIP3   OH2 7979   1.520   6.844   4.345  0.0911 -0.5058 -0.4870
 2679TIP3    H1 7980   1.516   6.822   4.438  0.1220 -0.4852 -0.4808
 2679TIP3    H2 7981   1.613   6.856   4.327 -0.0213  1.2509 -0.1041
 2680TIP3   OH2 7982   1.137   1.892   4.842 -0.5016 -0.0488  0.0511
 2680TIP3    H1 7983   1.070   1.945   4.800 -1.3761 -0.3869  0.9698
 2680TIP3    H2 7984   1.192   1.955   4.889  0.0550  0.2632 -1.0032
 2681TIP3   OH2 7985   5.716   4.030   0.044 -0.1449 -0.4674  0.3789
 2681TIP3    H1 7986   5.680   3.949   0.010 -0.1566 -0.3487  0.1081
 2681TIP3    H2 7987   5.650   4.063   0.105  0.1640 -1.0214  1.0351
 2682TIP3   OH2 7988   3.924   5.623   4.749 -0.0791 -0.2003  0.0503
 2682TIP3    H1 7989   4.016   5.642   4.728  0.4008 -0.5300  1.6610
 2682TIP3    H2 7990   3.929   5.559   4.820 -1.4465  2.2332  2.5751
 2683TIP3   OH2 7991   7.588   5.764   1.260 -0.1801  0.1756 -0.7508
 2683TIP3    H1 7992   7.524   5.693   1.270 -1.2127  1.0992 -0.5718
 2683TIP3    H2 7993   7.534   5.844   1.256  0.8944  0.8724 -1.8711
 2684TIP3   OH2 7994   2.878   1.877   5.151  0.3462  0.2576  0.2272
 2684TIP3    H1 7995   2.959   1.832   5.129 -0.6031 -1.3536 -0.1465
 2684TIP3    H2 7996   2.815   1.846   5.086 -0.7990  0.7516  1.0727
 2685TIP3   OH2 7997   1.163   3.766   5.464  0.2845  0.1591 -0.0525
 2685TIP3    H1 7998   1.188   3.696   5.524  0.4307  0.8099  0.6634
 2685TIP3    H2 7999   1.155   3.844   5.519  1.3358  0.9827 -1.0093
 2686TIP3   OH2 8000   6.048   1.443   1.117  0.3454 -0.0288  0.9734
 2686TIP3    H1 8001   5.961   1.419   1.087  0.4470  0.4482  0.2864
 2686TIP3    H2 8002   6.038   1.451   1.212  0.3618 -2.9373  1.3028
 2687TIP3   OH2 8003   5.410   3.637   3.696  0.3332  0.0484  0.4006
 2687TIP3    H1 8004   5.325   3.682   3.691  0.3222  0.1778  1.4831
 2687TIP3    H2 8005   5.418   3.612   3.788  0.4819 -1.9318 -0.1068
 2688TIP3   OH2 8006   3.067   0.831   5.015 -0.0645  0.3572 -0.0739
 2688TIP3    H1 8007   3.116   0.889   4.957  0.0474  0.6814  0.3362
 2688TIP3    H2 8008   3.125   0.819   5.091  0.2735 -0.9625 -0.5014
 2689TIP3   OH2 8009   0.095   3.388   4.139  0.1081 -0.3107 -0.2643
 2689TIP3    H1 8010   0.153   3.422   4.070  0.3325 -0.0199  0.0703
 2689TIP3    H2 8011   0.024   3.451   4.144  1.2884  0.9661  1.4127
 2690TIP3   OH2 8012   1.066   7.503   3.893 -0.4990  0.4319  0.3331
 2690TIP3    H1 8013   1.047   7.507   3.800 -0.9092 -0.6392  0.3545
 2690TIP3    H2 8014   1.142   7.444   3.899 -1.3369 -0.6496  0.7615
 2691TIP3   OH2 8015   2.129   3.333  -0.003  0.4503 -0.2789  0.1612
 2691TIP3    H1 8016   2.037   3.334   0.023  0.8589 -0.4031  1.6972
 2691TIP3    H2 8017   2.178   3.321   0.079  1.9304  1.9847 -0.2837
 2692TIP3   OH2 8018   6.189   0.836   5.348 -0.4261  0.8125 -0.4151
 2692TIP3    H1 8019   6.155   0.748   5.335  1.1002  0.0424  0.4791
 2692TIP3    H2 8020   6.260   0.845   5.284  0.9695  0.4620  1.0022
 2693TIP3   OH2 8021   3.991   7.703   6.403 -0.2678 -0.3191 -0.4828
 2693TIP3    H1 8022   3.897   7.703   6.389 -0.2353 -1.0408 -0.7712
 2693TIP3    H2 8023   4.029   7.700   6.315 -0.0489 -3.3142 -0.4027
 2694TIP3   OH2 8024   7.874   0.588   3.362  0.3289 -1.0555  0.0408
 2694TIP3    H1 8025   7.820   0.588   3.283  0.7611  0.8911 -0.3071
 2694TIP3    H2 8026   7.925   0.669   3.355  0.9187 -1.2359  1.9494
 2695TIP3   OH2 8027   4.343   1.251   4.260 -0.2701  0.2221 -0.1986
 2695TIP3    H1 8028   4.285   1.177   4.240 -1.4562  0.3245  2.5236
 2695TIP3    H2 8029   4.300   1.326   4.220 -0.8679 -0.0333 -0.0452
 2696TIP3   OH2 8030   7.830   2.304   3.517 -0.6606 -0.2760  0.0329
 2696TIP3    H1 8031   7.810   2.284   3.425  0.9171 -0.6808 -0.2482
 2696TIP3    H2 8032   7.843   2.399   3.519 -1.2609 -0.1873 -0.0350
 2697TIP3   OH2 8033   3.505   1.651   1.594 -0.2797 -0.5142 -0.0364
 2697TIP3    H1 8034   3.577   1.701   1.556 -1.6203  1.9672  0.4659
 2697TIP3    H2 8035   3.526   1.647   1.687  0.0875 -1.4374 -0.1445
 2698TIP3   OH2 8036   0.203   0.616   4.184  0.4118  0.4807  0.0197
 2698TIP3    H1 8037   0.195   0.660   4.268  3.8297 -0.8060  1.1923
 2698TIP3    H2 8038   0.297   0.602   4.172 -0.1660 -2.9490 -2.0790
 2699TIP3   OH2 8039   7.843   0.778   6.250 -0.3378  1.1922 -0.4448
 2699TIP3    H1 8040   7.774   0.727   6.292  0.2110  0.9924  0.2206
 2699TIP3    H2 8041   7.830   0.762   6.156 -1.8650  2.0316 -0.4025
 2700TIP3   OH2 8042   3.982   5.733   6.343  0.0630 -0.0596  0.5864
 2700TIP3    H1 8043   4.028   5.754   6.261 -1.1944  0.6701  0.0393
 2700TIP3    H2 8044   3.982   5.637   6.347  1.9316 -0.0958  0.8059
 2701TIP3   OH2 8045   5.268   7.770   2.794 -0.7541  0.0498 -0.4381
 2701TIP3    H1 8046   5.208   7.812   2.731 -0.2220  0.6199 -0.5787
 2701TIP3    H2 8047   5.354   7.775   2.752 -0.6340 -0.9730 -0.3412
 2702TIP3   OH2 8048   1.807   6.862   6.195  0.2726 -0.4834 -0.0906
 2702TIP3    H1 8049   1.768   6.778   6.219 -0.2776 -0.2148 -0.0074
 2702TIP3    H2 8050   1.880   6.840   6.138  0.3389 -1.0334  0.2002
 2703TIP3   OH2 8051   8.037   5.317   1.108 -0.4597 -0.6886  0.2086
 2703TIP3    H1 8052   8.038   5.309   1.203 -0.0702 -0.3019  0.2446
 2703TIP3    H2 8053   8.029   5.411   1.093 -1.0658 -0.7953 -0.1449
 2704TIP3   OH2 8054   0.627   3.065   0.776  0.3676 -0.0244  0.0687
 2704TIP3    H1 8055   0.685   2.989   0.781  0.3208 -0.1412 -0.9077
 2704TIP3    H2 8056   0.679   3.138   0.810  1.5504  0.1124 -1.8723
 2705TIP3   OH2 8057   7.084   1.619   1.979 -0.0667  0.2097  0.3239
 2705TIP3    H1 8058   7.151   1.621   2.047 -1.5520  0.6076  1.8379
 2705TIP3    H2 8059   7.133   1.601   1.898  1.6902 -0.9501  1.5540
 2706TIP3   OH2 8060   3.872   1.861   3.434 -0.3141 -0.5171 -0.1123
 2706TIP3    H1 8061   3.785   1.821   3.428 -0.9493  1.0452 -3.1958
 2706TIP3    H2 8062   3.864   1.927   3.503 -1.3916 -0.7800  0.0281
 2707TIP3   OH2 8063   6.032   3.210   5.957  0.2698 -0.1388  0.8129
 2707TIP3    H1 8064   5.985   3.200   6.040 -0.1864  2.4367  0.9548
 2707TIP3    H2 8065   5.967   3.188   5.890 -0.2725  0.6229  1.0797
 2708TIP3   OH2 8066   0.360   7.281   5.894  0.0867 -0.0682  0.2669
 2708TIP3    H1 8067   0.363   7.296   5.800 -1.0222 -1.0775  0.0512
 2708TIP3    H2 8068   0.381   7.187   5.904  0.1482  0.0161  1.0235
 2709TIP3   OH2 8069   4.516   2.670   5.283  0.2336 -0.7841  0.1974
 2709TIP3    H1 8070   4.584   2.617   5.325 -0.3454 -0.7502  1.2007
 2709TIP3    H2 8071   4.472   2.610   5.224  1.8680 -0.5352 -1.3731
 2710TIP3   OH2 8072   1.131   0.052   4.983  0.0490 -0.4574  0.0953
 2710TIP3    H1 8073   1.068  -0.019   4.967  1.1888 -1.3751 -0.4670
 2710TIP3    H2 8074   1.136   0.099   4.900 -0.9602  0.5143  0.5689
 2711TIP3   OH2 8075   4.085   3.667   3.451  0.2302 -0.4891  0.0164
 2711TIP3    H1 8076   4.130   3.715   3.381 -1.0152  0.5412 -0.1212
 2711TIP3    H2 8077   4.011   3.723   3.475 -0.3939 -1.6530  0.9324
 2712TIP3   OH2 8078   3.146   6.552   2.893  0.4273 -0.0106 -0.2252
 2712TIP3    H1 8079   3.131   6.603   2.813  1.4105  0.6655 -0.0038
 2712TIP3    H2 8080   3.059   6.533   2.926  0.0137  1.3545 -0.4533
 2713TIP3   OH2 8081   2.301   0.421   3.398  0.2411 -0.4627 -0.0184
 2713TIP3    H1 8082   2.219   0.467   3.419  0.4679  1.5150 -2.8414
 2713TIP3    H2 8083   2.276   0.329   3.393 -1.1469 -0.2607  1.9534
 2714TIP3   OH2 8084   5.070   0.915   6.012 -0.0922 -0.0270  0.0259
 2714TIP3    H1 8085   5.152   0.956   5.985 -1.4367  1.7946 -1.5871
 2714TIP3    H2 8086   5.048   0.855   5.940  0.1162 -0.9621  0.7335
 2715TIP3   OH2 8087   6.702   3.016   1.856 -0.4303  0.2225 -0.0277
 2715TIP3    H1 8088   6.767   2.955   1.891 -1.3000  0.7956  2.8370
 2715TIP3    H2 8089   6.754   3.078   1.804  1.1299 -0.1819  0.9624
 2716TIP3   OH2 8090   3.780   7.441   3.459  0.4648 -0.6197  0.4635
 2716TIP3    H1 8091   3.829   7.445   3.541  0.9050 -2.4271  0.3262
 2716TIP3    H2 8092   3.841   7.473   3.393  0.4484 -0.1118  0.6877
 2717TIP3   OH2 8093   3.658   2.601   1.908 -0.4812 -0.6844 -0.2220
 2717TIP3    H1 8094   3.674   2.641   1.993  1.9637  1.1038 -1.3757
 2717TIP3    H2 8095   3.567   2.624   1.887 -0.7869 -0.2702  1.4435
 2718TIP3   OH2 8096   5.815   0.374   0.322  0.3884  0.2064  0.0601
 2718TIP3    H1 8097   5.730   0.392   0.280  0.9476  0.5709 -0.9401
 2718TIP3    H2 8098   5.859   0.459   0.321  0.0419  0.4599  2.2984
 2719TIP3   OH2 8099   6.913   1.919   1.147  0.7131 -0.0597 -0.6184
 2719TIP3    H1 8100   6.898   1.847   1.208  1.1367  0.6784  0.3928
 2719TIP3    H2 8101   6.969   1.980   1.195 -1.8618  2.2975 -0.3533
 2720TIP3   OH2 8102   4.738   2.095   2.470 -0.0081  0.0624  0.6421
 2720TIP3    H1 8103   4.766   2.054   2.388 -1.9149  0.2452 -0.1567
 2720TIP3    H2 8104   4.736   2.024   2.534  1.5105 -0.0800  0.5476
 2721TIP3   OH2 8105   6.088   7.293   0.678 -0.3302 -0.4659 -0.1242
 2721TIP3    H1 8106   6.115   7.276   0.768 -0.6751  1.1872  0.3287
 2721TIP3    H2 8107   6.170   7.293   0.628 -0.0073 -0.2259  0.3971
 2722TIP3   OH2 8108   4.887   1.989   1.999  0.3675  0.3189 -0.1840
 2722TIP3    H1 8109   4.913   1.898   2.019 -1.2029  0.0512  0.7819
 2722TIP3    H2 8110   4.843   1.983   1.914  0.3505  0.2068 -0.1678
 2723TIP3   OH2 8111   1.039   6.260   5.393  0.5156 -0.2255 -0.2871
 2723TIP3    H1 8112   1.025   6.172   5.357 -0.4616  0.1519 -0.8440
 2723TIP3    H2 8113   1.132   6.261   5.417  1.1652 -0.6198 -2.5239
 2724TIP3   OH2 8114   0.284   2.069   1.533  0.3790  0.0274  0.1003
 2724TIP3    H1 8115   0.326   2.068   1.620 -0.4010 -1.3300  0.4709
 2724TIP3    H2 8116   0.239   1.986   1.527  1.4699 -0.4669 -2.1530
 2725TIP3   OH2 8117   0.833   4.662   3.398  0.2595 -0.4416  0.4166
 2725TIP3    H1 8118   0.829   4.599   3.326 -2.0847 -0.1037  0.1663
 2725TIP3    H2 8119   0.827   4.747   3.355  3.3602  0.0444  0.7550
 2726TIP3   OH2 8120   4.009   4.655   5.273  0.6586  0.6710 -0.9026
 2726TIP3    H1 8121   3.952   4.724   5.307 -0.9836 -0.3471 -1.4763
 2726TIP3    H2 8122   4.011   4.589   5.342 -2.0436 -1.0369 -2.2742
 2727TIP3   OH2 8123   2.528   6.966   1.981  0.6232 -0.2484 -0.2928
 2727TIP3    H1 8124   2.481   6.884   1.966 -1.4333  0.2430  2.7008
 2727TIP3    H2 8125   2.493   7.026   1.915 -1.9846 -0.3317  0.8928
 2728TIP3   OH2 8126   0.931   6.213   2.860  0.4347 -0.2267  0.2115
 2728TIP3    H1 8127   0.909   6.164   2.781  0.8000  1.1207 -0.7573
 2728TIP3    H2 8128   0.894   6.160   2.931 -0.1193 -1.3464 -0.8579
 2729TIP3   OH2 8129   6.960   6.837   3.844  0.1289 -0.0348 -0.4895
 2729TIP3    H1 8130   7.009   6.814   3.922 -0.1683  0.9589  0.0032
 2729TIP3    H2 8131   7.004   6.791   3.773 -0.6362 -2.4074  0.4636
 2730TIP3   OH2 8132   4.776   3.481   0.447  0.0057 -0.3110 -0.6199
 2730TIP3    H1 8133   4.683   3.458   0.442 -0.0925 -0.1595  0.4651
 2730TIP3    H2 8134   4.785   3.533   0.526  1.1326 -0.8742 -0.3481
 2731TIP3   OH2 8135   6.348   2.579   2.772 -0.5144  0.0875  0.1857
 2731TIP3    H1 8136   6.350   2.666   2.733  0.6136 -0.3335 -0.7705
 2731TIP3    H2 8137   6.331   2.520   2.699  0.1614 -0.6097  0.5760
 2732TIP3   OH2 8138   1.069   3.596   2.709 -0.4727 -0.1668  0.1591
 2732TIP3    H1 8139   1.013   3.519   2.714 -1.9894  0.9737  2.6340
 2732TIP3    H2 8140   1.017   3.661   2.662  0.2991 -0.2225 -0.8104
 2733TIP3   OH2 8141   1.642   3.579   1.584  0.3459  0.3703 -0.5533
 2733TIP3    H1 8142   1.656   3.670   1.610  1.0634  0.0225  0.3715
 2733TIP3    H2 8143   1.588   3.543   1.654 -0.8952  0.3648 -1.4988
 2734TIP3   OH2 8144   0.204   0.943   6.163 -0.3341  0.1632  0.2273
 2734TIP3    H1 8145   0.245   0.860   6.187 -0.1651 -1.1068 -3.6902
 2734TIP3    H2 8146   0.132   0.918   6.105  0.0834  2.7248 -1.5566
 2735TIP3   OH2 8147   4.853   0.411   0.393  0.0239 -0.1491  0.2748
 2735TIP3    H1 8148   4.862   0.337   0.333 -1.6174 -2.0797  2.2041
 2735TIP3    H2 8149   4.918   0.395   0.461  1.5090  1.7268 -0.6131
 2736TIP3   OH2 8150   2.119   2.500   2.847  0.6944  0.9063 -0.0322
 2736TIP3    H1 8151   2.210   2.526   2.834  0.4904  1.9797  0.5567
 2736TIP3    H2 8152   2.086   2.562   2.912 -0.9096  1.5614 -1.4044
 2737TIP3   OH2 8153   0.878   1.757   2.638  0.3642  0.5052  0.1312
 2737TIP3    H1 8154   0.948   1.816   2.665 -0.9677  1.9307  0.6007
 2737TIP3    H2 8155   0.810   1.768   2.704 -0.3672 -0.7539 -0.3797
 2738TIP3   OH2 8156   4.344   3.183   1.523  0.1873  0.4432  0.5248
 2738TIP3    H1 8157   4.355   3.172   1.617  1.5369  2.4570  0.6567
 2738TIP3    H2 8158   4.277   3.250   1.514 -1.0044 -0.7634 -0.0324
 2739TIP3   OH2 8159   2.549   4.351   0.594 -0.0219 -0.6399 -0.0275
 2739TIP3    H1 8160   2.474   4.292   0.595  1.6850 -2.9739 -0.6897
 2739TIP3    H2 8161   2.622   4.296   0.567  2.1402  1.2935  1.4957
 2740TIP3   OH2 8162   5.704   5.259   4.539  0.6081 -0.1144  0.0966
 2740TIP3    H1 8163   5.676   5.344   4.572  0.3667  0.2209 -0.9452
 2740TIP3    H2 8164   5.771   5.280   4.474 -0.1437 -0.6679 -0.8685
 2741TIP3   OH2 8165   5.893   6.387   2.676 -0.4166 -0.5706  0.0211
 2741TIP3    H1 8166   5.978   6.429   2.692 -0.6326 -0.0610 -0.1379
 2741TIP3    H2 8167   5.829   6.449   2.710 -0.7255 -0.9575  0.1487
 2742TIP3   OH2 8168   1.736   3.189   6.120  0.0471 -0.0751  0.1659
 2742TIP3    H1 8169   1.668   3.255   6.133 -0.4758 -0.4263 -0.7080
 2742TIP3    H2 8170   1.811   3.237   6.085  0.4116  0.3803  1.5136
 2743TIP3   OH2 8171   4.742   7.685   1.913  0.2328 -0.1059  0.5776
 2743TIP3    H1 8172   4.822   7.633   1.923  2.2318  2.5720 -0.2573
 2743TIP3    H2 8173   4.682   7.628   1.864  0.9887 -2.7418  2.5005
 2744TIP3   OH2 8174   6.218   4.492   1.954  0.3646 -0.1073 -0.4380
 2744TIP3    H1 8175   6.207   4.481   1.859 -0.3455  3.4701 -0.8801
 2744TIP3    H2 8176   6.309   4.517   1.965  0.3999 -0.3473 -0.1676
 2745TIP3   OH2 8177   6.205   3.137   1.621  1.0748 -0.0342  0.2737
 2745TIP3    H1 8178   6.171   3.221   1.591 -1.4491 -0.5413  1.3943
 2745TIP3    H2 8179   6.187   3.077   1.548  0.1889 -0.1295  0.5487
 2746TIP3   OH2 8180   3.948   0.358   2.095  0.1460 -0.6233  0.4828
 2746TIP3    H1 8181   3.986   0.272   2.075  0.0646 -0.2326 -1.5400
 2746TIP3    H2 8182   3.867   0.338   2.141  0.3410 -1.6073  0.4178
 2747TIP3   OH2 8183   7.023   6.473   6.463 -0.1782 -0.4084 -0.2201
 2747TIP3    H1 8184   7.009   6.418   6.540 -0.6143 -0.3742 -0.2726
 2747TIP3    H2 8185   7.096   6.432   6.417 -0.0486 -0.5446  0.1063
 2748TIP3   OH2 8186   3.618   1.529   4.127 -0.3390  0.2762  0.3383
 2748TIP3    H1 8187   3.650   1.441   4.105  0.3635  0.5843  0.1059
 2748TIP3    H2 8188   3.586   1.521   4.217 -0.1011 -0.1751  0.3846
 2749TIP3   OH2 8189   0.322   5.291   3.683 -0.4082  0.4829 -0.0244
 2749TIP3    H1 8190   0.408   5.314   3.648  0.3710 -0.5715  1.1198
 2749TIP3    H2 8191   0.263   5.355   3.644  0.6566  0.3897 -1.9340
 2750TIP3   OH2 8192   7.093   2.622   3.975 -0.1769 -0.4505 -0.5611
 2750TIP3    H1 8193   7.188   2.617   3.964  0.0789  1.5623  0.2036
 2750TIP3    H2 8194   7.058   2.630   3.886  0.5630  0.8769 -0.7465
 2751TIP3   OH2 8195   6.459   2.838   1.202  0.2270  0.3228  0.0808
 2751TIP3    H1 8196   6.550   2.857   1.177  0.8050 -0.9348  1.1118
 2751TIP3    H2 8197   6.409   2.914   1.171  1.5538  0.8192 -0.9218
 2752TIP3   OH2 8198   7.521   2.898   0.351 -0.7575  0.8971 -0.9346
 2752TIP3    H1 8199   7.474   2.815   0.346  1.3219 -0.4943  0.8304
 2752TIP3    H2 8200   7.612   2.875   0.333  0.0400  2.6018  0.5789
 2753TIP3   OH2 8201   6.559   6.282   2.147  0.1075 -0.3230 -0.2491
 2753TIP3    H1 8202   6.617   6.213   2.178  1.8988  0.8119 -0.9091
 2753TIP3    H2 8203   6.591   6.304   2.060 -2.2533 -0.6191 -1.2872
 2754TIP3   OH2 8204   0.612   5.691   0.284 -0.5196  0.1288 -0.5612
 2754TIP3    H1 8205   0.594   5.784   0.268  1.4003  0.6802  0.1584
 2754TIP3    H2 8206   0.629   5.654   0.197 -2.5314  0.1269 -0.9855
 2755TIP3   OH2 8207   4.479   4.471   2.004 -0.4414 -0.5846  0.0583
 2755TIP3    H1 8208   4.412   4.428   1.952 -0.9667  0.1964  0.0702
 2755TIP3    H2 8209   4.562   4.443   1.965 -0.7419 -1.8342  0.2597
 2756TIP3   OH2 8210   3.566   4.409   3.448 -0.0770 -0.2608 -0.1042
 2756TIP3    H1 8211   3.534   4.415   3.358 -1.0063  0.9893  0.2708
 2756TIP3    H2 8212   3.492   4.439   3.501  1.4907  2.2769  0.8428
 2757TIP3   OH2 8213   7.571   1.101   5.092 -0.2124  0.0905  0.1302
 2757TIP3    H1 8214   7.636   1.164   5.061  0.8817 -0.9420  0.2483
 2757TIP3    H2 8215   7.615   1.017   5.088 -1.2383 -0.5308  1.1004
 2758TIP3   OH2 8216   2.711   6.948   6.336 -0.9700 -0.2208  0.1733
 2758TIP3    H1 8217   2.701   6.890   6.411  0.8283  1.9304  2.2482
 2758TIP3    H2 8218   2.804   6.942   6.313 -0.8732  1.2881  0.0318
 2759TIP3   OH2 8219   3.589   0.292   5.510 -0.2023 -0.2397  0.5963
 2759TIP3    H1 8220   3.631   0.330   5.433  0.8999 -0.9371  0.8317
 2759TIP3    H2 8221   3.589   0.363   5.575  0.7693 -0.2730  0.6438
 2760TIP3   OH2 8222   5.010   0.421   5.701  0.2005 -0.3324  0.1193
 2760TIP3    H1 8223   5.094   0.391   5.668  0.2005  0.0888 -0.2770
 2760TIP3    H2 8224   5.020   0.420   5.796  0.2637 -1.3718  0.1115
 2761TIP3   OH2 8225   4.450   7.694   4.121 -0.4753 -0.3402 -0.1679
 2761TIP3    H1 8226   4.451   7.654   4.208  0.8171  0.2394  0.1082
 2761TIP3    H2 8227   4.359   7.722   4.108 -0.3265  1.2752  1.8096
 2762TIP3   OH2 8228   2.691   6.483   4.439  0.8139 -0.0095 -0.2295
 2762TIP3    H1 8229   2.734   6.463   4.522 -2.1253 -0.7153  1.2575
 2762TIP3    H2 8230   2.731   6.424   4.376  0.3404 -2.4104  1.5903
 2763TIP3   OH2 8231   1.859   2.254   3.811 -0.2166  0.4858 -0.2194
 2763TIP3    H1 8232   1.827   2.341   3.786  0.0680  0.3812 -0.9744
 2763TIP3    H2 8233   1.787   2.214   3.858 -0.0045  1.5110  1.0200
 2764TIP3   OH2 8234   2.834   4.701   4.217  0.0525 -0.1223 -0.3309
 2764TIP3    H1 8235   2.920   4.741   4.205 -0.4937  1.2947  0.2588
 2764TIP3    H2 8236   2.822   4.696   4.311 -0.1255 -1.2255 -0.3937
 2765TIP3   OH2 8237   2.261   3.662   4.248  0.3516 -0.2568 -0.3745
 2765TIP3    H1 8238   2.253   3.742   4.300 -0.0102 -1.6812  1.9065
 2765TIP3    H2 8239   2.353   3.639   4.253  0.2780 -0.5095 -0.1903
 2766TIP3   OH2 8240   6.210   7.023   1.808 -0.2767  0.0386 -0.4506
 2766TIP3    H1 8241   6.131   7.069   1.779 -0.4272  0.4136  0.5178
 2766TIP3    H2 8242   6.178   6.945   1.853 -0.0299 -0.8086 -1.6752
 2767TIP3   OH2 8243   5.012   6.871   5.344 -0.2977 -0.4229  0.0808
 2767TIP3    H1 8244   4.940   6.810   5.362 -1.2011  0.2420 -1.1165
 2767TIP3    H2 8245   5.048   6.840   5.261  1.4174 -1.2741  1.0850
 2768TIP3   OH2 8246   3.335   0.029   2.094 -0.3327  0.3233  0.4495
 2768TIP3    H1 8247   3.340   0.121   2.120  0.7888  0.5588 -0.5243
 2768TIP3    H2 8248   3.336   0.031   1.998 -0.0674 -0.7094  0.4242
 2769TIP3   OH2 8249   6.377   0.012   1.273 -0.0561  0.3027 -0.2940
 2769TIP3    H1 8250   6.372   0.086   1.213 -0.6183  0.9916  0.5867
 2769TIP3    H2 8251   6.293   0.013   1.319 -0.0368 -0.8294 -0.2004
 2770TIP3   OH2 8252   7.889   2.194   2.496  0.2420 -0.3868  0.4569
 2770TIP3    H1 8253   7.899   2.213   2.590  0.0224 -0.8869  0.5868
 2770TIP3    H2 8254   7.869   2.279   2.457 -0.0754 -0.2404  0.9232
 2771TIP3   OH2 8255   1.476   0.353   6.508  0.3705 -0.1268  0.5369
 2771TIP3    H1 8256   1.414   0.281   6.511  0.0289  0.0191 -1.5314
 2771TIP3    H2 8257   1.541   0.332   6.574 -0.3948 -1.6953  0.8257
 2772TIP3   OH2 8258   2.857   4.560   1.419  0.0384  0.2772  0.7269
 2772TIP3    H1 8259   2.931   4.500   1.432  2.4868  2.6963 -0.8376
 2772TIP3    H2 8260   2.823   4.536   1.333 -0.3130 -0.1500  0.9822
 2773TIP3   OH2 8261   7.814   3.572   4.391 -0.0243  0.0174  0.9098
 2773TIP3    H1 8262   7.735   3.616   4.359  0.6373  1.7028  1.4638
 2773TIP3    H2 8263   7.874   3.643   4.413  0.6788 -1.1319  3.0241
 2774TIP3   OH2 8264   0.699   5.223   4.838 -0.1552  0.1872 -0.4202
 2774TIP3    H1 8265   0.790   5.243   4.816  0.0134 -0.2663 -0.1666
 2774TIP3    H2 8266   0.653   5.226   4.755 -0.0322  1.0392 -0.4645
 2775TIP3   OH2 8267   0.190   0.349   3.917 -0.3064  0.1615  0.1548
 2775TIP3    H1 8268   0.245   0.370   3.993 -1.6197 -1.5674  1.6822
 2775TIP3    H2 8269   0.247   0.295   3.861  0.0286 -0.3907  1.0006
 2776TIP3   OH2 8270   5.340   1.267   3.796  0.2727  0.2496  0.3130
 2776TIP3    H1 8271   5.367   1.289   3.885 -0.9564  0.8937  0.5490
 2776TIP3    H2 8272   5.265   1.324   3.779  0.7076  0.4031 -1.2736
 2777TIP3   OH2 8273   6.825   7.479   1.120  0.3728 -0.5654 -0.0182
 2777TIP3    H1 8274   6.756   7.545   1.125  0.3874 -0.5978  1.0035
 2777TIP3    H2 8275   6.906   7.528   1.134  0.3661 -0.7989  0.9875
 2778TIP3   OH2 8276   6.900   2.709   4.943  0.3024 -0.5149  0.2046
 2778TIP3    H1 8277   6.907   2.746   5.031  0.4466  0.9623 -0.3854
 2778TIP3    H2 8278   6.991   2.703   4.913  0.2191  3.0634 -1.3576
 2779TIP3   OH2 8279   5.134   1.327   5.930 -0.0895 -0.1503 -0.0977
 2779TIP3    H1 8280   5.159   1.279   5.852 -2.5233 -0.7597 -0.5609
 2779TIP3    H2 8281   5.198   1.299   5.996  2.7375  1.2230 -2.0051
 2780TIP3   OH2 8282   1.875   7.623   2.777  0.0034 -0.2544  0.1172
 2780TIP3    H1 8283   1.885   7.647   2.869 -1.1521 -0.2702  0.2672
 2780TIP3    H2 8284   1.807   7.555   2.777 -1.1870  0.8622 -0.8722
 2781TIP3   OH2 8285   1.664   6.032   1.756 -0.5014 -0.5374  0.1241
 2781TIP3    H1 8286   1.690   6.123   1.772 -0.0817 -0.1699 -2.3004
 2781TIP3    H2 8287   1.620   6.006   1.837  2.0407  0.7765  2.0729
 2782TIP3   OH2 8288   7.880   3.028   0.101  0.0229 -0.0660 -0.1187
 2782TIP3    H1 8289   7.927   3.085   0.040  0.3630 -0.6655 -0.4204
 2782TIP3    H2 8290   7.804   3.080   0.128  0.1722  0.4206 -0.6115
 2783TIP3   OH2 8291   8.158   1.690   0.954 -0.3912  0.1414  0.4822
 2783TIP3    H1 8292   8.143   1.723   1.042 -1.5779  1.3115 -0.1241
 2783TIP3    H2 8293   8.074   1.653   0.927 -0.2547  0.4256 -0.3924
 2784TIP3   OH2 8294   0.028   6.188   6.716  0.6219  0.2995  0.0474
 2784TIP3    H1 8295   0.064   6.130   6.783 -0.7744 -0.2442  0.3697
 2784TIP3    H2 8296   0.096   6.255   6.702  0.6061  0.9584  2.6612
 2785TIP3   OH2 8297   1.979   1.099   1.408  0.5948  0.3886  0.0820
 2785TIP3    H1 8298   2.023   1.174   1.368 -1.3383  0.8806 -1.2577
 2785TIP3    H2 8299   2.021   1.023   1.368  0.0655  0.8543 -1.4411
 2786TIP3   OH2 8300   2.691   1.885   3.502  0.1218  0.3098 -0.1137
 2786TIP3    H1 8301   2.661   1.868   3.412 -0.1927 -2.1945  0.3936
 2786TIP3    H2 8302   2.611   1.907   3.550 -0.1640 -1.1063  0.1047
 2787TIP3   OH2 8303   7.034   0.615   0.814 -0.0695  0.0432 -0.4468
 2787TIP3    H1 8304   6.939   0.606   0.815 -0.2580  1.6451 -0.4030
 2787TIP3    H2 8305   7.054   0.654   0.729  0.2590  1.9355  0.4431
 2788TIP3   OH2 8306   5.427   0.988   0.815  0.0392  0.5560 -0.8500
 2788TIP3    H1 8307   5.436   0.999   0.721 -1.2555  2.3063 -0.8311
 2788TIP3    H2 8308   5.385   0.903   0.826 -1.2141  0.9883 -1.9728
 2789TIP3   OH2 8309   5.139   5.154   4.202 -0.3548 -0.0091 -0.0572
 2789TIP3    H1 8310   5.069   5.216   4.222 -0.0078  0.0035  1.1491
 2789TIP3    H2 8311   5.210   5.177   4.261 -0.4056 -1.8995  0.8095
 2790TIP3   OH2 8312   3.049   0.181   0.441  0.1017 -0.4311 -0.2978
 2790TIP3    H1 8313   3.141   0.199   0.421 -0.0672  1.7160  0.5218
 2790TIP3    H2 8314   3.050   0.145   0.530  0.0606  2.0038  0.7703
 2791TIP3   OH2 8315   0.839   2.148   1.923  0.4965  0.3642 -0.3767
 2791TIP3    H1 8316   0.771   2.088   1.951 -0.9952  1.8635 -0.5992
 2791TIP3    H2 8317   0.883   2.174   2.004 -0.2512  0.5805 -0.0288
 2792TIP3   OH2 8318   3.658   5.361   4.560 -0.0279  0.3709 -0.3790
 2792TIP3    H1 8319   3.668   5.301   4.486  1.1472 -1.5979  1.2734
 2792TIP3    H2 8320   3.695   5.444   4.529 -0.9026  0.0573 -2.4393
 2793TIP3   OH2 8321   7.917   1.097   4.543 -0.2109 -0.2456 -0.4906
 2793TIP3    H1 8322   7.971   1.118   4.619 -1.4553  1.6290 -0.0437
 2793TIP3    H2 8323   7.970   1.036   4.492  3.0122  2.5550 -0.8344
 2794TIP3   OH2 8324   0.947   4.994   3.977  0.0271  0.7542  0.4603
 2794TIP3    H1 8325   0.883   4.963   4.042  2.2071 -3.1205  0.9999
 2794TIP3    H2 8326   1.019   5.028   4.029  1.2931 -1.3147  0.1535
 2795TIP3   OH2 8327   6.442   4.732   3.005  0.1381  0.4618  0.2797
 2795TIP3    H1 8328   6.531   4.757   3.030  0.1548 -0.2581  0.9766
 2795TIP3    H2 8329   6.454   4.666   2.936  0.1114  1.4109 -0.6565
 2796TIP3   OH2 8330   5.808   2.999   0.674  0.4184  0.3825 -0.3842
 2796TIP3    H1 8331   5.780   3.069   0.616 -2.3429  0.3658  0.7687
 2796TIP3    H2 8332   5.888   3.032   0.715  0.3246  1.9667 -1.3998
 2797TIP3   OH2 8333   0.782   0.927   3.309  0.6794  0.4781 -0.2821
 2797TIP3    H1 8334   0.773   1.021   3.301  1.3264  0.4778 -1.1142
 2797TIP3    H2 8335   0.868   0.907   3.273  1.4496 -0.2035  1.7869
 2798TIP3   OH2 8336   4.586   1.188   5.839 -0.3354  0.1427 -0.0232
 2798TIP3    H1 8337   4.594   1.140   5.756  0.2394 -1.3893  0.8931
 2798TIP3    H2 8338   4.659   1.251   5.837 -0.4180  0.2271 -0.7351
 2799TIP3   OH2 8339   3.837   7.636   0.301  0.1111  0.7107 -0.8428
 2799TIP3    H1 8340   3.807   7.685   0.378  0.2001 -0.2907 -0.1579
 2799TIP3    H2 8341   3.783   7.669   0.229 -0.4757  1.1419 -0.2186
 2800TIP3   OH2 8342   4.773   2.474   4.154  0.6350 -0.5803 -0.1187
 2800TIP3    H1 8343   4.785   2.436   4.067  1.0903  0.7696 -0.6873
 2800TIP3    H2 8344   4.787   2.568   4.140  0.3764 -0.3037  1.3575
 2801TIP3   OH2 8345   3.520   5.827   6.650  0.5924 -0.3460 -0.2932
 2801TIP3    H1 8346   3.576   5.888   6.601 -0.3866  0.6828 -0.1920
 2801TIP3    H2 8347   3.549   5.836   6.741  0.5257 -0.0860 -0.2944
 2802TIP3   OH2 8348   0.207   1.036   2.135  0.6336 -0.3178 -0.8875
 2802TIP3    H1 8349   0.286   0.990   2.108  1.6802  0.9912 -0.1923
 2802TIP3    H2 8350   0.220   1.126   2.106  0.7091  0.5745  1.6262
 2803TIP3   OH2 8351   6.495   4.083   4.876  0.2053 -0.1347  0.0882
 2803TIP3    H1 8352   6.522   4.003   4.921  1.0617  0.6907  1.1073
 2803TIP3    H2 8353   6.573   4.113   4.830 -0.3167 -0.2728 -0.9209
 2804TIP3   OH2 8354   0.716   4.021   5.611 -0.5297 -0.4943  0.2168
 2804TIP3    H1 8355   0.764   4.063   5.682  0.1393 -0.9067  0.0167
 2804TIP3    H2 8356   0.750   3.932   5.608  0.7414 -0.0113 -1.7465
 2805TIP3   OH2 8357   6.308   2.404   4.601  0.0001  0.0426  0.3541
 2805TIP3    H1 8358   6.283   2.493   4.576 -0.9784 -0.3624 -0.1808
 2805TIP3    H2 8359   6.404   2.403   4.594  0.0850  1.2569  1.1148
 2806TIP3   OH2 8360   0.147   5.472   4.530  0.1757 -0.2383  0.3165
 2806TIP3    H1 8361   0.107   5.386   4.534 -0.0298 -0.2672 -1.5837
 2806TIP3    H2 8362   0.076   5.533   4.551 -0.1017 -0.4596  0.0256
 2807TIP3   OH2 8363   6.897   4.641   6.712 -0.1717  0.0747  0.1684
 2807TIP3    H1 8364   6.814   4.676   6.744 -0.0690 -2.1120  3.2917
 2807TIP3    H2 8365   6.872   4.565   6.660 -0.1431 -0.1119  0.4282
 2808TIP3   OH2 8366   8.221   3.624   6.401 -0.3003  0.4494  0.2168
 2808TIP3    H1 8367   8.188   3.610   6.490  0.6223  0.2876  0.5449
 2808TIP3    H2 8368   8.180   3.706   6.373 -1.6234 -0.1635  0.2771
 2809TIP3   OH2 8369   3.963   2.609   0.972 -0.3231  0.1978  0.7806
 2809TIP3    H1 8370   3.964   2.606   0.877  0.3674  1.4812  0.7338
 2809TIP3    H2 8371   3.877   2.644   0.994 -0.2646  0.4619  0.5989
 2810TIP3   OH2 8372   3.511   0.272   2.062  0.2243  0.3009 -0.5873
 2810TIP3    H1 8373   3.545   0.282   1.973 -0.7103 -0.0576 -0.9991
 2810TIP3    H2 8374   3.443   0.339   2.070  0.3307  0.3586 -0.1282
 2811TIP3   OH2 8375   1.704   0.672   1.481 -0.3507  0.4606 -0.3055
 2811TIP3    H1 8376   1.700   0.743   1.418 -0.6760 -0.1474 -0.9779
 2811TIP3    H2 8377   1.702   0.592   1.428  0.4163 -0.0524  0.4128
 2812TIP3   OH2 8378   2.446   7.718   6.530 -0.2399  0.4956 -0.3134
 2812TIP3    H1 8379   2.414   7.807   6.545 -0.4567  0.3632  0.0203
 2812TIP3    H2 8380   2.406   7.666   6.600  0.8023  0.3523  0.2091
 2813TIP3   OH2 8381   0.712   0.951   2.121 -0.8283  0.2233  0.3659
 2813TIP3    H1 8382   0.644   0.885   2.136  0.4486 -0.7084  2.6479
 2813TIP3    H2 8383   0.698   0.980   2.031 -2.1574 -2.3377 -0.3664
 2814TIP3   OH2 8384   8.076   3.609   1.792 -0.1133  0.0742 -0.3853
 2814TIP3    H1 8385   7.985   3.638   1.795 -0.4060 -0.6235 -1.6757
 2814TIP3    H2 8386   8.071   3.513   1.795  0.7431  0.0389  2.1189
 2815TIP3   OH2 8387   5.289   2.316   0.507 -0.0999 -0.4417 -0.4458
 2815TIP3    H1 8388   5.215   2.376   0.522 -0.2459 -0.4186 -1.1943
 2815TIP3    H2 8389   5.351   2.337   0.577 -1.0568 -0.8848  0.5606
 2816TIP3   OH2 8390   2.119   3.858   3.471  0.2758 -0.4502  0.6195
 2816TIP3    H1 8391   2.075   3.942   3.461  0.1842 -0.7103 -1.8925
 2816TIP3    H2 8392   2.182   3.871   3.542  0.3170  1.7535  0.2223
 2817TIP3   OH2 8393   4.554   6.681   6.413 -0.0634 -0.4903  0.2490
 2817TIP3    H1 8394   4.646   6.680   6.385 -0.0115 -2.0392  0.3895
 2817TIP3    H2 8395   4.558   6.693   6.508 -0.1197  1.5958  0.0307
 2818TIP3   OH2 8396   2.302   7.515   3.776 -0.1930  0.5620  0.2893
 2818TIP3    H1 8397   2.363   7.588   3.786 -0.6328  0.9283  0.3320
 2818TIP3    H2 8398   2.296   7.477   3.864  2.0224 -1.1580 -0.2264
 2819TIP3   OH2 8399   4.015   1.790   6.592  0.4048  0.0520 -0.0586
 2819TIP3    H1 8400   4.013   1.695   6.584 -1.1235  0.0697 -0.1254
 2819TIP3    H2 8401   4.102   1.809   6.628  1.1395 -1.2647 -1.0720
 2820TIP3   OH2 8402   3.629   0.044   3.781 -0.4078 -0.0176 -0.1375
 2820TIP3    H1 8403   3.658   0.104   3.713 -0.2068 -1.0059 -0.9450
 2820TIP3    H2 8404   3.588  -0.028   3.734 -0.8609 -0.4114  0.8201
 2821TIP3   OH2 8405   0.902   3.944   0.987  0.2463  0.4009 -0.4837
 2821TIP3    H1 8406   0.843   3.930   1.061  0.1547 -1.0796 -0.8133
 2821TIP3    H2 8407   0.851   3.922   0.910  0.2764  2.1459 -1.0497
 2822TIP3   OH2 8408   5.183   2.981   4.403  0.4375  1.0361  0.1394
 2822TIP3    H1 8409   5.268   2.937   4.415 -0.6741 -0.7956  1.9706
 2822TIP3    H2 8410   5.126   2.913   4.368 -0.1855  2.4045 -1.6468
 2823TIP3   OH2 8411   4.624   4.584   6.035  0.3742 -0.3056 -0.2403
 2823TIP3    H1 8412   4.561   4.624   5.975  1.2222 -0.4102 -1.2244
 2823TIP3    H2 8413   4.634   4.649   6.105 -0.3434 -0.0155 -0.3932
 2824TIP3   OH2 8414   0.040   0.811   2.685  0.2326 -0.0889  0.5696
 2824TIP3    H1 8415  -0.026   0.874   2.656 -0.6841 -1.4200 -0.3463
 2824TIP3    H2 8416   0.019   0.795   2.777  0.5753  1.0575  0.8525
 2825TIP3   OH2 8417   3.831   2.321   0.443 -0.4506  0.5946 -0.1197
 2825TIP3    H1 8418   3.739   2.322   0.470 -0.6492 -1.2566 -0.6084
 2825TIP3    H2 8419   3.880   2.308   0.524 -0.8567 -1.7938 -0.2027
 2826TIP3   OH2 8420   0.742   4.374   5.529  0.7982 -0.5984 -0.0291
 2826TIP3    H1 8421   0.765   4.403   5.618 -1.0251 -2.8695  1.3230
 2826TIP3    H2 8422   0.798   4.297   5.515  0.1220 -1.0610 -0.2464
 2827TIP3   OH2 8423   0.913   5.481   0.786 -0.0085 -0.8198 -0.0455
 2827TIP3    H1 8424   0.985   5.437   0.740 -0.2318 -0.6464 -0.5661
 2827TIP3    H2 8425   0.867   5.529   0.717 -0.6835 -1.0129  0.2645
 2828TIP3   OH2 8426   4.866   2.003   0.683  0.3502 -0.0971  0.3639
 2828TIP3    H1 8427   4.776   1.974   0.665  0.0862  0.3231  0.9703
 2828TIP3    H2 8428   4.858   2.096   0.702  0.9020 -0.0808  0.5381
 2829TIP3   OH2 8429   3.094   4.386   5.006  0.2747 -0.2237 -0.3307
 2829TIP3    H1 8430   3.159   4.342   4.950  0.2673  0.2596 -0.7253
 2829TIP3    H2 8431   3.032   4.424   4.945  0.3347  0.4177  0.0050
 2830TIP3   OH2 8432   2.672   3.524   2.036 -0.4081 -0.7657  0.3302
 2830TIP3    H1 8433   2.577   3.521   2.024 -0.4353 -0.7000  0.5361
 2830TIP3    H2 8434   2.685   3.523   2.130 -0.2308 -0.0247  0.3183
 2831TIP3   OH2 8435   7.143   3.392   5.228 -0.3490  0.4372  0.2546
 2831TIP3    H1 8436   7.227   3.394   5.273  0.8792 -0.6247 -1.8415
 2831TIP3    H2 8437   7.158   3.438   5.146 -0.8244 -2.3831 -1.5880
 2832TIP3   OH2 8438   2.559   2.707   0.905 -0.1903 -0.0740 -0.4699
 2832TIP3    H1 8439   2.532   2.618   0.927 -1.6229  0.3777 -0.2924
 2832TIP3    H2 8440   2.478   2.752   0.881  0.5315  1.1272 -0.7635
 2833TIP3   OH2 8441   3.507   4.237   0.052  0.7067  0.1154  0.5772
 2833TIP3    H1 8442   3.553   4.310   0.093 -1.5779  2.0177 -0.0320
 2833TIP3    H2 8443   3.556   4.221  -0.029  1.2188  0.9993  0.6970
 2834TIP3   OH2 8444   0.922   6.831   5.451  0.7221 -0.3345  0.2353
 2834TIP3    H1 8445   0.913   6.790   5.365 -0.0427 -0.7604  0.5036
 2834TIP3    H2 8446   0.842   6.805   5.498  1.0704 -0.0017  1.0255
 2835TIP3   OH2 8447   5.461   0.943   2.961  0.1388  0.1937  0.0925
 2835TIP3    H1 8448   5.547   0.984   2.965 -0.6880  2.0810 -0.0129
 2835TIP3    H2 8449   5.466   0.870   3.023  1.9283 -0.0405 -0.2657
 2836TIP3   OH2 8450   4.799   2.302   3.942  0.0221 -0.3884 -0.3905
 2836TIP3    H1 8451   4.890   2.275   3.947  0.1284 -0.0051 -0.2064
 2836TIP3    H2 8452   4.798   2.373   3.877 -0.1109 -0.2540 -0.2430
 2837TIP3   OH2 8453   4.047   2.676   0.447 -0.3413 -0.6139  0.3766
 2837TIP3    H1 8454   4.036   2.696   0.354 -1.5192 -0.5610  0.5076
 2837TIP3    H2 8455   4.101   2.597   0.449  0.5909 -0.0066 -0.3040
 2838TIP3   OH2 8456   1.870   4.478   0.964 -0.6055 -0.1850  0.3736
 2838TIP3    H1 8457   1.921   4.399   0.951 -0.6306 -0.0469 -0.6423
 2838TIP3    H2 8458   1.779   4.450   0.953 -0.6676 -0.1771  0.8572
 2839TIP3   OH2 8459   2.083   2.242   2.977  0.7303 -0.4648  0.4703
 2839TIP3    H1 8460   2.108   2.167   2.922 -0.6162 -0.9191  0.4426
 2839TIP3    H2 8461   2.082   2.316   2.917 -1.2097 -1.0398 -0.2931
 2840TIP3   OH2 8462   4.864   0.834   0.838 -0.2885 -0.0057 -0.0910
 2840TIP3    H1 8463   4.903   0.778   0.905  0.7881 -0.5688 -1.1489
 2840TIP3    H2 8464   4.770   0.812   0.841 -0.0470 -1.0654  0.2778
 2841TIP3   OH2 8465   3.960   7.198   0.153 -0.4875 -0.3618  0.0723
 2841TIP3    H1 8466   4.004   7.125   0.195  0.4884 -0.1458 -0.5449
 2841TIP3    H2 8467   3.886   7.157   0.106 -0.2607 -0.8818  0.1602
 2842TIP3   OH2 8468   2.084   5.256   1.349  0.1587  0.3965 -0.1793
 2842TIP3    H1 8469   2.157   5.309   1.380  1.1011 -2.2638  2.7151
 2842TIP3    H2 8470   2.019   5.261   1.419 -1.8683  1.4718 -2.0250
 2843TIP3   OH2 8471   3.386   0.927   0.404 -0.3126  0.5449  0.0397
 2843TIP3    H1 8472   3.367   1.020   0.401 -3.2401  0.1384  1.7728
 2843TIP3    H2 8473   3.465   0.920   0.458  0.2851  2.0130 -0.6031
 2844TIP3   OH2 8474   6.428   3.365   1.520  0.2244  0.1111  0.3796
 2844TIP3    H1 8475   6.420   3.379   1.426 -1.0506  1.8141  0.6790
 2844TIP3    H2 8476   6.341   3.387   1.554  0.9419  0.4947  2.0437
 2845TIP3   OH2 8477   4.519   3.419   5.844  0.3021 -0.5024 -0.0032
 2845TIP3    H1 8478   4.425   3.422   5.860  0.0953  2.4783 -1.1971
 2845TIP3    H2 8479   4.550   3.347   5.899 -2.8698 -2.7527 -0.8889
 2846TIP3   OH2 8480   7.914   4.013   2.131  0.3029 -0.2137 -0.1890
 2846TIP3    H1 8481   7.941   3.951   2.199  1.0572  0.2457 -0.0507
 2846TIP3    H2 8482   7.843   4.063   2.170  0.8019  0.1194  0.3167
 2847TIP3   OH2 8483   4.853   2.181   1.476 -0.6067 -0.3360 -0.1819
 2847TIP3    H1 8484   4.801   2.218   1.547  0.3988  0.6907  0.0425
 2847TIP3    H2 8485   4.938   2.162   1.516  0.0399  0.4418 -1.1448
 2848TIP3   OH2 8486   3.740   7.298   0.807 -0.1143  0.2949  0.0172
 2848TIP3    H1 8487   3.832   7.322   0.818 -0.5469  1.4942  1.2747
 2848TIP3    H2 8488   3.740   7.232   0.737  1.5282  1.4329 -1.1227
 2849TIP3   OH2 8489   3.276   4.595   5.029 -0.2195 -0.4312 -0.4228
 2849TIP3    H1 8490   3.212   4.525   5.018 -0.7947  0.2049 -1.2264
 2849TIP3    H2 8491   3.359   4.550   5.045 -1.0205 -1.2591  1.7538
 2850TIP3   OH2 8492   2.704   3.455   5.441  0.1742  0.3223  0.0583
 2850TIP3    H1 8493   2.795   3.460   5.471  0.3774 -1.1291 -0.2316
 2850TIP3    H2 8494   2.669   3.377   5.484  0.4870 -1.8988 -3.3352
 2851TIP3   OH2 8495   7.193   6.162   0.411  0.2035 -0.3525  0.1566
 2851TIP3    H1 8496   7.105   6.187   0.381  0.5862  3.3437  1.5581
 2851TIP3    H2 8497   7.179   6.131   0.501  0.4015  2.1427  1.1277
 2852TIP3   OH2 8498   1.885   4.296   0.633  0.3284 -0.3721  0.8674
 2852TIP3    H1 8499   1.794   4.325   0.635  0.8266  1.2252  1.6996
 2852TIP3    H2 8500   1.926   4.350   0.566  0.9388 -0.1937  1.3803
 2853TIP3   OH2 8501   3.519   2.243   4.211 -0.4420 -0.6456 -0.4506
 2853TIP3    H1 8502   3.556   2.221   4.297 -1.1437 -1.2562 -0.3025
 2853TIP3    H2 8503   3.494   2.335   4.218 -0.7403 -0.7664  0.0901
 2854TIP3   OH2 8504   6.282   4.133   3.851  0.1644 -0.0588  0.0515
 2854TIP3    H1 8505   6.363   4.130   3.801  0.0038  2.2480 -0.4577
 2854TIP3    H2 8506   6.264   4.226   3.862 -1.1481 -0.5076  2.2766
 2855TIP3   OH2 8507   4.158   6.708   1.045 -0.2231  0.2660  0.4725
 2855TIP3    H1 8508   4.227   6.731   0.983 -0.7282  1.1160  0.2098
 2855TIP3    H2 8509   4.203   6.656   1.112 -0.1585 -3.1397 -1.9693
 2856TIP3   OH2 8510   0.884   0.160   3.168 -0.0082  0.3831 -0.1322
 2856TIP3    H1 8511   0.919   0.246   3.144  0.8115  0.0806 -0.0407
 2856TIP3    H2 8512   0.863   0.168   3.262 -0.3776  0.6234 -0.2323
 2857TIP3   OH2 8513   5.276   4.012   3.714 -0.3686  0.0705 -0.4773
 2857TIP3    H1 8514   5.355   4.059   3.690 -0.1102 -0.5834 -0.9517
 2857TIP3    H2 8515   5.255   4.043   3.802  0.4755  0.1792 -0.3018
 2858TIP3   OH2 8516   4.771   7.076   3.308  0.0129  0.4351  0.0597
 2858TIP3    H1 8517   4.833   7.148   3.297 -0.0192  0.3939 -0.4231
 2858TIP3    H2 8518   4.759   7.041   3.219  0.5691 -0.6339  0.3910
 2859TIP3   OH2 8519   1.635   2.227   4.273 -0.5276 -0.3685  0.2840
 2859TIP3    H1 8520   1.701   2.229   4.343 -0.2363 -1.7562  0.0784
 2859TIP3    H2 8521   1.685   2.241   4.192 -0.7154  0.1546  0.2548
 2860TIP3   OH2 8522   8.095   2.399   4.056  0.7682 -0.6032 -0.4105
 2860TIP3    H1 8523   8.091   2.492   4.082  0.7156 -1.0485  1.2802
 2860TIP3    H2 8524   8.011   2.363   4.086  0.6740 -1.1525 -1.3055
 2861TIP3   OH2 8525   4.511   0.320   2.863  0.4448  0.4211 -0.0069
 2861TIP3    H1 8526   4.512   0.277   2.778  0.1901  1.7810 -0.7361
 2861TIP3    H2 8527   4.460   0.262   2.920 -0.1676 -0.0669 -1.0310
 2862TIP3   OH2 8528   2.441   1.916   3.650  0.3814  0.1782 -0.0154
 2862TIP3    H1 8529   2.419   1.860   3.575  0.8707  1.5678 -1.2366
 2862TIP3    H2 8530   2.373   1.983   3.651  0.9334  0.7498  0.1443
 2863TIP3   OH2 8531   7.405   2.498   5.911  0.3690 -0.4057 -0.4595
 2863TIP3    H1 8532   7.396   2.408   5.943  2.2727 -1.4106 -2.4504
 2863TIP3    H2 8533   7.359   2.498   5.827  1.2545  0.1585 -0.9631
 2864TIP3   OH2 8534   0.185   2.296   0.687  0.3297  0.5326 -0.1379
 2864TIP3    H1 8535   0.129   2.368   0.657  0.3269  0.5562 -0.0780
 2864TIP3    H2 8536   0.141   2.263   0.765  1.4605  1.9103  1.1544
 2865TIP3   OH2 8537   0.166   0.287   5.607 -0.1510 -0.7718 -0.1915
 2865TIP3    H1 8538   0.097   0.292   5.672  1.2864 -0.1171  1.3642
 2865TIP3    H2 8539   0.176   0.193   5.589 -1.3462 -0.8758 -0.3672
 2866TIP3   OH2 8540   1.102   0.632   5.146 -0.0742  0.0248  0.0499
 2866TIP3    H1 8541   1.115   0.584   5.064  1.0149 -0.1930  0.3515
 2866TIP3    H2 8542   1.034   0.583   5.192 -1.1995  0.5172 -0.9947
 2867TIP3   OH2 8543   6.099   1.790   1.652  0.5853  0.2804  0.4437
 2867TIP3    H1 8544   6.018   1.762   1.693  1.1196 -1.4611  0.3602
 2867TIP3    H2 8545   6.133   1.858   1.711  0.1568 -0.5025  1.6230
 2868TIP3   OH2 8546   3.420   4.207   2.349  0.6832 -0.1780  0.1481
 2868TIP3    H1 8547   3.332   4.194   2.385 -0.2945 -2.4944 -2.7411
 2868TIP3    H2 8548   3.412   4.285   2.294  1.0524  0.8183  1.4491
 2869TIP3   OH2 8549   2.616   1.350   6.320  0.6003 -0.2424  0.4221
 2869TIP3    H1 8550   2.646   1.317   6.235  1.0074  1.2247 -0.0354
 2869TIP3    H2 8551   2.639   1.281   6.381  1.5946 -0.7353 -0.4660
 2870TIP3   OH2 8552   3.725   3.859   5.278 -0.3043  0.2838 -0.5363
 2870TIP3    H1 8553   3.662   3.896   5.216  0.3596  2.2658 -0.0766
 2870TIP3    H2 8554   3.771   3.792   5.227 -1.2214  0.3932 -1.5473
 2871TIP3   OH2 8555   2.032   5.598   4.516  0.4052 -0.0889 -0.4638
 2871TIP3    H1 8556   1.961   5.610   4.454 -0.3505  0.2766  0.4537
 2871TIP3    H2 8557   1.989   5.582   4.600  1.4044 -0.9732 -0.0942
 2872TIP3   OH2 8558   4.490   2.741   3.185 -0.2649 -0.3847  0.4849
 2872TIP3    H1 8559   4.572   2.725   3.232  0.1874 -3.5889 -1.1432
 2872TIP3    H2 8560   4.514   2.801   3.115  0.5643 -0.7911  0.4068
 2873TIP3   OH2 8561   1.516   1.764   0.710 -0.5136  0.3940  0.2990
 2873TIP3    H1 8562   1.567   1.730   0.783 -0.4357  2.1802  1.1216
 2873TIP3    H2 8563   1.429   1.725   0.722 -0.6037  0.9350  1.5574
 2874TIP3   OH2 8564   6.444   1.357   4.197  0.0142  0.4272 -0.4255
 2874TIP3    H1 8565   6.375   1.415   4.229  0.3170  0.5540 -0.0005
 2874TIP3    H2 8566   6.417   1.336   4.107 -0.2294  1.0207 -0.5012
 2875TIP3   OH2 8567   3.927   5.813   1.055 -0.7370  0.7238 -0.0102
 2875TIP3    H1 8568   3.961   5.808   1.144 -0.4116  1.3342 -0.0946
 2875TIP3    H2 8569   3.831   5.810   1.065 -0.6844 -0.3825  0.2663
 2876TIP3   OH2 8570   3.805   7.180   4.447 -0.2254 -0.4435 -0.1322
 2876TIP3    H1 8571   3.896   7.210   4.445  0.3186 -2.0133 -0.2019
 2876TIP3    H2 8572   3.754   7.256   4.419  1.0508  0.4798 -0.0341
 2877TIP3   OH2 8573   1.427   2.221   2.080 -0.0962  0.4423  0.0839
 2877TIP3    H1 8574   1.439   2.208   2.174 -0.1934 -1.5517 -0.1428
 2877TIP3    H2 8575   1.469   2.145   2.040 -0.8149  0.8175 -1.4536
 2878TIP3   OH2 8576   1.023   3.929   2.771  0.5441  0.1463  0.7715
 2878TIP3    H1 8577   1.000   3.905   2.681 -0.8477 -1.0582  1.3925
 2878TIP3    H2 8578   1.114   3.958   2.766  0.5533 -0.0730 -0.9901
 2879TIP3   OH2 8579   3.551   5.435   2.174 -0.2478 -0.5964  0.1431
 2879TIP3    H1 8580   3.524   5.421   2.083  1.5491 -1.6824 -0.2646
 2879TIP3    H2 8581   3.486   5.387   2.226 -2.8341  2.0964 -0.2891
 2880TIP3   OH2 8582   6.490   4.728   3.402  0.2118 -0.1962 -0.4520
 2880TIP3    H1 8583   6.437   4.805   3.385  1.6792  0.7276 -1.0730
 2880TIP3    H2 8584   6.542   4.715   3.323 -0.4447 -2.2345 -0.6175
 2881TIP3   OH2 8585   3.373   3.068   3.306 -0.6889 -0.0812 -0.3796
 2881TIP3    H1 8586   3.307   3.059   3.374 -0.8542  1.0359 -0.3707
 2881TIP3    H2 8587   3.452   3.029   3.343 -1.2593 -1.1650 -0.2823
 2882TIP3   OH2 8588   5.265   3.974   3.415 -0.3665 -0.2093  0.7248
 2882TIP3    H1 8589   5.344   3.931   3.382  1.0554  0.6466  2.7340
 2882TIP3    H2 8590   5.262   3.951   3.508 -1.6911  0.9283  1.0059
 2883TIP3   OH2 8591   3.456   4.369   5.066  0.3502  0.1203 -0.4278
 2883TIP3    H1 8592   3.430   4.291   5.113  0.4081  0.0725 -0.4741
 2883TIP3    H2 8593   3.551   4.371   5.073  0.2437  1.2677  1.2922
 2884TIP3   OH2 8594   4.087   1.934   2.959  0.4822 -0.4550 -0.0975
 2884TIP3    H1 8595   4.094   1.929   3.054 -0.5014 -1.1524 -0.0483
 2884TIP3    H2 8596   3.994   1.948   2.942  0.6274 -0.4336 -0.9656
 2885TIP3   OH2 8597   2.318   0.498   1.375 -0.0298  0.5593  0.0132
 2885TIP3    H1 8598   2.296   0.591   1.382 -0.4361  0.5032 -0.4763
 2885TIP3    H2 8599   2.267   0.456   1.444  0.7924  0.8007  0.7803
 2886TIP3   OH2 8600   0.527   6.645   4.213 -0.0944 -0.5640 -0.3159
 2886TIP3    H1 8601   0.532   6.738   4.237 -0.0954 -1.1726  2.4074
 2886TIP3    H2 8602   0.434   6.628   4.203 -0.1803 -0.4725  0.2541
 2887TIP3   OH2 8603   5.085   2.481   0.558  0.3281  0.5718  0.5241
 2887TIP3    H1 8604   5.095   2.521   0.472 -5.5827 -0.0128 -0.9154
 2887TIP3    H2 8605   5.063   2.554   0.616 -0.0665  0.5213  0.4405
 2888TIP3   OH2 8606   5.978   4.166   5.963 -0.0480 -0.2239 -0.9606
 2888TIP3    H1 8607   5.902   4.170   5.905 -0.7652 -0.5673 -0.0743
 2888TIP3    H2 8608   5.967   4.083   6.011  0.3344  0.2074 -0.0995
 2889TIP3   OH2 8609   4.289   0.387   5.365  0.1231 -0.7999 -0.2435
 2889TIP3    H1 8610   4.375   0.376   5.406  0.5585  0.5927 -0.7574
 2889TIP3    H2 8611   4.230   0.338   5.423  0.8449  0.4165  1.6268
 2890TIP3   OH2 8612   6.474   3.573   3.891 -0.0088 -0.3526 -0.1605
 2890TIP3    H1 8613   6.492   3.658   3.853  0.5192  1.3078  3.3828
 2890TIP3    H2 8614   6.544   3.516   3.857  1.6946  1.5375  0.0087
 2891TIP3   OH2 8615   1.093   6.089   3.757  0.6436 -0.2751 -0.3070
 2891TIP3    H1 8616   1.044   6.169   3.740  0.1958 -0.9412 -2.3314
 2891TIP3    H2 8617   1.184   6.113   3.738  0.4745 -0.3041 -1.2010
 2892TIP3   OH2 8618   6.524   5.126   4.177 -0.1916 -0.2887  0.3293
 2892TIP3    H1 8619   6.515   5.169   4.092  2.1143  2.8756  1.4681
 2892TIP3    H2 8620   6.559   5.040   4.157  0.7177  0.5220 -1.9289
 2893TIP3   OH2 8621   1.746   6.297   2.464 -0.2016 -0.0588 -0.0476
 2893TIP3    H1 8622   1.750   6.378   2.514  0.5558  1.3182 -2.1864
 2893TIP3    H2 8623   1.837   6.267   2.460 -0.1421  0.2129 -1.0901
 2894TIP3   OH2 8624   4.954   4.635   6.513 -0.0066  0.9049 -0.2543
 2894TIP3    H1 8625   4.951   4.540   6.520  0.9947  0.7301 -1.7911
 2894TIP3    H2 8626   4.877   4.665   6.562 -0.1623 -0.6526  0.5215
 2895TIP3   OH2 8627   4.004   3.210   3.695 -0.6152 -0.0804  0.1729
 2895TIP3    H1 8628   3.972   3.179   3.780 -1.2541 -0.9144 -0.3542
 2895TIP3    H2 8629   4.036   3.298   3.712  0.0273 -0.5424  1.4491
 2896TIP3   OH2 8630   0.030   0.417   4.260  0.3965  0.2969  0.1558
 2896TIP3    H1 8631   0.075   0.496   4.231 -0.1640  0.2168 -0.9993
 2896TIP3    H2 8632  -0.063   0.440   4.255  0.2570 -0.1099  0.7869
 2897TIP3   OH2 8633   8.245   4.160   5.864 -0.4724  0.1671 -0.0050
 2897TIP3    H1 8634   8.171   4.218   5.848 -0.9080 -0.0435  1.1174
 2897TIP3    H2 8635   8.229   4.084   5.807 -0.0014  1.0350 -1.3263
 2898TIP3   OH2 8636   2.188   7.255   6.024  0.3281 -0.0291  0.0311
 2898TIP3    H1 8637   2.273   7.217   6.005  0.3943  0.6953 -1.2472
 2898TIP3    H2 8638   2.165   7.304   5.944 -1.2645 -0.1917  0.3586
 2899TIP3   OH2 8639   2.941   7.153   3.550  0.0497  0.4650  0.0635
 2899TIP3    H1 8640   2.866   7.098   3.572 -0.0647  0.5650 -0.0738
 2899TIP3    H2 8641   2.998   7.149   3.627  0.3348 -0.3417 -0.1772
 2900TIP3   OH2 8642   7.658   5.578   3.165  0.5128  0.0441 -0.2003
 2900TIP3    H1 8643   7.633   5.534   3.247 -0.3842  2.2859  0.7961
 2900TIP3    H2 8644   7.576   5.586   3.116  0.8720 -0.3739 -0.8898
 2901TIP3   OH2 8645   6.246   1.454   6.242 -0.5593 -0.3168 -0.1395
 2901TIP3    H1 8646   6.239   1.481   6.334 -0.2745 -1.0939  0.1141
 2901TIP3    H2 8647   6.156   1.435   6.216 -0.6519 -0.0092 -0.0541
 2902TIP3   OH2 8648   4.510   2.501   1.745  0.2060 -0.1037 -0.0014
 2902TIP3    H1 8649   4.496   2.595   1.760 -2.1265 -0.2554 -0.7179
 2902TIP3    H2 8650   4.427   2.460   1.771 -0.6591 -1.3887 -4.0094
 2903TIP3   OH2 8651   3.349   1.521   6.472  0.1205  0.4395 -0.2480
 2903TIP3    H1 8652   3.385   1.600   6.433 -1.3801  1.5031  0.4575
 2903TIP3    H2 8653   3.300   1.479   6.401  0.5291  0.3674 -0.4940
 2904TIP3   OH2 8654   7.464   2.770   3.995  0.5531  0.0394  0.0594
 2904TIP3    H1 8655   7.506   2.796   3.913  0.4633  1.7087  0.5071
 2904TIP3    H2 8656   7.533   2.777   4.061  0.4622 -0.6609  0.2329
 2905TIP3   OH2 8657   0.017   5.712   3.670 -0.2753 -0.3405 -0.2088
 2905TIP3    H1 8658   0.005   5.619   3.686 -1.7889 -0.2015 -0.3579
 2905TIP3    H2 8659   0.035   5.718   3.576  0.0376 -0.5017 -0.1589
 2906TIP3   OH2 8660   4.000   1.984   6.390 -0.4454  0.3261 -0.0198
 2906TIP3    H1 8661   3.989   1.895   6.426 -1.8203  0.2700 -0.5313
 2906TIP3    H2 8662   3.924   1.996   6.333 -0.6842  2.1351  0.6415
 2907TIP3   OH2 8663   7.665   0.069   1.731 -0.8528  0.0451  0.0181
 2907TIP3    H1 8664   7.587   0.049   1.680 -0.2896  0.3536 -0.9739
 2907TIP3    H2 8665   7.734   0.015   1.694 -0.2157  0.9768 -0.1841
 2908TIP3   OH2 8666   3.372   6.391   4.745  0.2968  0.5394 -0.6596
 2908TIP3    H1 8667   3.396   6.301   4.723  1.2876  0.4276  0.7398
 2908TIP3    H2 8668   3.455   6.438   4.743  0.2141  0.8265  1.2437
 2909TIP3   OH2 8669   0.210   3.692   2.985 -0.3768 -0.2240  0.4356
 2909TIP3    H1 8670   0.120   3.717   2.966 -0.1353 -0.5686 -1.3093
 2909TIP3    H2 8671   0.240   3.759   3.047 -1.2457  1.0161 -0.4227
 2910TIP3   OH2 8672   1.153   7.200   6.547  0.0219 -0.2992 -0.2003
 2910TIP3    H1 8673   1.144   7.106   6.533  0.5520 -0.6129  1.3806
 2910TIP3    H2 8674   1.106   7.217   6.629  0.3903  0.7173 -0.1884
 2911TIP3   OH2 8675   4.210   0.781   0.351  0.1013  0.0053 -0.2277
 2911TIP3    H1 8676   4.162   0.718   0.404 -1.9598 -0.2142 -2.1991
 2911TIP3    H2 8677   4.151   0.856   0.343  0.3210  0.0206 -2.1553
 2912TIP3   OH2 8678   7.426   6.224   4.766 -0.4370  0.2877  0.6912
 2912TIP3    H1 8679   7.365   6.150   4.771  0.9231 -1.0477 -0.9862
 2912TIP3    H2 8680   7.478   6.218   4.846  0.0739 -1.0284  0.2995
 2913TIP3   OH2 8681   1.481   1.707   1.971  0.5833  0.3520  0.0332
 2913TIP3    H1 8682   1.427   1.628   1.975  1.6817 -0.6758 -2.6860
 2913TIP3    H2 8683   1.441   1.760   1.902  1.0107  1.2284  0.4412
 2914TIP3   OH2 8684   3.507   6.190   2.159 -0.3958 -0.3767 -0.7451
 2914TIP3    H1 8685   3.442   6.132   2.199 -0.3608  0.0191 -0.1030
 2914TIP3    H2 8686   3.487   6.276   2.194  0.0638 -0.1380 -1.0630
 2915TIP3   OH2 8687   4.887   6.168   3.395 -0.4735  0.3156 -0.2409
 2915TIP3    H1 8688   4.853   6.092   3.443  0.5463 -0.4679 -0.7417
 2915TIP3    H2 8689   4.818   6.189   3.332 -1.0326  0.2139  0.3215
 2916TIP3   OH2 8690   0.013   0.276   1.864  0.7259 -0.1547  0.2519
 2916TIP3    H1 8691   0.101   0.299   1.894  0.7719  1.0210 -0.7525
 2916TIP3    H2 8692  -0.044   0.344   1.900  0.1071 -1.1838  1.3318
 2917TIP3   OH2 8693   5.678   5.422   1.792  0.1286 -0.4020 -0.1343
 2917TIP3    H1 8694   5.650   5.407   1.882 -0.5923  2.1612  0.1240
 2917TIP3    H2 8695   5.772   5.404   1.793  0.3807  0.7951  1.4631
 2918TIP3   OH2 8696   2.871   5.570   3.903  0.0016 -0.0355  0.2781
 2918TIP3    H1 8697   2.927   5.531   3.836  1.5005  0.9059  0.9369
 2918TIP3    H2 8698   2.920   5.645   3.935 -1.5558  0.6984  1.0553
 2919TIP3   OH2 8699   7.827   0.440   0.993 -0.1888  0.0951 -0.6206
 2919TIP3    H1 8700   7.915   0.445   0.956 -0.5939  0.4692 -1.5912
 2919TIP3    H2 8701   7.828   0.362   1.048  1.4485  1.4105  1.3364
 2920TIP3   OH2 8702   4.000   4.533   1.421 -0.0823 -0.3266  0.3195
 2920TIP3    H1 8703   3.962   4.609   1.378  0.8549  0.5317  0.9497
 2920TIP3    H2 8704   3.989   4.551   1.515 -0.3877 -1.2643  0.4789
 2921TIP3   OH2 8705   3.409   1.528   3.014  0.2805 -0.1007 -0.7424
 2921TIP3    H1 8706   3.365   1.598   3.062  1.9870  0.8220 -0.4105
 2921TIP3    H2 8707   3.366   1.448   3.042 -0.0474  0.6005  0.8479
 2922TIP3   OH2 8708   7.343   5.950   0.761  0.3069 -0.0971 -0.1804
 2922TIP3    H1 8709   7.437   5.935   0.763  0.3258  0.1619  1.1148
 2922TIP3    H2 8710   7.304   5.866   0.785  0.1436 -0.5147 -1.7467
 2923TIP3   OH2 8711   3.386   5.542   3.744 -0.0272  0.5390  0.3733
 2923TIP3    H1 8712   3.349   5.492   3.672  1.8736  1.4641 -1.3737
 2923TIP3    H2 8713   3.377   5.485   3.821 -2.8496 -0.1456 -0.3631
 2924TIP3   OH2 8714   2.716   6.670   4.200 -0.3043 -0.3957 -0.0824
 2924TIP3    H1 8715   2.651   6.606   4.230  0.2674 -1.2113 -0.5312
 2924TIP3    H2 8716   2.715   6.662   4.105  0.1395 -0.0952 -0.1138
 2925TIP3   OH2 8717   3.151   6.911   2.312  0.1355 -0.0758 -0.2972
 2925TIP3    H1 8718   3.115   6.945   2.394 -1.1595  1.5084 -1.4378
 2925TIP3    H2 8719   3.223   6.970   2.291  0.8396 -0.8245 -0.0474
 2926TIP3   OH2 8720   2.466   1.942   1.714  0.2314  0.8362  0.0265
 2926TIP3    H1 8721   2.542   1.895   1.681  0.5325  0.9270  0.5775
 2926TIP3    H2 8722   2.396   1.877   1.717  0.7807  0.2809  1.2717
 2927TIP3   OH2 8723   8.180   5.244   2.602  1.2584  0.1494 -0.2401
 2927TIP3    H1 8724   8.191   5.169   2.544  0.1908 -0.1840 -0.0252
 2927TIP3    H2 8725   8.139   5.311   2.547  0.7426  0.0177 -0.0229
 2928TIP3   OH2 8726   1.544   2.733   2.078  0.0978 -0.4734 -0.9920
 2928TIP3    H1 8727   1.609   2.751   2.011  1.7615 -0.6601  0.4869
 2928TIP3    H2 8728   1.505   2.818   2.098  1.7714  0.1111 -0.0873
 2929TIP3   OH2 8729   3.593   6.531   0.107  0.1648  0.3678 -0.0272
 2929TIP3    H1 8730   3.547   6.559   0.028  0.3090  3.4101  0.8508
 2929TIP3    H2 8731   3.552   6.581   0.178  1.3073 -0.8462  1.5742
 2930TIP3   OH2 8732   7.930   3.195   5.037  0.5438  0.1089 -0.0730
 2930TIP3    H1 8733   7.940   3.143   5.117  1.9327 -0.8665 -0.8342
 2930TIP3    H2 8734   7.871   3.145   4.982  1.0129 -0.1280 -0.3672
 2931TIP3   OH2 8735   5.155   1.076   0.143 -0.0855  0.4619  0.5510
 2931TIP3    H1 8736   5.118   1.045   0.225 -0.1017 -0.9630  0.0264
 2931TIP3    H2 8737   5.224   1.137   0.170 -0.4264  0.4050  1.5982
 2932TIP3   OH2 8738   4.888   4.971   5.256 -0.0736 -0.1522 -0.6152
 2932TIP3    H1 8739   4.911   5.046   5.201 -0.0082 -0.3156 -0.8108
 2932TIP3    H2 8740   4.810   4.933   5.214 -0.4180  0.1127 -0.2256
 2933TIP3   OH2 8741   3.034   2.581   0.388 -0.0705  0.0794 -0.1802
 2933TIP3    H1 8742   2.972   2.523   0.431 -0.2150  0.7738  0.5696
 2933TIP3    H2 8743   2.980   2.642   0.338  0.0787 -0.3664 -0.9062
 2934TIP3   OH2 8744   1.861   5.940   5.087 -0.2957 -0.0998  0.1869
 2934TIP3    H1 8745   1.841   6.010   5.025  2.2156  0.3679 -0.2108
 2934TIP3    H2 8746   1.861   5.860   5.034 -0.3371  0.0058  0.0256
 2935TIP3   OH2 8747   6.557   5.344   2.170 -0.2584  0.1967  0.2145
 2935TIP3    H1 8748   6.635   5.338   2.115  1.2569 -1.7423  2.4114
 2935TIP3    H2 8749   6.539   5.254   2.196 -3.3375  0.5773 -0.2691
 2936TIP3   OH2 8750   2.179   3.870   4.800  0.5437  0.0207  0.0631
 2936TIP3    H1 8751   2.103   3.856   4.856 -0.9175  1.3613 -1.4699
 2936TIP3    H2 8752   2.198   3.785   4.762 -0.1133 -0.3437  0.5453
 2937TIP3   OH2 8753   4.808   3.613   3.841 -0.7272 -0.6487  0.1657
 2937TIP3    H1 8754   4.742   3.637   3.775  0.9708  1.5680 -0.8571
 2937TIP3    H2 8755   4.870   3.558   3.793  0.2974  0.6389 -0.0618
 2938TIP3   OH2 8756   1.872   1.026   1.057 -0.3806  0.2096  0.8305
 2938TIP3    H1 8757   1.849   0.942   1.018  0.9510 -0.3300  1.1513
 2938TIP3    H2 8758   1.842   1.019   1.148 -1.1669  0.4842  0.6044
 2939TIP3   OH2 8759   2.988   4.799   0.167  0.4874  0.0160  0.5095
 2939TIP3    H1 8760   2.946   4.870   0.215 -0.3842 -1.5645  2.2039
 2939TIP3    H2 8761   2.917   4.753   0.123  0.7739 -0.8666  0.9289
 2940TIP3   OH2 8762   5.065   5.331   0.448 -0.2552  0.0817  0.7667
 2940TIP3    H1 8763   5.134   5.280   0.491 -0.5943 -0.8330  0.2485
 2940TIP3    H2 8764   5.015   5.267   0.398  0.6839  1.2042 -1.7957
 2941TIP3   OH2 8765   2.807   3.317   0.988  0.9107  0.5216  0.0712
 2941TIP3    H1 8766   2.896   3.336   0.958  1.2924  0.4515  1.1320
 2941TIP3    H2 8767   2.772   3.402   1.014  1.3594  0.3029  1.4596
 2942TIP3   OH2 8768   3.352   1.845   6.021  0.0912 -0.2646 -0.5471
 2942TIP3    H1 8769   3.290   1.860   6.093  0.9916 -0.1951  0.2336
 2942TIP3    H2 8770   3.370   1.932   5.986 -0.8414 -0.3571 -1.3025
 2943TIP3   OH2 8771   1.904   0.039   2.275  0.0616 -0.0222 -0.1698
 2943TIP3    H1 8772   1.987  -0.006   2.293 -0.1820 -0.1048  0.7903
 2943TIP3    H2 8773   1.858   0.039   2.359 -0.5065  0.8633 -0.4673
 2944TIP3   OH2 8774   4.880   1.098   2.374 -0.0711 -0.6296  0.2039
 2944TIP3    H1 8775   4.818   1.123   2.306 -1.1919 -2.1796  0.6023
 2944TIP3    H2 8776   4.964   1.135   2.345 -0.8216  0.0152 -1.2313
 2945TIP3   OH2 8777   2.375   3.743   6.466  0.5121  0.5380  0.2959
 2945TIP3    H1 8778   2.347   3.682   6.534  1.1663 -0.5931 -0.4192
 2945TIP3    H2 8779   2.469   3.755   6.482  0.8754 -0.4594 -0.9282
 2946TIP3   OH2 8780   6.784   5.216   6.127 -0.1716  0.3640 -0.4902
 2946TIP3    H1 8781   6.814   5.305   6.111  3.0102  0.0143  2.4735
 2946TIP3    H2 8782   6.849   5.178   6.186 -2.9288 -2.9961  0.7689
 2947TIP3   OH2 8783   6.574   5.897   6.077 -0.6772 -0.4889  0.1835
 2947TIP3    H1 8784   6.666   5.911   6.103 -0.3400 -2.7987  0.4149
 2947TIP3    H2 8785   6.557   5.967   6.013  1.2230  0.0253  0.1653
 2948TIP3   OH2 8786   1.464   1.797   5.148  0.3763  0.1294  0.4764
 2948TIP3    H1 8787   1.535   1.860   5.139 -1.1843  1.6838 -2.1420
 2948TIP3    H2 8788   1.504   1.712   5.126  1.5804  0.8563 -0.2412
 2949TIP3   OH2 8789   5.407   0.601   3.416 -0.0475 -0.0744 -0.1582
 2949TIP3    H1 8790   5.362   0.558   3.489  2.5787 -0.5965  1.2854
 2949TIP3    H2 8791   5.460   0.531   3.377  1.4729  1.0071 -0.1218
 2950TIP3   OH2 8792   7.506   4.631   3.969 -0.3239 -0.0040 -0.5740
 2950TIP3    H1 8793   7.559   4.640   4.048  1.6934  0.9523 -1.9418
 2950TIP3    H2 8794   7.449   4.708   3.969  0.3217  0.4890 -0.4761
 2951TIP3   OH2 8795   2.135   1.614   3.156  0.1606  0.2335  0.1128
 2951TIP3    H1 8796   2.073   1.541   3.163  1.1702 -0.5826  0.9418
 2951TIP3    H2 8797   2.089   1.688   3.196 -0.2767 -0.3543  0.7259
 2952TIP3   OH2 8798   2.258   4.713   2.322 -0.0200 -0.2480 -0.3330
 2952TIP3    H1 8799   2.264   4.794   2.271  0.5687 -0.8390 -1.2272
 2952TIP3    H2 8800   2.288   4.645   2.262  1.3425 -0.8828  1.0262
 2953TIP3   OH2 8801   2.798   5.351   6.736  0.4564  0.0004 -0.6415
 2953TIP3    H1 8802   2.777   5.316   6.649  1.4878 -3.5836  0.3794
 2953TIP3    H2 8803   2.882   5.311   6.758  1.5147  2.8153  1.0632
 2954TIP3   OH2 8804   6.586   4.068   2.837  0.2325  0.3872 -0.5999
 2954TIP3    H1 8805   6.570   4.158   2.807 -0.2373  0.2964 -0.6264
 2954TIP3    H2 8806   6.516   4.017   2.797  0.1575  0.1071 -0.1129
 2955TIP3   OH2 8807   4.884   7.024   2.730 -0.6650 -0.0539  0.5465
 2955TIP3    H1 8808   4.837   7.038   2.648  1.4004 -0.1534 -0.7019
 2955TIP3    H2 8809   4.904   7.113   2.761  0.5473 -0.0287 -0.2713
 2956TIP3   OH2 8810   5.723   5.363   2.707 -0.3938 -0.7627  0.5018
 2956TIP3    H1 8811   5.639   5.371   2.662  0.0482  1.9517 -0.0541
 2956TIP3    H2 8812   5.705   5.391   2.797 -0.3902 -1.7221  0.8025
 2957TIP3   OH2 8813   4.971   4.510   5.029 -0.6640  0.5604 -0.4199
 2957TIP3    H1 8814   4.941   4.600   5.044 -0.3645  0.8377 -1.4317
 2957TIP3    H2 8815   5.048   4.501   5.086  0.0686  1.3815 -1.2395
 2958TIP3   OH2 8816   4.366   6.363   4.172 -0.0686  0.3440  0.3316
 2958TIP3    H1 8817   4.445   6.360   4.226 -0.3598  1.9663  0.9111
 2958TIP3    H2 8818   4.320   6.442   4.202 -0.6984  0.7877 -1.6713
 2959TIP3   OH2 8819   5.179   7.006   1.359 -0.3639 -0.0579 -0.0076
 2959TIP3    H1 8820   5.185   7.092   1.400 -0.6520  0.4959 -1.0793
 2959TIP3    H2 8821   5.151   6.947   1.429 -1.9890  1.0654  0.3537
 2960TIP3   OH2 8822   3.871   2.595   4.918 -0.5188 -0.1990 -0.6820
 2960TIP3    H1 8823   3.916   2.678   4.927  0.2385 -0.4640 -1.7915
 2960TIP3    H2 8824   3.779   2.614   4.939 -0.1649  0.6671  0.1208
 2961TIP3   OH2 8825   1.638   4.013   4.734 -0.3796  0.0348  0.3033
 2961TIP3    H1 8826   1.569   3.948   4.747 -1.1972  0.9000  0.3910
 2961TIP3    H2 8827   1.618   4.053   4.650  0.0463  0.2540  0.3053
 2962TIP3   OH2 8828   1.864   0.947   2.412 -0.3524 -0.5040  0.0742
 2962TIP3    H1 8829   1.872   0.999   2.332  0.5851  0.6543  0.8812
 2962TIP3    H2 8830   1.775   0.913   2.411 -1.4620  2.1732  0.1003
 2963TIP3   OH2 8831   5.740   2.527   3.379 -0.0702 -0.5508 -0.3329
 2963TIP3    H1 8832   5.751   2.620   3.357 -0.7698 -1.0690 -3.2852
 2963TIP3    H2 8833   5.659   2.524   3.429  0.6104  0.5503  0.8844
 2964TIP3   OH2 8834   0.223   4.389   3.798 -0.0256 -0.8299  0.4559
 2964TIP3    H1 8835   0.303   4.353   3.758 -0.0297  0.9872 -1.3688
 2964TIP3    H2 8836   0.242   4.482   3.809 -1.5234 -0.5608  0.9648
 2965TIP3   OH2 8837   0.861   1.234   6.791  0.5192  0.1041  0.1192
 2965TIP3    H1 8838   0.917   1.164   6.758 -1.3580 -1.3736 -0.1422
 2965TIP3    H2 8839   0.840   1.287   6.714  0.6403 -0.0089  0.0086
 2966TIP3   OH2 8840   1.484   5.972   4.851 -0.3722 -0.2947 -0.6372
 2966TIP3    H1 8841   1.576   5.987   4.872 -0.4685 -0.3762 -0.1461
 2966TIP3    H2 8842   1.454   5.909   4.918 -0.9162  0.1122 -0.4926
 2967TIP3   OH2 8843   8.239   0.718   2.282  0.2874 -0.4741  0.2465
 2967TIP3    H1 8844   8.286   0.791   2.323 -1.4306  1.0919 -0.4026
 2967TIP3    H2 8845   8.187   0.759   2.213  0.3320 -2.5413 -1.1060
 2968TIP3   OH2 8846   6.496   2.145   4.824  0.0596  0.1281 -1.2363
 2968TIP3    H1 8847   6.444   2.164   4.746  0.1252  0.1509 -1.2738
 2968TIP3    H2 8848   6.566   2.088   4.794 -0.3908 -0.5415 -1.0410
 2969TIP3   OH2 8849   6.147   7.595   2.503  0.2887 -0.4305  0.6317
 2969TIP3    H1 8850   6.170   7.536   2.575 -0.4516 -0.5928  0.7400
 2969TIP3    H2 8851   6.072   7.554   2.462  1.2078 -0.7675 -0.7638
 2970TIP3   OH2 8852   3.294   1.091   6.743 -0.0206  0.4270  0.4208
 2970TIP3    H1 8853   3.239   1.024   6.703  0.5774  0.0810  0.1483
 2970TIP3    H2 8854   3.310   1.154   6.673 -1.8299  1.6968  1.0822
 2971TIP3   OH2 8855   3.806   0.856   3.364 -0.2699  0.0892 -0.4709
 2971TIP3    H1 8856   3.856   0.781   3.333 -1.3537  0.1657 -2.5937
 2971TIP3    H2 8857   3.737   0.868   3.299 -0.6722  2.3834  0.2592
 2972TIP3   OH2 8858   3.079  -0.000   4.620  0.0394 -0.1559  0.1395
 2972TIP3    H1 8859   3.144   0.069   4.607  0.2318 -0.8775 -4.0910
 2972TIP3    H2 8860   2.997   0.038   4.589 -0.2230 -1.2055 -0.5210
 2973TIP3   OH2 8861   8.243   4.943   5.485 -0.0297 -0.0427  0.1988
 2973TIP3    H1 8862   8.200   4.967   5.566 -1.1723  1.9160 -0.9041
 2973TIP3    H2 8863   8.318   5.002   5.479  0.5890 -0.8129  0.2725
 2974TIP3   OH2 8864   2.940   7.378   4.744 -0.8877  0.0209  0.2623
 2974TIP3    H1 8865   2.996   7.453   4.723  1.9491 -2.3846 -1.5850
 2974TIP3    H2 8866   2.866   7.385   4.684  0.7604 -0.0447 -1.8933
 2975TIP3   OH2 8867   5.536   6.816   1.843 -0.5348 -0.2396  0.3794
 2975TIP3    H1 8868   5.560   6.725   1.860 -1.3573 -0.2913  1.3812
 2975TIP3    H2 8869   5.618   6.859   1.818  0.2102 -0.8608  1.6474
 2976TIP3   OH2 8870   3.780   5.037   1.304  0.0231  0.0955  0.5797
 2976TIP3    H1 8871   3.701   5.043   1.250  0.4253  1.0105  0.0795
 2976TIP3    H2 8872   3.846   5.087   1.257  1.0470 -1.0146  0.7761
 2977TIP3   OH2 8873   4.267   1.424   6.516  0.5410 -0.1120 -0.3818
 2977TIP3    H1 8874   4.289   1.429   6.423  0.1187  2.4198 -0.4046
 2977TIP3    H2 8875   4.266   1.330   6.535  1.9368 -0.6469 -2.5921
 2978TIP3   OH2 8876   6.296   3.216   0.369 -0.4462 -0.1760 -0.4612
 2978TIP3    H1 8877   6.209   3.185   0.344 -1.2731  1.5353  0.1685
 2978TIP3    H2 8878   6.280   3.285   0.433  1.4346 -0.6698  0.6133
 2979TIP3   OH2 8879   1.615   6.385   0.773 -0.2100  0.3957  0.1898
 2979TIP3    H1 8880   1.588   6.303   0.733  0.4761  0.4757 -0.4718
 2979TIP3    H2 8881   1.679   6.359   0.839  0.4679  0.4208 -0.4357
 2980TIP3   OH2 8882   4.290   0.545   3.296 -0.4528  0.1556 -0.1074
 2980TIP3    H1 8883   4.204   0.505   3.282 -0.5825  0.8248 -1.3217
 2980TIP3    H2 8884   4.283   0.632   3.257  0.7050  0.3047 -0.0097
 2981TIP3   OH2 8885   1.602   7.259   0.140 -0.0794 -0.0932 -0.3616
 2981TIP3    H1 8886   1.625   7.282   0.049  1.1371  0.3158  0.0304
 2981TIP3    H2 8887   1.534   7.192   0.131  0.5659 -0.6232 -1.5898
 2982TIP3   OH2 8888   7.682   7.408   6.621  0.2974  0.2133 -0.6390
 2982TIP3    H1 8889   7.608   7.377   6.567 -3.3323  1.8980  2.8324
 2982TIP3    H2 8890   7.697   7.337   6.683  1.4636  0.0111 -1.1333
 2983TIP3   OH2 8891   5.144   0.320   4.089 -0.0978 -0.1358 -0.5753
 2983TIP3    H1 8892   5.136   0.404   4.133  0.3976  0.2558 -1.2201
 2983TIP3    H2 8893   5.113   0.256   4.154  1.0782  0.3707  0.5173
 2984TIP3   OH2 8894   4.175   6.762   3.710 -0.0192 -0.1617  0.6618
 2984TIP3    H1 8895   4.253   6.795   3.665  1.8926 -3.1020  1.5675
 2984TIP3    H2 8896   4.114   6.741   3.640  0.0436  1.8936 -0.0803
 2985TIP3   OH2 8897   0.825   0.505   3.975  0.3889  0.0877  0.2200
 2985TIP3    H1 8898   0.736   0.540   3.971 -0.3417 -1.7415 -0.5702
 2985TIP3    H2 8899   0.868   0.538   3.896 -0.4579 -1.1821 -0.7998
 2986TIP3   OH2 8900   3.479   2.092   3.731 -0.2771  0.4712 -0.0031
 2986TIP3    H1 8901   3.417   2.027   3.698 -0.0328 -0.1187  0.6490
 2986TIP3    H2 8902   3.541   2.040   3.783 -1.0163  1.4119  1.9054
 2987TIP3   OH2 8903   3.889   4.974   5.726  0.1818  0.0552  0.1168
 2987TIP3    H1 8904   3.957   5.008   5.784 -0.0569 -0.9874  1.0588
 2987TIP3    H2 8905   3.888   4.880   5.745 -0.7346 -0.1101 -0.7172
 2988TIP3   OH2 8906   1.278   5.330   1.470 -0.6180 -0.1209 -0.2688
 2988TIP3    H1 8907   1.298   5.237   1.475  1.4100  0.3111  0.6346
 2988TIP3    H2 8908   1.358   5.370   1.437 -1.6094  1.2828 -1.1032
 2989TIP3   OH2 8909   4.611   0.987   1.792  0.3399  0.5480 -0.0635
 2989TIP3    H1 8910   4.614   1.055   1.725  0.0660  1.3670  0.7389
 2989TIP3    H2 8911   4.522   0.992   1.828 -0.9497 -2.5830 -2.3322
 2990TIP3   OH2 8912   6.517   7.431   3.975 -0.0803  0.0490 -0.2529
 2990TIP3    H1 8913   6.546   7.341   3.987  0.5684  0.3215  0.2945
 2990TIP3    H2 8914   6.597   7.482   3.971 -0.3214  0.3719 -2.8989
 2991TIP3   OH2 8915   0.570   1.702   6.351  0.5961 -0.5809  0.3156
 2991TIP3    H1 8916   0.655   1.684   6.391 -0.2025 -0.7246  2.0040
 2991TIP3    H2 8917   0.565   1.798   6.348  0.5075 -0.5673  0.8998
 2992TIP3   OH2 8918   6.579   2.829   6.050 -0.0907  0.0271  0.1851
 2992TIP3    H1 8919   6.521   2.759   6.019  0.8846 -1.0849  0.7865
 2992TIP3    H2 8920   6.663   2.809   6.009  0.0553  1.2426 -0.1424
 2993TIP3   OH2 8921   1.689   2.225   5.737  0.0734 -0.5449 -0.1402
 2993TIP3    H1 8922   1.728   2.218   5.824 -2.3816 -0.2139  1.0958
 2993TIP3    H2 8923   1.714   2.313   5.707 -1.6570  0.6927  1.7308
 2994TIP3   OH2 8924   6.740   5.304   6.607  0.2319  0.3785 -0.0938
 2994TIP3    H1 8925   6.693   5.330   6.527 -0.3063  1.0617  0.4367
 2994TIP3    H2 8926   6.672   5.265   6.662  0.7565 -0.8469 -0.2855
 2995TIP3   OH2 8927   7.334   3.254   2.688 -0.4396  0.0299  0.6976
 2995TIP3    H1 8928   7.429   3.266   2.681 -0.2088 -0.4941  2.3589
 2995TIP3    H2 8929   7.298   3.342   2.678  0.2299  0.2464  0.1326
 2996TIP3   OH2 8930   6.877   3.930   4.758 -0.1910  0.0359  0.2044
 2996TIP3    H1 8931   6.833   3.889   4.833 -1.8629  1.7811  0.2614
 2996TIP3    H2 8932   6.820   4.003   4.734  0.3708 -0.3550 -2.6871
 2997TIP3   OH2 8933   6.566   5.377   0.054  0.4831  0.2117 -0.2759
 2997TIP3    H1 8934   6.627   5.381  -0.020 -0.1562  1.9396 -0.7573
 2997TIP3    H2 8935   6.504   5.308   0.030  0.2412  0.7928 -1.4103
 2998TIP3   OH2 8936   7.977   6.718   0.632  0.4270  0.0059 -0.3468
 2998TIP3    H1 8937   7.995   6.769   0.710 -1.1043  0.8595 -0.4987
 2998TIP3    H2 8938   7.881   6.718   0.625  0.4661 -1.2772 -1.4267
 2999TIP3   OH2 8939   2.174   5.055   2.031 -0.1612 -0.2947  0.2521
 2999TIP3    H1 8940   2.126   4.975   2.010  0.5303 -0.5487 -0.3949
 2999TIP3    H2 8941   2.108   5.125   2.026 -0.4604 -0.6316 -0.6706
 3000TIP3   OH2 8942   2.289   3.975   0.920 -0.5564 -0.4941  0.2048
 3000TIP3    H1 8943   2.246   3.889   0.924 -0.4448 -0.6031 -0.7941
 3000TIP3    H2 8944   2.228   4.034   0.963 -0.5219 -1.1122  1.1341
 3001TIP3   OH2 8945   2.040   6.220   0.775 -0.2415  0.0958  0.2000
 3001TIP3    H1 8946   2.111   6.238   0.712  1.6095 -1.9090  1.5713
 3001TIP3    H2 8947   2.001   6.139   0.744 -1.6978  0.9449 -0.2750
 3002TIP3   OH2 8948   7.585   5.129   6.535 -0.4868  0.0034  0.2412
 3002TIP3    H1 8949   7.625   5.053   6.494  0.5264 -0.7112  2.3919
 3002TIP3    H2 8950   7.580   5.195   6.466  0.9063 -1.1866 -1.0485
 3003TIP3   OH2 8951   7.536   0.917   3.759 -0.0922  0.3815  0.2103
 3003TIP3    H1 8952   7.451   0.958   3.778 -0.0549  0.1068  1.0393
 3003TIP3    H2 8953   7.559   0.947   3.671  0.0040  2.2665  0.8292
 3004TIP3   OH2 8954   5.392   7.071   4.168  0.6731  0.2609 -0.0198
 3004TIP3    H1 8955   5.407   7.008   4.097  0.4907  0.5698 -0.3347
 3004TIP3    H2 8956   5.319   7.125   4.137  0.7416  0.5431  0.3067
 3005TIP3   OH2 8957   0.625   5.471   2.045  0.2391  0.8248 -0.1319
 3005TIP3    H1 8958   0.535   5.459   2.014  0.4824  0.7792 -0.8384
 3005TIP3    H2 8959   0.677   5.475   1.965  1.0585 -0.5681  0.3023
 3006TIP3   OH2 8960   2.921   1.787   2.208 -0.2319  0.2871 -0.0437
 3006TIP3    H1 8961   2.843   1.824   2.248  0.8015  1.6419  0.7805
 3006TIP3    H2 8962   2.980   1.769   2.281  1.2531  1.7612 -0.8269
 3007TIP3   OH2 8963   3.781   1.078   2.898 -1.1407  0.2163  0.0636
 3007TIP3    H1 8964   3.846   1.037   2.955 -0.8041 -0.1887 -0.5936
 3007TIP3    H2 8965   3.770   1.016   2.827 -0.7551  1.1762 -0.8637
 3008TIP3   OH2 8966   1.579   1.308   5.703 -0.1384  0.3745 -0.5964
 3008TIP3    H1 8967   1.569   1.396   5.741  1.5687  0.1213  0.5233
 3008TIP3    H2 8968   1.644   1.319   5.634  1.5427 -0.3193  0.8186
 3009TIP3   OH2 8969   2.155   4.923   4.358 -0.0250  0.4216  0.1215
 3009TIP3    H1 8970   2.237   4.914   4.309 -0.0194  0.6071  0.0959
 3009TIP3    H2 8971   2.129   4.833   4.377  0.3899  0.3739  0.4761
 3010TIP3   OH2 8972   1.110   7.673   1.022 -0.1813  0.2324 -0.3459
 3010TIP3    H1 8973   1.187   7.639   1.067  0.1807  1.3634 -0.0733
 3010TIP3    H2 8974   1.080   7.601   0.968 -1.4228 -1.6776  2.6195
 3011TIP3   OH2 8975   3.315   6.725   0.829 -0.1553  0.0048 -0.0820
 3011TIP3    H1 8976   3.303   6.678   0.912 -1.2974  0.0180 -0.2203
 3011TIP3    H2 8977   3.403   6.761   0.834  0.0691 -0.6419  0.8018
 3012TIP3   OH2 8978   5.697   5.255   1.199 -0.3418  0.1599 -0.0136
 3012TIP3    H1 8979   5.711   5.279   1.107  0.4396 -0.7120 -0.1381
 3012TIP3    H2 8980   5.759   5.310   1.248 -1.1160  0.9966  0.0587
 3013TIP3   OH2 8981   6.546   1.809   5.828 -0.0329  0.1837  0.4423
 3013TIP3    H1 8982   6.532   1.774   5.916 -0.4971 -2.7555 -0.7112
 3013TIP3    H2 8983   6.636   1.785   5.807 -0.4825 -0.7199 -0.5172
 3014TIP3   OH2 8984   2.203   5.127   4.583 -0.4015 -0.1588 -0.6702
 3014TIP3    H1 8985   2.230   5.074   4.508  1.2297  2.5291 -2.1203
 3014TIP3    H2 8986   2.147   5.195   4.545  0.7911  1.4970  0.4553
 3015TIP3   OH2 8987   2.478   1.883   3.915 -0.4583  0.8911 -0.3264
 3015TIP3    H1 8988   2.464   1.896   3.821 -0.9303  2.3720 -0.0781
 3015TIP3    H2 8989   2.567   1.849   3.921 -1.1945 -1.4562 -1.4371
 3016TIP3   OH2 8990   7.463   6.005   1.319  0.1616  0.2032  0.2732
 3016TIP3    H1 8991   7.458   5.943   1.392  0.5626  0.3609  0.4420
 3016TIP3    H2 8992   7.477   6.090   1.361  1.2773  0.1777 -0.0099
 3017TIP3   OH2 8993   0.190   6.971   6.762  0.1720 -0.0377  0.1213
 3017TIP3    H1 8994   0.098   6.955   6.743 -0.2579  0.2978  1.7231
 3017TIP3    H2 8995   0.218   6.896   6.814  0.6521  0.1128  0.0880
 3018TIP3   OH2 8996   6.650   0.031   1.305  0.0054  0.2526  0.4424
 3018TIP3    H1 8997   6.555   0.018   1.306 -0.0221  0.1864 -1.1404
 3018TIP3    H2 8998   6.677   0.003   1.218  1.5416 -0.0783  1.0053
 3019TIP3   OH2 8999   7.507   1.849   3.201  0.1741 -0.5793  0.4604
 3019TIP3    H1 9000   7.591   1.867   3.243  0.1099 -0.3952  0.5086
 3019TIP3    H2 9001   7.513   1.757   3.176 -0.1059 -0.9209  1.5959
 3020TIP3   OH2 9002   5.316   2.695   2.759  0.2249  0.6038  0.3075
 3020TIP3    H1 9003   5.403   2.669   2.728 -0.2133 -1.3809  0.6721
 3020TIP3    H2 9004   5.329   2.715   2.852  0.3296  0.5177  0.3120
 3021TIP3   OH2 9005   1.932   0.809   6.102  0.1512 -0.4681 -0.0749
 3021TIP3    H1 9006   1.899   0.772   6.021  1.4278 -0.3530 -0.6707
 3021TIP3    H2 9007   1.894   0.754   6.171  1.2679 -2.3563 -0.8831
 3022TIP3   OH2 9008   2.938   3.849   2.009 -0.6025 -0.1500 -0.2352
 3022TIP3    H1 9009   2.951   3.909   1.936 -0.4040 -0.8989 -0.8365
 3022TIP3    H2 9010   3.027   3.823   2.035 -0.5824  1.2747  1.3009
 3023TIP3   OH2 9011   0.786   7.727   5.860 -0.0483  0.0927  0.5102
 3023TIP3    H1 9012   0.857   7.705   5.920 -0.3429 -2.2529  0.0806
 3023TIP3    H2 9013   0.821   7.707   5.773 -1.0702 -0.7227  0.2676
 3024TIP3   OH2 9014   1.134   0.317   2.518 -0.2718  0.4875  0.1249
 3024TIP3    H1 9015   1.054   0.275   2.484  0.8039 -1.8553  0.3376
 3024TIP3    H2 9016   1.204   0.286   2.461  0.8644  0.4499  1.4869
 3025TIP3   OH2 9017   0.808   6.985   5.825  0.4858  0.7065  0.1253
 3025TIP3    H1 9018   0.836   7.051   5.763  0.6835  1.5794  1.1158
 3025TIP3    H2 9019   0.846   7.012   5.909  1.0733 -0.9717  0.4529
 3026TIP3   OH2 9020   3.476   7.187   4.528 -0.3395  0.5898  0.2391
 3026TIP3    H1 9021   3.564   7.189   4.489 -0.6624 -1.0716 -0.6493
 3026TIP3    H2 9022   3.487   7.232   4.612  1.4752 -0.0267  0.3838
 3027TIP3   OH2 9023   8.122   0.937   5.744  0.4098 -0.2776 -0.4483
 3027TIP3    H1 9024   8.132   1.031   5.726  0.1996 -0.0722  0.4354
 3027TIP3    H2 9025   8.027   0.923   5.741  0.3987 -0.3252  0.0317
 3028TIP3   OH2 9026   4.241   1.547   2.388 -0.6265  0.2519  0.1871
 3028TIP3    H1 9027   4.332   1.523   2.408 -0.4088 -0.8299 -1.7676
 3028TIP3    H2 9028   4.238   1.642   2.399  0.7342  0.2890  0.3873
 3029TIP3   OH2 9029   3.985   3.133   3.205  0.0135  0.2234  0.0675
 3029TIP3    H1 9030   4.021   3.062   3.151 -0.6748  0.1092 -0.2505
 3029TIP3    H2 9031   3.908   3.163   3.157  0.1047  0.9653  0.3708
 3030TIP3   OH2 9032   7.174   4.639   5.334  0.0233  0.2966  0.3462
 3030TIP3    H1 9033   7.131   4.702   5.276  0.6079 -0.6984 -1.2428
 3030TIP3    H2 9034   7.248   4.686   5.371  0.4725  0.5718 -0.8433
 3031TIP3   OH2 9035   4.665   3.267   1.695 -0.4384  0.3001 -0.1974
 3031TIP3    H1 9036   4.670   3.310   1.610 -1.7389  0.6445 -0.1182
 3031TIP3    H2 9037   4.582   3.220   1.693 -0.9244  1.0451  1.2064
 3032TIP3   OH2 9038   4.725   3.007   6.496 -0.3143 -0.3252 -0.3530
 3032TIP3    H1 9039   4.769   3.028   6.578 -1.0135  0.4964 -0.1803
 3032TIP3    H2 9040   4.743   2.914   6.483 -0.3341 -0.5069  0.8084
 3033TIP3   OH2 9041   7.309   3.079   5.189 -0.2198 -0.0270  0.1800
 3033TIP3    H1 9042   7.217   3.101   5.178 -0.6533  0.3886  3.5069
 3033TIP3    H2 9043   7.336   3.129   5.267  2.4951 -1.0193 -0.0292
 3034TIP3   OH2 9044   3.542   5.992   3.200  0.1457 -0.0497 -0.2470
 3034TIP3    H1 9045   3.490   6.042   3.136 -0.1687 -0.2263 -0.1338
 3034TIP3    H2 9046   3.490   5.913   3.216  1.0292 -0.7910 -1.0271
 3035TIP3   OH2 9047   7.558   1.185   0.338 -0.3787 -0.4551  0.2215
 3035TIP3    H1 9048   7.510   1.242   0.277 -1.0802 -1.2784 -0.0149
 3035TIP3    H2 9049   7.639   1.163   0.292 -0.5903 -0.5062 -0.1271
 3036TIP3   OH2 9050   7.596   3.373   6.274 -0.5725  0.3751 -0.3193
 3036TIP3    H1 9051   7.607   3.391   6.181 -1.4303  0.1238 -0.4777
 3036TIP3    H2 9052   7.646   3.442   6.318  0.2277  0.2255 -0.9592
 3037TIP3   OH2 9053   3.665   1.272   5.997 -0.1137  0.1485  0.1485
 3037TIP3    H1 9054   3.639   1.341   5.936 -2.2597 -0.8035 -0.0802
 3037TIP3    H2 9055   3.638   1.191   5.954  2.0915 -0.8724  0.5435
 3038TIP3   OH2 9056   4.771   0.733   3.917 -0.0923  0.3315 -0.0485
 3038TIP3    H1 9057   4.858   0.723   3.956 -1.1849  0.9768  2.8152
 3038TIP3    H2 9058   4.717   0.667   3.962 -1.6621  1.7985  0.3328
 3039TIP3   OH2 9059   3.594   2.827   0.710 -0.3275 -0.1182 -0.2982
 3039TIP3    H1 9060   3.518   2.867   0.751  0.0320  0.7743 -0.4802
 3039TIP3    H2 9061   3.624   2.762   0.773  1.1160  2.2251  1.6345
 3040TIP3   OH2 9062   1.991   4.608   6.629 -0.1739 -0.2748 -0.3196
 3040TIP3    H1 9063   1.960   4.697   6.647  1.6894  0.1873  0.8638
 3040TIP3    H2 9064   1.982   4.562   6.712 -1.0560 -1.2021 -0.9062
 3041TIP3   OH2 9065   2.611   0.901   5.663  0.8758 -0.0545  0.5478
 3041TIP3    H1 9066   2.588   0.811   5.639 -0.8676 -0.2057  2.5141
 3041TIP3    H2 9067   2.690   0.892   5.715  1.0473 -0.3776  0.2425
 3042TIP3   OH2 9068   6.452   1.327   2.120  0.1083  0.1949 -0.1656
 3042TIP3    H1 9069   6.540   1.305   2.150 -0.8293 -0.7238  2.1374
 3042TIP3    H2 9070   6.465   1.399   2.058  2.3332  1.3630  1.5220
 3043TIP3   OH2 9071   5.284   0.710   0.520  0.5274 -0.1184  0.1432
 3043TIP3    H1 9072   5.203   0.741   0.559  1.4427  2.4267  0.1713
 3043TIP3    H2 9073   5.265   0.619   0.496 -2.5403  0.5683 -0.4982
 3044TIP3   OH2 9074   5.742   7.631   3.200 -0.2769 -0.5701 -0.3723
 3044TIP3    H1 9075   5.799   7.708   3.201  0.6441 -1.2436  0.4412
 3044TIP3    H2 9076   5.662   7.661   3.158 -0.0106  0.8851  0.1205
 3045TIP3   OH2 9077   2.196   5.472   6.253  0.1552  0.1409  0.1125
 3045TIP3    H1 9078   2.244   5.538   6.302  0.0052  0.0449  0.3973
 3045TIP3    H2 9079   2.218   5.389   6.296 -1.0537  0.2030  0.9179
 3046TIP3   OH2 9080   1.276   7.092   0.798 -0.1704  0.1673 -0.0608
 3046TIP3    H1 9081   1.339   7.025   0.773 -1.0295 -0.7492  0.1479
 3046TIP3    H2 9082   1.295   7.110   0.890 -0.0474  0.0818 -0.0700
 3047TIP3   OH2 9083   5.961   2.465   4.987 -0.2934 -0.0124 -0.1965
 3047TIP3    H1 9084   5.950   2.491   4.895 -0.1824  1.6937  0.2308
 3047TIP3    H2 9085   5.917   2.380   4.994 -1.5612  0.4991 -1.5200
 3048TIP3   OH2 9086   3.976   2.741   6.042  0.3446 -0.2601 -0.0413
 3048TIP3    H1 9087   3.914   2.772   6.108  1.5937  0.0267  1.0176
 3048TIP3    H2 9088   4.033   2.815   6.025  0.1675 -0.3880 -1.3291
 3049TIP3   OH2 9089   6.349   1.708   3.431 -0.2205 -0.1822 -0.0172
 3049TIP3    H1 9090   6.385   1.641   3.372  0.4142 -1.0097  1.2691
 3049TIP3    H2 9091   6.378   1.791   3.392  0.9829 -0.7449 -0.3679
 3050TIP3   OH2 9092   3.479   0.344   3.370 -0.1928 -0.8366  0.2526
 3050TIP3    H1 9093   3.558   0.371   3.324 -1.9667  3.2043 -0.8261
 3050TIP3    H2 9094   3.421   0.310   3.301 -0.5202 -0.8335  0.5229
 3051TIP3   OH2 9095   0.119   6.571   5.989 -0.7698 -0.2966  0.1203
 3051TIP3    H1 9096   0.118   6.663   5.964  0.7828 -0.9602 -2.9506
 3051TIP3    H2 9097   0.165   6.569   6.073  0.2720  1.6480 -0.3464
 3052TIP3   OH2 9098   1.765   0.780   6.543 -0.8294 -0.0272  0.3606
 3052TIP3    H1 9099   1.683   0.827   6.554 -0.3830  1.0440 -0.6318
 3052TIP3    H2 9100   1.828   0.827   6.598 -0.8033 -0.6120  0.8282
 3053TIP3   OH2 9101   7.985   0.622   5.879 -0.6649 -0.4835  0.0118
 3053TIP3    H1 9102   8.068   0.617   5.927 -0.1051  0.5465 -0.8139
 3053TIP3    H2 9103   7.936   0.693   5.922 -0.4125  0.0343 -0.5398
 3054TIP3   OH2 9104   5.039   1.236   4.450  0.1054 -0.3015  0.0890
 3054TIP3    H1 9105   5.088   1.161   4.416 -1.3212 -1.6579  0.9273
 3054TIP3    H2 9106   4.972   1.198   4.507 -0.6895  1.6145  0.5178
 3055TIP3   OH2 9107   1.150   2.659   3.371 -0.0692  0.0307 -0.7298
 3055TIP3    H1 9108   1.214   2.668   3.442 -1.2327 -0.5315  0.4362
 3055TIP3    H2 9109   1.182   2.586   3.318 -0.3807 -1.0895  0.5833
 3056TIP3   OH2 9110   3.483   1.354   2.376 -0.2131  0.7165 -0.0461
 3056TIP3    H1 9111   3.449   1.296   2.308  0.8692 -0.4649  0.3694
 3056TIP3    H2 9112   3.563   1.310   2.406 -0.9450  0.9092  2.3800
 3057TIP3   OH2 9113   2.518   6.568   0.404 -0.5601  0.1333 -0.2861
 3057TIP3    H1 9114   2.499   6.542   0.494  0.9350 -2.1793 -0.5568
 3057TIP3    H2 9115   2.492   6.492   0.351 -0.2483  0.9563 -1.6600
 3058TIP3   OH2 9116   6.414   6.421   1.765  0.5982 -0.1855  0.0048
 3058TIP3    H1 9117   6.344   6.409   1.829  0.6268 -1.4650 -0.1809
 3058TIP3    H2 9118   6.495   6.411   1.815  0.6618  0.7515  0.1153
 3059TIP3   OH2 9119   3.888   3.428   4.101  0.1991 -0.0698 -0.2325
 3059TIP3    H1 9120   3.830   3.358   4.072  0.1255 -0.3454  0.5768
 3059TIP3    H2 9121   3.921   3.399   4.185  0.5522  0.6491 -0.1170
 3060TIP3   OH2 9122   3.180   4.822   6.464  0.5977  0.1144 -0.3672
 3060TIP3    H1 9123   3.084   4.828   6.461  0.7094  2.7205 -1.6929
 3060TIP3    H2 9124   3.200   4.739   6.421 -1.0554 -1.0944  1.0412
 3061TIP3   OH2 9125   2.079   0.557   2.185 -0.3276  0.5214  0.1026
 3061TIP3    H1 9126   2.064   0.585   2.275  0.4917  0.8142  0.1571
 3061TIP3    H2 9127   2.046   0.630   2.132 -0.2257  0.6246  0.1811
 3062TIP3   OH2 9128   1.404   4.446   3.640 -0.0595  0.5207 -0.0686
 3062TIP3    H1 9129   1.324   4.468   3.687  0.2511  0.7997  0.3331
 3062TIP3    H2 9130   1.378   4.447   3.547 -0.3109  1.5137  0.0067
 3063TIP3   OH2 9131   6.628   0.087   6.551 -0.2453  0.0895  0.0815
 3063TIP3    H1 9132   6.588   0.004   6.578  1.5910 -0.4334  1.4847
 3063TIP3    H2 9133   6.623   0.087   6.456  0.3931 -2.0540 -0.0082
 3064TIP3   OH2 9134   1.224   0.467   4.615 -0.0071  0.4578  0.2915
 3064TIP3    H1 9135   1.136   0.497   4.639  0.0606  1.0387 -0.1627
 3064TIP3    H2 9136   1.242   0.510   4.532  0.5896  0.1006  0.2325
 3065TIP3   OH2 9137   4.822   3.423   3.182 -0.2645  0.1757  0.4174
 3065TIP3    H1 9138   4.764   3.418   3.105 -1.5125  0.8076  1.2762
 3065TIP3    H2 9139   4.809   3.511   3.216  0.4209 -0.0334  1.2476
 3066TIP3   OH2 9140   2.998   4.804   4.761  1.0084 -0.5313  0.2193
 3066TIP3    H1 9141   3.020   4.732   4.701  2.2226 -0.3204  0.3856
 3066TIP3    H2 9142   2.909   4.785   4.790  0.0377 -0.1923 -2.3038
 3067TIP3   OH2 9143   7.961   3.469   4.054 -0.1991 -0.0022  0.4284
 3067TIP3    H1 9144   7.962   3.431   3.966 -0.4227  1.4889 -0.2588
 3067TIP3    H2 9145   7.927   3.400   4.110  0.0583 -1.0238 -0.6365
 3068TIP3   OH2 9146   7.106   3.114   3.818 -0.3457  0.2426 -0.2287
 3068TIP3    H1 9147   7.018   3.141   3.793  0.0142  2.6345  0.7541
 3068TIP3    H2 9148   7.161   3.138   3.744 -0.2129  1.0598  0.1197
 3069TIP3   OH2 9149   6.491   2.602   0.383  0.3458 -0.8659 -0.0520
 3069TIP3    H1 9150   6.413   2.604   0.327  0.3263 -0.2956 -0.0057
 3069TIP3    H2 9151   6.456   2.588   0.471  0.2039  0.4000  0.1143
 3070TIP3   OH2 9152   5.346   2.163   1.823 -0.2851 -0.3388  0.5021
 3070TIP3    H1 9153   5.355   2.258   1.819 -0.3778 -0.3240  0.6423
 3070TIP3    H2 9154   5.306   2.146   1.908 -0.6218 -0.4771  0.3182
 3071TIP3   OH2 9155   6.929   5.523   3.622 -0.3930 -0.7748 -0.7104
 3071TIP3    H1 9156   7.002   5.463   3.641  0.6809  0.4701 -0.7732
 3071TIP3    H2 9157   6.919   5.575   3.701 -0.0870  0.1884 -1.2867
 3072TIP3   OH2 9158   0.726   4.467   6.572 -0.4362 -0.3031  0.1957
 3072TIP3    H1 9159   0.716   4.511   6.488 -2.7819 -3.2944 -1.2612
 3072TIP3    H2 9160   0.638   4.467   6.610  0.0887 -1.2027  1.4935
 3073TIP3   OH2 9161   0.098   5.351   1.182  0.1906 -0.1974  0.4325
 3073TIP3    H1 9162   0.076   5.305   1.262 -0.4902 -1.3138 -0.3671
 3073TIP3    H2 9163   0.191   5.371   1.189 -0.4696  2.6492  2.9324
 3074TIP3   OH2 9164   5.526   1.161   5.679 -0.4523 -0.5109  0.0825
 3074TIP3    H1 9165   5.605   1.114   5.705  0.2406  0.1843 -0.7331
 3074TIP3    H2 9166   5.463   1.091   5.659  1.2787 -1.2689 -3.4281
 3075TIP3   OH2 9167   3.667   2.877   3.351 -0.6273  0.1383  0.2991
 3075TIP3    H1 9168   3.667   2.970   3.328 -0.9299 -0.4117 -2.1815
 3075TIP3    H2 9169   3.759   2.852   3.349 -0.6746 -0.0243 -1.0807
 3076TIP3   OH2 9170   3.283   2.308   6.180  0.0258 -0.7201  0.6780
 3076TIP3    H1 9171   3.228   2.236   6.213 -0.9851  0.2797  1.2616
 3076TIP3    H2 9172   3.349   2.319   6.248 -1.5865  0.8124  2.0957
 3077TIP3   OH2 9173   3.932   3.310   3.409  0.9070 -0.2085  0.5113
 3077TIP3    H1 9174   3.956   3.331   3.500  1.4288 -1.1498  0.6045
 3077TIP3    H2 9175   4.014   3.284   3.368  0.5823 -0.3008 -0.0875
 3078TIP3   OH2 9176   6.300   2.559   5.627 -0.5616  0.1551  0.2607
 3078TIP3    H1 9177   6.322   2.541   5.535 -0.2308  0.0327  0.3648
 3078TIP3    H2 9178   6.324   2.479   5.673  1.5763  1.0861  0.8486
 3079TIP3   OH2 9179   5.259   2.226   4.276  0.5635  0.5239  0.6835
 3079TIP3    H1 9180   5.234   2.283   4.348  1.6643 -0.4690  1.8834
 3079TIP3    H2 9181   5.276   2.141   4.317  0.0833 -0.3789 -0.8986
 3080TIP3   OH2 9182   8.298   7.497   0.878 -0.2467  0.7323 -0.0154
 3080TIP3    H1 9183   8.251   7.423   0.916 -2.1544  1.2942 -1.1484
 3080TIP3    H2 9184   8.283   7.569   0.939 -0.0246  0.6859  0.0980
 3081TIP3   OH2 9185   4.807   1.654   3.310 -0.2335  0.1877 -0.1218
 3081TIP3    H1 9186   4.815   1.590   3.240  0.5400  0.1487 -0.0094
 3081TIP3    H2 9187   4.836   1.737   3.270  0.2270  0.1620  0.1498
 3082TIP3   OH2 9188   2.712   4.889   4.690  0.3880 -0.1343  0.3044
 3082TIP3    H1 9189   2.732   4.957   4.754 -0.7628  1.9080 -1.3445
 3082TIP3    H2 9190   2.621   4.907   4.665  0.5293 -1.3823 -1.2520
 3083TIP3   OH2 9191   2.282   7.620   2.707  0.3725  0.4177  0.2076
 3083TIP3    H1 9192   2.196   7.612   2.749 -0.5199  0.2441 -1.5563
 3083TIP3    H2 9193   2.300   7.714   2.707 -0.9967  0.7249 -1.5920
 3084TIP3   OH2 9194   7.006   0.604   3.357  0.2791 -0.3128  0.4598
 3084TIP3    H1 9195   7.017   0.610   3.262 -0.3208 -0.2932  0.3886
 3084TIP3    H2 9196   6.938   0.538   3.369  0.6944 -0.6656  0.9006
 3085TIP3   OH2 9197   7.104   5.321   3.694 -0.1638 -0.1041  0.5964
 3085TIP3    H1 9198   7.142   5.314   3.781  0.5895  0.1653  0.2960
 3085TIP3    H2 9199   7.074   5.232   3.674 -0.7681 -0.0761  1.3052
 3086TIP3   OH2 9200   0.586   2.105   0.563  0.1701 -0.1547  0.2651
 3086TIP3    H1 9201   0.503   2.061   0.583  0.0358 -1.6363 -2.9456
 3086TIP3    H2 9202   0.566   2.198   0.571 -2.1644 -0.4195 -1.3718
 3087TIP3   OH2 9203   0.215   4.475   4.375 -0.1337  0.3761  0.3229
 3087TIP3    H1 9204   0.128   4.445   4.350 -0.3674  1.7936 -0.7036
 3087TIP3    H2 9205   0.200   4.554   4.427  0.5208  0.1403  0.8937
 3088TIP3   OH2 9206   7.643   5.911   4.769 -0.1904 -0.9647  0.0591
 3088TIP3    H1 9207   7.704   5.869   4.830  0.6443  0.1929  0.0459
 3088TIP3    H2 9208   7.691   5.985   4.734 -1.1296 -0.8501 -1.0335
 3089TIP3   OH2 9209   2.401   5.371   1.166  0.0759  0.4868  0.2399
 3089TIP3    H1 9210   2.392   5.424   1.086  2.2747 -1.9814 -1.8173
 3089TIP3    H2 9211   2.339   5.299   1.154  0.6354 -0.0619  0.5748
 3090TIP3   OH2 9212   7.696   5.466   1.139  0.0328 -0.5337 -0.1219
 3090TIP3    H1 9213   7.733   5.378   1.141 -2.4306 -1.7239 -1.7951
 3090TIP3    H2 9214   7.669   5.480   1.048  0.2095  1.9223  0.1176
 3091TIP3   OH2 9215   7.527   2.771   2.543 -0.5052 -0.6772  0.0560
 3091TIP3    H1 9216   7.520   2.683   2.580 -0.8498 -0.1823  1.2236
 3091TIP3    H2 9217   7.463   2.772   2.472 -0.4855 -1.3773  0.0160
 3092TIP3   OH2 9218   0.840   7.224   1.897  0.3828 -0.3536 -0.4151
 3092TIP3    H1 9219   0.776   7.271   1.843  0.3137 -0.3682 -0.3475
 3092TIP3    H2 9220   0.925   7.255   1.867  0.3212  0.7463  0.4673
 3093TIP3   OH2 9221   3.395   0.549   2.905 -0.1249 -0.0229 -0.6101
 3093TIP3    H1 9222   3.331   0.536   2.975  0.2187  0.2934 -0.2320
 3093TIP3    H2 9223   3.365   0.492   2.834 -1.1489  0.5603 -0.6563
 3094TIP3   OH2 9224   2.222   1.493   1.966 -0.3919 -0.2650 -0.2479
 3094TIP3    H1 9225   2.178   1.420   2.011 -1.5084  0.1989 -0.5590
 3094TIP3    H2 9226   2.150   1.547   1.933  0.4283  0.5676 -0.6900
 3095TIP3   OH2 9227   0.773   4.871   4.184 -0.2300 -0.5084 -0.5134
 3095TIP3    H1 9228   0.818   4.861   4.268 -0.0049 -1.4498 -0.7356
 3095TIP3    H2 9229   0.742   4.783   4.163  0.4163 -0.4580 -1.8005
 3096TIP3   OH2 9230   5.990   2.785   6.412  0.0486  0.0125  0.0724
 3096TIP3    H1 9231   5.928   2.855   6.431  1.0150  0.5984  1.1926
 3096TIP3    H2 9232   6.025   2.806   6.325 -0.4008  0.3496 -0.0286
 3097TIP3   OH2 9233   3.250   1.301   3.897 -0.3124 -0.4741 -0.1699
 3097TIP3    H1 9234   3.200   1.373   3.937 -0.9386 -1.9209  1.8299
 3097TIP3    H2 9235   3.325   1.290   3.956  1.0911  0.0599 -1.7904
 3098TIP3   OH2 9236   0.438   0.251   2.064  0.0304 -0.4393 -0.2897
 3098TIP3    H1 9237   0.515   0.250   2.120  0.9694  1.4947 -1.4311
 3098TIP3    H2 9238   0.369   0.211   2.116  1.6241 -1.5998  1.0150
 3099TIP3   OH2 9239   4.532   4.136   4.620 -0.1097  0.3773  0.4472
 3099TIP3    H1 9240   4.514   4.226   4.646  0.4694  0.4288  0.7021
 3099TIP3    H2 9241   4.517   4.135   4.525  1.5361  1.1972  0.1339
 3100TIP3   OH2 9242   5.580   3.931   5.624 -0.0301 -0.0914  0.4544
 3100TIP3    H1 9243   5.656   3.953   5.570  0.3254  1.3482  1.4691
 3100TIP3    H2 9244   5.530   4.013   5.630 -0.9892 -0.6858  0.8618
 3101TIP3   OH2 9245   4.589   7.631   2.468 -0.6758 -0.0314  0.0706
 3101TIP3    H1 9246   4.521   7.674   2.417  0.4445 -0.1519 -1.6353
 3101TIP3    H2 9247   4.646   7.702   2.498  0.7110 -0.1385 -2.0488
 3102TIP3   OH2 9248   3.070   6.654   5.228 -0.1475  0.2769  0.3582
 3102TIP3    H1 9249   3.120   6.659   5.147  0.6242 -0.9135  0.7371
 3102TIP3    H2 9250   3.100   6.729   5.280  0.5319  0.1317  0.1834
 3103TIP3   OH2 9251   5.121   1.576   4.258 -0.1832  0.0741  0.5153
 3103TIP3    H1 9252   5.119   1.643   4.326  0.6097 -1.2481  1.9247
 3103TIP3    H2 9253   5.203   1.528   4.274 -0.6230 -1.1136 -0.5609
 3104TIP3   OH2 9254   7.112   3.145   2.796 -0.3388  0.2466  0.4556
 3104TIP3    H1 9255   7.200   3.164   2.765 -0.4579 -1.2693 -0.9696
 3104TIP3    H2 9256   7.056   3.204   2.746 -0.3575 -0.8954 -0.9488
 3105TIP3   OH2 9257   5.872   2.644   0.267  0.4281  0.6357  0.0151
 3105TIP3    H1 9258   5.902   2.714   0.326 -0.6554  1.1751 -0.0510
 3105TIP3    H2 9259   5.857   2.688   0.184  1.5795 -0.0540 -0.5814
 3106TIP3   OH2 9260   2.724   6.140   5.079 -0.3150  0.1252  1.0176
 3106TIP3    H1 9261   2.773   6.097   5.149  0.1750  2.3991  2.1484
 3106TIP3    H2 9262   2.765   6.225   5.069 -0.0522 -0.2743 -2.4381
 3107TIP3   OH2 9263   6.558   7.066   0.691 -0.3130  0.0661 -0.5336
 3107TIP3    H1 9264   6.487   7.064   0.627  0.1377  0.7406 -1.0626
 3107TIP3    H2 9265   6.513   7.058   0.776 -1.1212  1.5580 -0.7895
 3108TIP3   OH2 9266   5.089   5.111   0.757  0.6717 -0.4967 -0.0223
 3108TIP3    H1 9267   5.009   5.070   0.789  1.4851 -1.6087  0.6699
 3108TIP3    H2 9268   5.099   5.190   0.811 -0.3422  0.0912 -0.6465
 3109TIP3   OH2 9269   3.699   6.905   3.214  0.5275 -0.3948  0.1296
 3109TIP3    H1 9270   3.644   6.981   3.238 -2.2133 -1.4996 -2.1122
 3109TIP3    H2 9271   3.700   6.851   3.293 -1.5855 -0.2535  0.3205
 3110TIP3   OH2 9272   2.996   7.505   2.497  0.0909  0.3928 -0.4384
 3110TIP3    H1 9273   2.917   7.464   2.462  1.0418 -0.0442 -2.1429
 3110TIP3    H2 9274   3.057   7.433   2.511  0.5330  0.8298 -0.0736
 3111TIP3   OH2 9275   6.713   0.235   2.185 -0.0129  0.4293 -0.4187
 3111TIP3    H1 9276   6.700   0.325   2.214  0.0886 -0.0370  1.1608
 3111TIP3    H2 9277   6.625   0.202   2.167  0.0498  1.4829 -3.2684
 3112TIP3   OH2 9278   6.676   3.707   6.094  0.3835  0.4132 -0.1029
 3112TIP3    H1 9279   6.592   3.663   6.110  0.4977 -0.2610 -1.2830
 3112TIP3    H2 9280   6.720   3.706   6.179 -0.6039  0.3449  0.4212
 3113TIP3   OH2 9281   4.235   3.837   1.367  0.2474  0.2886 -0.0209
 3113TIP3    H1 9282   4.146   3.847   1.401 -0.1936  0.9677 -1.3039
 3113TIP3    H2 9283   4.289   3.825   1.445 -0.7734  1.3219  0.8806
 3114TIP3   OH2 9284   3.129   4.423   1.332 -0.7623  0.7835  0.0394
 3114TIP3    H1 9285   3.189   4.429   1.258 -0.6416  2.0584  0.2264
 3114TIP3    H2 9286   3.053   4.375   1.298 -0.4296  0.7929 -0.7149
 3115TIP3   OH2 9287   6.779   0.090   0.179  0.4508 -0.0666 -0.1891
 3115TIP3    H1 9288   6.778  -0.003   0.157  0.4816  0.1552 -1.1844
 3115TIP3    H2 9289   6.836   0.130   0.114  0.4318  0.6542  0.2197
 3116TIP3   OH2 9290   2.913   1.870   5.744  0.1023  0.0070 -0.1966
 3116TIP3    H1 9291   2.924   1.921   5.664 -0.3039 -0.1983 -0.3900
 3116TIP3    H2 9292   2.857   1.797   5.717 -1.5502  0.8906  0.6620
 3117TIP3   OH2 9293   7.204   1.434   2.445 -0.2673  0.5432  0.3536
 3117TIP3    H1 9294   7.232   1.478   2.364  0.0377  0.0058  0.1645
 3117TIP3    H2 9295   7.152   1.360   2.415 -1.1755  1.0342  0.6844
 3118TIP3   OH2 9296   1.785   1.223   4.419 -0.5430 -0.0204 -0.1551
 3118TIP3    H1 9297   1.860   1.246   4.473  0.8317 -2.2159 -1.0162
 3118TIP3    H2 9298   1.726   1.298   4.427  1.3983  1.4637  1.1216
 3119TIP3   OH2 9299   6.766   5.522   2.254  0.3209  0.3683 -0.3817
 3119TIP3    H1 9300   6.684   5.479   2.278  1.5616 -1.9726 -0.0592
 3119TIP3    H2 9301   6.773   5.595   2.315  0.6088 -2.0592  2.7415
 3120TIP3   OH2 9302   6.629   7.513   6.483 -0.1254 -0.0737 -0.2464
 3120TIP3    H1 9303   6.545   7.481   6.449  0.2712 -0.0496 -1.2959
 3120TIP3    H2 9304   6.694   7.453   6.447  0.3320  0.0752  0.3243
 3121TIP3   OH2 9305   0.370   2.525   5.553  0.0750  0.1479  0.2564
 3121TIP3    H1 9306   0.409   2.544   5.467 -0.4180  1.1945  0.2483
 3121TIP3    H2 9307   0.301   2.462   5.534  1.0380 -0.9005  0.1253
 3122TIP3   OH2 9308   1.147   2.901   0.134 -0.4563  0.3414  0.2029
 3122TIP3    H1 9309   1.170   2.951   0.212 -2.0603  1.9849 -0.3065
 3122TIP3    H2 9310   1.073   2.948   0.096 -1.5022 -1.9595 -0.8264
 3123TIP3   OH2 9311   3.898   6.859   0.522  0.4687 -0.2984  0.8376
 3123TIP3    H1 9312   3.940   6.859   0.608 -0.3481  0.1355  1.2532
 3123TIP3    H2 9313   3.888   6.767   0.500 -0.3102 -0.4512  1.7329
 3124TIP3   OH2 9314   0.260   0.674   0.343 -0.6815  0.5341 -0.6264
 3124TIP3    H1 9315   0.311   0.599   0.374 -0.6466  1.2916  1.3020
 3124TIP3    H2 9316   0.323   0.745   0.334 -1.0047  0.8359 -0.5661
 3125TIP3   OH2 9317   1.832   2.143   6.619  0.1748 -0.2928 -0.1121
 3125TIP3    H1 9318   1.899   2.179   6.561  0.3963 -0.5399 -0.0127
 3125TIP3    H2 9319   1.750   2.181   6.587  0.3197 -0.2532 -0.4476
 3126TIP3   OH2 9320   3.708   3.700   0.753 -0.5067  0.6361  0.0244
 3126TIP3    H1 9321   3.726   3.743   0.670 -0.5469  1.0010  0.2056
 3126TIP3    H2 9322   3.721   3.768   0.819 -2.8510  1.0172  0.1546
 3127TIP3   OH2 9323   3.364   0.162   1.392 -0.2711  0.7129 -0.1395
 3127TIP3    H1 9324   3.352   0.208   1.475 -1.7436  0.7769 -0.3583
 3127TIP3    H2 9325   3.455   0.132   1.394 -0.4619  0.1262  1.7944
 3128TIP3   OH2 9326   1.227   3.927   0.914 -0.0582 -1.0241  0.5857
 3128TIP3    H1 9327   1.246   3.899   1.004 -0.5273 -1.1549  0.6447
 3128TIP3    H2 9328   1.133   3.946   0.914  0.5323  2.6203  1.1303
 3129TIP3   OH2 9329   5.476   3.372   6.623 -0.5002  0.6783 -0.2729
 3129TIP3    H1 9330   5.447   3.442   6.564 -0.8684 -1.5443 -2.9105
 3129TIP3    H2 9331   5.399   3.353   6.677 -0.4719  2.0723  0.3110
 3130TIP3   OH2 9332   2.189   3.672   2.070  0.1214  0.7939  0.1774
 3130TIP3    H1 9333   2.248   3.721   2.128  0.2936 -0.8821  1.4969
 3130TIP3    H2 9334   2.247   3.617   2.018 -0.1015  1.5931 -0.9576
 3131TIP3   OH2 9335   4.265   5.144   0.177 -0.2504  0.0364 -0.1304
 3131TIP3    H1 9336   4.191   5.120   0.234 -0.0939 -2.1802 -0.7610
 3131TIP3    H2 9337   4.261   5.239   0.172 -0.9865  0.2447  2.6181
 3132TIP3   OH2 9338   1.433   7.405   1.462 -0.5292  0.3295  0.0918
 3132TIP3    H1 9339   1.381   7.482   1.481 -1.4525 -0.6353  1.6789
 3132TIP3    H2 9340   1.413   7.385   1.370  0.8588  2.7464 -0.8419
 3133TIP3   OH2 9341   4.942   0.325   5.960 -0.7238 -0.6430  0.4540
 3133TIP3    H1 9342   4.852   0.303   5.936 -0.3571 -1.2853 -0.3720
 3133TIP3    H2 9343   4.992   0.245   5.944  0.2774  0.1757 -0.6780
 3134TIP3   OH2 9344   3.973   5.556   5.267 -0.2996 -0.6688  0.2373
 3134TIP3    H1 9345   3.939   5.633   5.312 -1.0958 -0.8277 -0.0681
 3134TIP3    H2 9346   3.980   5.489   5.334  0.1868 -0.3923  0.4619
 3135TIP3   OH2 9347   7.044   3.750   2.587  0.3234 -0.0197 -0.4253
 3135TIP3    H1 9348   6.952   3.727   2.595  0.4049 -0.6287 -1.1056
 3135TIP3    H2 9349   7.087   3.671   2.554  0.9905  0.4179 -0.6587
 3136TIP3   OH2 9350   5.297   5.226   2.723 -0.4890 -0.2971 -0.0853
 3136TIP3    H1 9351   5.286   5.317   2.751  0.2313 -0.0958 -0.4262
 3136TIP3    H2 9352   5.300   5.231   2.628 -2.0867 -0.8770 -0.1912
 3137TIP3   OH2 9353   7.812   1.224   5.901  0.1869  0.2157  0.6589
 3137TIP3    H1 9354   7.732   1.171   5.892 -0.7462  1.8813 -2.1486
 3137TIP3    H2 9355   7.783   1.304   5.945  0.9720 -0.3127  2.2090
 3138TIP3   OH2 9356   2.520   1.728   5.468  0.3423 -0.4637 -0.1856
 3138TIP3    H1 9357   2.568   1.772   5.398  1.4468 -2.1785 -0.5645
 3138TIP3    H2 9358   2.488   1.647   5.428 -2.5480  0.3690  0.1912
 3139TIP3   OH2 9359   8.169   2.138   6.638  0.3487  0.5436  0.3660
 3139TIP3    H1 9360   8.086   2.091   6.638 -0.0552  1.1988  1.5247
 3139TIP3    H2 9361   8.188   2.154   6.731  1.1143  1.5200  0.0667
 3140TIP3   OH2 9362   2.459   1.558   3.574  0.2917 -0.5742  0.2452
 3140TIP3    H1 9363   2.437   1.633   3.518 -0.2673 -0.2623  0.8773
 3140TIP3    H2 9364   2.518   1.594   3.640 -0.1000 -0.6455  0.6417
 3141TIP3   OH2 9365   4.215   2.372   1.495  0.3386 -0.3983 -0.3652
 3141TIP3    H1 9366   4.252   2.285   1.506 -0.3566 -0.8812 -1.6736
 3141TIP3    H2 9367   4.161   2.386   1.573 -0.1269 -1.4430 -0.4906
 3142TIP3   OH2 9368   2.397   3.126   6.488  0.3053  0.2595 -0.5537
 3142TIP3    H1 9369   2.322   3.090   6.440  1.2342 -0.3996 -1.5576
 3142TIP3    H2 9370   2.391   3.088   6.575  0.1682 -0.7904 -1.0057
 3143TIP3   OH2 9371   0.296   4.860   4.180 -0.1841 -0.1914 -0.1001
 3143TIP3    H1 9372   0.293   4.937   4.123  0.9327  0.3187  0.5160
 3143TIP3    H2 9373   0.386   4.856   4.211 -0.5227 -1.0766  0.8114
 3144TIP3   OH2 9374   6.915   7.771   5.587  0.4703 -0.5067 -0.3131
 3144TIP3    H1 9375   6.908   7.715   5.510  0.4563 -0.4214 -0.3743
 3144TIP3    H2 9376   6.988   7.734   5.637  1.6802  0.4991 -1.2572
 3145TIP3   OH2 9377   3.742   2.222   6.329  0.1277  0.2049 -0.1716
 3145TIP3    H1 9378   3.707   2.178   6.407  0.8771 -2.0281 -1.0261
 3145TIP3    H2 9379   3.683   2.196   6.258  0.1636  1.2164 -0.5861
 3146TIP3   OH2 9380   5.502   6.752   4.421 -0.1326  0.0042  0.1643
 3146TIP3    H1 9381   5.444   6.733   4.347 -0.9232  0.6664  0.5875
 3146TIP3    H2 9382   5.479   6.842   4.447 -1.4154 -0.9140  2.5631
 3147TIP3   OH2 9383   7.457   5.316   5.717 -0.2792  0.5482 -0.4737
 3147TIP3    H1 9384   7.384   5.377   5.706  0.4748  1.1908 -2.2858
 3147TIP3    H2 9385   7.462   5.269   5.634  0.4650 -0.5279  0.1545
 3148TIP3   OH2 9386   7.806   6.637   4.246  0.2873  0.2806 -0.2761
 3148TIP3    H1 9387   7.757   6.580   4.187  0.8924 -0.7178  0.1626
 3148TIP3    H2 9388   7.829   6.713   4.192 -1.1917  0.4780 -0.6529
 3149TIP3   OH2 9389   1.764   3.113   5.723  0.0963 -0.3723  0.1171
 3149TIP3    H1 9390   1.710   3.190   5.741 -0.6792 -0.6678 -0.8624
 3149TIP3    H2 9391   1.706   3.053   5.676  0.7810 -1.4280  0.5777
 3150TIP3   OH2 9392   7.892   6.877   2.202 -0.1039 -0.8698 -0.1640
 3150TIP3    H1 9393   7.881   6.972   2.194 -0.2617 -0.9162 -0.5313
 3150TIP3    H2 9394   7.986   6.864   2.214  0.0032 -0.7028 -0.7581
 3151TIP3   OH2 9395   6.219   6.443   1.557  0.6636  0.0268 -0.1714
 3151TIP3    H1 9396   6.139   6.447   1.610  0.1811  1.3292 -0.9493
 3151TIP3    H2 9397   6.290   6.447   1.621  0.1140  2.9435  0.3886
 3152TIP3   OH2 9398   3.822   6.875   5.203  0.4410 -0.3436  0.0064
 3152TIP3    H1 9399   3.780   6.925   5.273  0.5527 -0.1210 -0.0862
 3152TIP3    H2 9400   3.808   6.927   5.124  0.6959 -0.3805 -0.0642
 3153TIP3   OH2 9401   0.317   4.104   2.567 -0.1623 -0.4977  0.5914
 3153TIP3    H1 9402   0.345   4.021   2.605  0.7070 -1.9486 -2.8207
 3153TIP3    H2 9403   0.229   4.117   2.600 -0.9330 -3.6393  0.1087
 3154TIP3   OH2 9404   6.681   0.050   1.867 -0.4359 -0.0747  0.3183
 3154TIP3    H1 9405   6.592   0.023   1.889  0.8370 -2.7110  2.9832
 3154TIP3    H2 9406   6.709  -0.014   1.802  0.2639 -0.8311  1.3341
 3155TIP3   OH2 9407   6.541   6.404   1.052 -0.1674  0.5353  0.1578
 3155TIP3    H1 9408   6.571   6.376   0.965 -0.6330  0.4018  0.0356
 3155TIP3    H2 9409   6.531   6.322   1.101  1.9559  0.7036  0.9810
 3156TIP3   OH2 9410   7.372   7.157   0.891 -0.1760  0.3404 -0.2873
 3156TIP3    H1 9411   7.389   7.170   0.798 -1.0364  0.8450 -0.3885
 3156TIP3    H2 9412   7.335   7.069   0.897  0.1359  0.2040 -0.3903
 3157TIP3   OH2 9413   6.965   0.419   4.754 -0.3036  0.1120 -0.1651
 3157TIP3    H1 9414   7.009   0.404   4.838  2.1864 -1.2965 -1.6132
 3157TIP3    H2 9415   6.915   0.339   4.739  0.4798 -0.2878 -0.6997
 3158TIP3   OH2 9416   1.513   4.131   1.152  0.3050  0.3069 -0.1869
 3158TIP3    H1 9417   1.432   4.175   1.125  0.5666  1.8147  1.3283
 3158TIP3    H2 9418   1.487   4.073   1.223  0.3532 -0.1824 -0.5661
 3159TIP3   OH2 9419   3.130   4.664   5.949 -0.0531 -0.2318  0.0305
 3159TIP3    H1 9420   3.068   4.734   5.930  0.7095  0.9716  1.7047
 3159TIP3    H2 9421   3.162   4.637   5.863 -0.9778  0.8907 -0.7105
 3160TIP3   OH2 9422   5.054   4.243   5.306 -0.1511 -0.4784 -0.0682
 3160TIP3    H1 9423   4.963   4.217   5.294 -0.3448  0.2711 -0.3140
 3160TIP3    H2 9424   5.050   4.316   5.369  0.1425  0.3656 -0.9928
 3161TIP3   OH2 9425   1.167   6.724   2.433 -0.4691  0.4849 -0.3212
 3161TIP3    H1 9426   1.236   6.747   2.495  0.4611 -0.2320 -1.0488
 3161TIP3    H2 9427   1.122   6.650   2.474 -1.2193  1.3240  0.4245
 3162TIP3   OH2 9428   2.133   1.461   5.855  0.0717  0.1804 -0.4888
 3162TIP3    H1 9429   2.217   1.425   5.825 -0.0355 -1.2380  0.8002
 3162TIP3    H2 9430   2.098   1.394   5.914  0.3246  2.7729  2.9013
 3163TIP3   OH2 9431   7.056   0.403   2.747  0.0633  0.1120  0.3835
 3163TIP3    H1 9432   7.034   0.352   2.824  3.2925  1.0435  2.1369
 3163TIP3    H2 9433   6.987   0.468   2.740 -2.4691 -2.4340 -0.0706
 3164TIP3   OH2 9434   7.559   6.911   2.143 -0.2731 -0.5452 -0.5520
 3164TIP3    H1 9435   7.605   6.985   2.182 -0.5327 -0.7277  0.1220
 3164TIP3    H2 9436   7.580   6.916   2.050 -1.2208  1.0605 -0.7261
 3165TIP3   OH2 9437   7.964   6.039   1.299 -0.1371 -0.3451  0.2551
 3165TIP3    H1 9438   8.002   6.006   1.218  0.3956 -0.1327  0.4122
 3165TIP3    H2 9439   7.914   6.116   1.271  0.2024 -0.1596  0.1526
 3166TIP3   OH2 9440   1.006   4.157   2.290 -0.1863 -0.3212  0.0034
 3166TIP3    H1 9441   0.915   4.174   2.265 -0.1286 -0.5303 -0.3545
 3166TIP3    H2 9442   1.040   4.102   2.219  0.2051 -0.2808  0.1607
 3167TIP3   OH2 9443   1.259   5.305   5.141  0.0627  0.1411 -0.5369
 3167TIP3    H1 9444   1.218   5.354   5.070  1.3541  1.6261 -0.3230
 3167TIP3    H2 9445   1.205   5.323   5.218 -0.3686 -0.0708 -0.7915
 3168TIP3   OH2 9446   0.692   4.735   6.482  0.5212 -0.3438 -0.4015
 3168TIP3    H1 9447   0.713   4.765   6.394 -0.0033 -2.9340 -1.5100
 3168TIP3    H2 9448   0.776   4.731   6.527  0.5838  2.9543 -0.0074
 3169TIP3   OH2 9449   7.360   2.035   0.513 -0.8983 -0.7242 -0.0587
 3169TIP3    H1 9450   7.340   1.946   0.485 -1.2618 -0.4687 -0.6426
 3169TIP3    H2 9451   7.305   2.091   0.458 -0.5316 -0.1292  0.1580
 3170TIP3   OH2 9452   0.526   3.304   2.789 -0.1053 -0.1539 -0.3028
 3170TIP3    H1 9453   0.570   3.276   2.710  0.0525  1.3786 -0.8004
 3170TIP3    H2 9454   0.442   3.340   2.758 -0.3964 -0.2938  0.3087
 3171TIP3   OH2 9455   4.921   0.159   5.559  0.4635  0.2725  0.5940
 3171TIP3    H1 9456   4.920   0.248   5.523 -1.9531  0.0071 -0.1438
 3171TIP3    H2 9457   5.008   0.125   5.536  2.1548  2.9780  2.4422
 3172TIP3   OH2 9458   0.234   3.656   3.675  0.8842 -0.5899 -0.1646
 3172TIP3    H1 9459   0.285   3.578   3.693  0.7313 -0.6243  0.1321
 3172TIP3    H2 9460   0.145   3.624   3.660  0.6927 -0.4228  0.5779
 3173TIP3   OH2 9461   4.793   0.456   4.945  0.6182  0.5760  0.0319
 3173TIP3    H1 9462   4.857   0.425   4.880 -0.0441 -0.2761 -0.2380
 3173TIP3    H2 9463   4.727   0.502   4.894  0.4309  0.4651  0.1708
 3174TIP3   OH2 9464   6.772   1.169   3.121 -0.2327  0.0738  0.2103
 3174TIP3    H1 9465   6.776   1.075   3.142 -0.7319  0.0008 -0.0030
 3174TIP3    H2 9466   6.695   1.177   3.064 -0.9659  0.8173  1.2692
 3175TIP3   OH2 9467   8.030   1.887   0.475 -0.0024  0.7390 -0.5703
 3175TIP3    H1 9468   8.095   1.932   0.530  0.0965 -0.9044  0.7305
 3175TIP3    H2 9469   8.035   1.933   0.391  0.1859  3.0386  0.5972
 3176TIP3   OH2 9470   5.474   6.800   2.343 -0.3780 -0.3520 -0.3891
 3176TIP3    H1 9471   5.478   6.861   2.417  1.7955  0.9117 -1.4415
 3176TIP3    H2 9472   5.464   6.856   2.266  1.8238 -1.2598 -1.4064
 3177TIP3   OH2 9473   2.621   1.126   3.429 -0.1922  0.2736 -0.4268
 3177TIP3    H1 9474   2.671   1.195   3.473  0.7179  0.0715 -1.1173
 3177TIP3    H2 9475   2.633   1.143   3.336  2.1116 -2.1640 -0.7160
 3178TIP3   OH2 9476   6.191   2.856   6.615 -0.3888 -0.1455  0.0164
 3178TIP3    H1 9477   6.158   2.820   6.533  0.2589 -0.3687 -0.1512
 3178TIP3    H2 9478   6.185   2.951   6.604  1.4401 -0.1163 -1.0357
 3179TIP3   OH2 9479   5.660   7.235   1.322  0.0733 -0.3557 -0.0526
 3179TIP3    H1 9480   5.697   7.150   1.297  1.0743 -0.2363  0.9287
 3179TIP3    H2 9481   5.668   7.289   1.244  0.3161 -0.8758 -0.3916
 3180TIP3   OH2 9482   2.249   2.232   3.421 -0.2392 -0.1354  0.5251
 3180TIP3    H1 9483   2.238   2.189   3.336 -0.4855  0.5018  0.2262
 3180TIP3    H2 9484   2.343   2.233   3.435 -0.1216  0.6605 -0.2298
 3181TIP3   OH2 9485   3.769   0.672   5.240 -0.0580 -0.2054 -0.3506
 3181TIP3    H1 9486   3.706   0.699   5.306 -0.3126 -0.3567 -0.5290
 3181TIP3    H2 9487   3.741   0.717   5.160  1.7398  2.0515  0.1837
 3182TIP3   OH2 9488   1.954   2.543   3.719 -0.6155  0.3250  0.1715
 3182TIP3    H1 9489   1.990   2.488   3.649 -0.0183 -0.8704  1.3760
 3182TIP3    H2 9490   1.929   2.624   3.675  1.0897  0.1734 -1.1820
 3183TIP3   OH2 9491   2.869   6.522   2.866 -0.0328 -0.0396 -1.1984
 3183TIP3    H1 9492   2.804   6.495   2.931  1.7075  0.1387  0.7418
 3183TIP3    H2 9493   2.899   6.440   2.826 -0.9307 -0.1735 -1.6246
 3184TIP3   OH2 9494   5.401   6.680   1.280 -0.2322  0.3178  0.1928
 3184TIP3    H1 9495   5.452   6.749   1.323 -2.7018  2.2082  0.3168
 3184TIP3    H2 9496   5.356   6.636   1.352  0.3387 -0.6012 -0.0008
 3185TIP3   OH2 9497   7.888   6.864   4.098  1.1288  0.6430 -0.6593
 3185TIP3    H1 9498   7.829   6.906   4.036  0.0184 -1.6890 -1.2747
 3185TIP3    H2 9499   7.912   6.934   4.159  1.9924  2.9699 -3.4198
 3186TIP3   OH2 9500   1.039   0.892   3.170 -0.3266 -0.2489 -0.1040
 3186TIP3    H1 9501   0.988   0.929   3.098 -1.4769 -1.9087 -0.2194
 3186TIP3    H2 9502   1.079   0.813   3.133  3.4654  1.6043 -0.3694
 3187TIP3   OH2 9503   5.168   0.849   5.273 -0.2152 -0.4146  0.2260
 3187TIP3    H1 9504   5.110   0.899   5.329  0.2136  0.1141  0.2089
 3187TIP3    H2 9505   5.246   0.904   5.264  0.2345 -1.0525  0.1475
 3188TIP3   OH2 9506   1.308   7.716   3.429 -0.3057  0.6491  0.0589
 3188TIP3    H1 9507   1.273   7.792   3.382  1.3074  2.0429  1.0131
 3188TIP3    H2 9508   1.262   7.717   3.513  1.2849  1.9746  0.9721
 3189TIP3   OH2 9509   5.428   0.444   2.984  0.1375  1.0312  0.0971
 3189TIP3    H1 9510   5.441   0.349   2.987 -0.6220  0.9455  2.2851
 3189TIP3    H2 9511   5.406   0.462   2.892 -1.8649 -1.2478  0.0419
 3190TIP3   OH2 9512   7.944   7.304   2.717 -0.5999 -0.6688  0.1604
 3190TIP3    H1 9513   8.004   7.371   2.749 -1.4252  0.6269 -0.9158
 3190TIP3    H2 9514   7.994   7.258   2.649 -0.4087 -0.4033  0.1193
 3191TIP3   OH2 9515   2.507   3.587   4.351  0.7880 -0.8240 -0.3373
 3191TIP3    H1 9516   2.564   3.625   4.285  1.2928  0.2928  0.7112
 3191TIP3    H2 9517   2.558   3.515   4.390  1.0447 -0.5525 -0.1731
 3192TIP3   OH2 9518   1.281   1.716   4.675 -0.3740 -0.3247 -0.3490
 3192TIP3    H1 9519   1.232   1.753   4.748 -0.5620 -1.1724 -0.0388
 3192TIP3    H2 9520   1.372   1.744   4.690 -0.3607 -0.7446  0.3773
 3193TIP3   OH2 9521   6.628   7.279   5.130 -0.2087 -0.0980  0.5781
 3193TIP3    H1 9522   6.617   7.374   5.127  0.0012 -0.0820  0.1299
 3193TIP3    H2 9523   6.673   7.258   5.048  0.0134 -0.5494  0.8120
 3194TIP3   OH2 9524   3.144   4.334   6.710  0.1362 -0.0188  0.1060
 3194TIP3    H1 9525   3.115   4.396   6.643 -0.4351 -0.5538 -0.1546
 3194TIP3    H2 9526   3.165   4.388   6.786  0.8591  0.6075 -0.5203
 3195TIP3   OH2 9527   6.537   7.068   6.136  0.3321 -0.0761  0.4146
 3195TIP3    H1 9528   6.508   7.128   6.205  0.8315  0.3689  0.2481
 3195TIP3    H2 9529   6.557   6.986   6.182 -1.0333 -0.3634  0.5488
 3196TIP3   OH2 9530   7.198   0.388   4.239  0.0387 -0.4212  0.1231
 3196TIP3    H1 9531   7.205   0.484   4.247  0.9292 -0.5750  1.7286
 3196TIP3    H2 9532   7.287   0.359   4.220  0.2171 -1.0499  1.7146
 3197TIP3   OH2 9533   3.833   7.361   0.377 -0.2676  0.5409  0.0662
 3197TIP3    H1 9534   3.889   7.324   0.309 -1.4972  1.4329 -1.4937
 3197TIP3    H2 9535   3.853   7.454   0.377  1.0007  0.3411  2.2314
 3198TIP3   OH2 9536   4.105   7.174   6.129  0.1155 -0.2131 -0.3232
 3198TIP3    H1 9537   4.096   7.104   6.065  1.6447 -0.7434 -0.0120
 3198TIP3    H2 9538   4.045   7.150   6.200 -0.6598 -0.2722 -0.9852
 3199TIP3   OH2 9539   3.075   4.150   2.288 -0.2355  0.5001  0.6520
 3199TIP3    H1 9540   3.119   4.145   2.203 -0.2941  0.7786  0.6058
 3199TIP3    H2 9541   2.982   4.138   2.269 -0.0879 -1.2035  0.8688
 3200TIP3   OH2 9542   3.950   3.274   4.322 -0.3737  0.4719  0.2127
 3200TIP3    H1 9543   3.993   3.234   4.398 -1.4196  0.8348  1.0156
 3200TIP3    H2 9544   3.857   3.252   4.333 -0.5940  0.9003 -0.7386
 3201TIP3   OH2 9545   3.399   4.946   2.501  0.1704 -0.0776 -0.1278
 3201TIP3    H1 9546   3.468   4.887   2.471 -0.0656 -0.0918 -0.6511
 3201TIP3    H2 9547   3.327   4.931   2.440 -0.5862 -0.6347  0.8834
 3202TIP3   OH2 9548   0.964   3.380   0.350 -0.0195  0.2225 -0.4056
 3202TIP3    H1 9549   0.996   3.292   0.366  0.6575  0.6819  0.9841
 3202TIP3    H2 9550   0.902   3.397   0.422 -0.4415  0.7412 -0.8744
 3203TIP3   OH2 9551   7.332   7.638   3.705  0.4256 -0.3867  0.0345
 3203TIP3    H1 9552   7.414   7.593   3.723  0.0834 -0.4313  1.6244
 3203TIP3    H2 9553   7.264   7.572   3.719 -0.0673  0.4972  2.1901
 3204TIP3   OH2 9554   3.162   7.595   6.561  0.1127 -0.3312 -0.0258
 3204TIP3    H1 9555   3.199   7.636   6.640 -0.3801  1.1245 -0.5262
 3204TIP3    H2 9556   3.136   7.668   6.506 -0.5916 -1.3380 -1.0701
 3205TIP3   OH2 9557   5.166   5.661   0.692 -0.7290 -0.0124  0.5429
 3205TIP3    H1 9558   5.140   5.739   0.742  2.2198  1.0923  0.5082
 3205TIP3    H2 9559   5.188   5.695   0.605  0.2130 -0.9346  0.4069
 3206TIP3   OH2 9560   0.742   1.031   0.149  0.2011  0.1330  0.1890
 3206TIP3    H1 9561   0.753   1.094   0.079 -1.8315  1.0491  0.6225
 3206TIP3    H2 9562   0.772   1.077   0.228 -0.0137  0.0678  0.3093
 3207TIP3   OH2 9563   8.071   1.867   4.006 -0.0583 -0.3194  0.2139
 3207TIP3    H1 9564   8.100   1.951   4.042 -0.5557  0.4858 -1.1622
 3207TIP3    H2 9565   8.149   1.812   4.010  1.2741  1.2515 -1.7821
 3208TIP3   OH2 9566   0.245   1.283   0.021 -0.1120 -0.1518 -0.1459
 3208TIP3    H1 9567   0.326   1.254   0.063  1.9843  1.3843 -2.8177
 3208TIP3    H2 9568   0.188   1.206   0.023  1.6399 -1.4910  1.2598
 3209TIP3   OH2 9569   7.722   3.977   3.200 -0.0303 -0.2750  0.3638
 3209TIP3    H1 9570   7.697   3.897   3.153 -2.3663  1.4440 -1.5488
 3209TIP3    H2 9571   7.689   3.964   3.289  0.1176 -1.6066  0.2492
 3210TIP3   OH2 9572   0.419   1.645   0.287  0.5259  0.8777 -0.3827
 3210TIP3    H1 9573   0.495   1.614   0.238  0.8951 -0.0514  0.7423
 3210TIP3    H2 9574   0.435   1.738   0.300  1.4596  0.6998 -0.1912
 3211TIP3   OH2 9575   8.211   4.156   1.321 -0.4004 -0.1997 -0.5454
 3211TIP3    H1 9576   8.148   4.163   1.393 -0.2546 -1.0338 -0.3217
 3211TIP3    H2 9577   8.235   4.246   1.301 -1.1787  0.0924 -0.1982
 3212TIP3   OH2 9578   0.285   1.891   4.809  0.4078  0.5056 -0.3575
 3212TIP3    H1 9579   0.372   1.929   4.821 -0.2149  2.0461 -0.3751
 3212TIP3    H2 9580   0.235   1.961   4.765 -0.4917 -0.7953 -1.5131
 3213TIP3   OH2 9581   5.433   6.258   3.812  0.1306 -0.1493 -0.0458
 3213TIP3    H1 9582   5.358   6.198   3.815  1.3823 -1.7324  1.7227
 3213TIP3    H2 9583   5.510   6.202   3.818  1.3870  1.5690  1.1074
 3214TIP3   OH2 9584   6.854   6.609   6.299  0.0310  0.0602 -0.0822
 3214TIP3    H1 9585   6.876   6.517   6.315  1.7785  0.5219  0.3769
 3214TIP3    H2 9586   6.893   6.656   6.372 -0.3895  1.2324 -0.5890
 3215TIP3   OH2 9587   4.291   1.808   2.439  0.2348 -0.6455  0.0971
 3215TIP3    H1 9588   4.347   1.793   2.515 -1.4457  1.1685  1.8344
 3215TIP3    H2 9589   4.301   1.901   2.419 -1.1832 -0.5537 -0.3321
 3216TIP3   OH2 9590   7.553   1.034   0.570  0.5934 -0.1677 -0.1765
 3216TIP3    H1 9591   7.579   1.127   0.568 -1.4125  0.4952  1.1621
 3216TIP3    H2 9592   7.504   1.021   0.489  2.1388 -0.5090 -1.0903
 3217TIP3   OH2 9593   2.918   1.810   6.368 -0.0880 -0.2533 -0.2097
 3217TIP3    H1 9594   3.008   1.836   6.386  0.8353 -2.6035 -1.0955
 3217TIP3    H2 9595   2.867   1.847   6.441  1.8345 -0.2109  1.1733
 3218TIP3   OH2 9596   2.386   1.012   0.304  0.5557  0.3582 -0.2467
 3218TIP3    H1 9597   2.475   1.002   0.340  0.0837  0.0980  0.8857
 3218TIP3    H2 9598   2.381   1.104   0.278  1.7674 -0.0222 -2.0605
 3219TIP3   OH2 9599   3.055   7.193   3.793 -0.0112 -0.1456  0.3485
 3219TIP3    H1 9600   3.047   7.288   3.802 -0.8164  0.1342 -2.3580
 3219TIP3    H2 9601   3.101   7.165   3.872  0.1899  2.4708  1.2540
 3220TIP3   OH2 9602   6.689   7.487   1.470  0.3838 -0.1339  0.2777
 3220TIP3    H1 9603   6.781   7.513   1.471  0.1767  0.6937 -0.8639
 3220TIP3    H2 9604   6.689   7.399   1.434  0.5661  0.7347 -1.9964
 3221TIP3   OH2 9605   1.194   6.489   1.656  0.5610  0.0736 -0.3167
 3221TIP3    H1 9606   1.232   6.503   1.569 -0.0616 -0.3576 -0.6698
 3221TIP3    H2 9607   1.127   6.422   1.642  0.6321 -0.1837  0.5524
 3222TIP3   OH2 9608   2.398   3.775   2.751 -0.0294  0.4793 -1.1408
 3222TIP3    H1 9609   2.388   3.682   2.731  0.0714  0.1259  0.3400
 3222TIP3    H2 9610   2.308   3.808   2.761 -0.0641 -0.1823  1.3046
 3223TIP3   OH2 9611   6.391   3.115   2.777  0.1258  0.2101  0.0101
 3223TIP3    H1 9612   6.464   3.173   2.754  0.4723 -0.0808  0.3633
 3223TIP3    H2 9613   6.367   3.141   2.867 -0.5429  0.6467 -0.2849
 3224TIP3   OH2 9614   7.449   3.037   0.572  0.5916  0.2734  0.5628
 3224TIP3    H1 9615   7.523   3.026   0.631  0.1780 -1.1435  0.8668
 3224TIP3    H2 9616   7.483   3.016   0.485  0.3961 -1.1751  0.8087
 3225TIP3   OH2 9617   1.052   3.824   1.380 -0.1953  0.2645  0.1325
 3225TIP3    H1 9618   1.083   3.809   1.469 -0.7853 -0.8388  0.1706
 3225TIP3    H2 9619   0.974   3.769   1.372 -1.1910  1.7001 -0.4895
 3226TIP3   OH2 9620   1.665   1.096   5.913  0.5338  0.8165 -0.4872
 3226TIP3    H1 9621   1.612   1.169   5.882  0.1855  0.1534 -1.5381
 3226TIP3    H2 9622   1.664   1.103   6.008 -2.8374 -0.0740 -0.3235
 3227TIP3   OH2 9623   7.496   7.474   0.466  0.0102 -0.4980 -0.1279
 3227TIP3    H1 9624   7.406   7.449   0.442  0.0455 -0.0096 -0.7877
 3227TIP3    H2 9625   7.542   7.482   0.382  0.3553  0.4466  0.1362
 3228TIP3   OH2 9626   1.275   2.981   0.549  0.5571  0.0015  0.2835
 3228TIP3    H1 9627   1.360   2.973   0.506  0.5803 -2.2257  0.6210
 3228TIP3    H2 9628   1.296   3.015   0.636  1.0945 -0.2781  0.2695
 3229TIP3   OH2 9629   1.113   0.163   4.737 -0.3551  0.2255 -0.1214
 3229TIP3    H1 9630   1.090   0.234   4.678  0.9336  0.2293 -0.6362
 3229TIP3    H2 9631   1.168   0.105   4.685  0.6250  0.1175  0.9939
 3230TIP3   OH2 9632   6.171   4.909   2.337 -0.4064 -0.0507 -0.2875
 3230TIP3    H1 9633   6.086   4.903   2.294 -0.0358 -1.5179 -0.8799
 3230TIP3    H2 9634   6.165   4.987   2.392 -3.1283 -1.5665  1.8176
 3231TIP3   OH2 9635   2.869   6.130   3.008  0.0162 -0.4105  0.7796
 3231TIP3    H1 9636   2.911   6.211   3.038  0.5045 -0.3955  0.0811
 3231TIP3    H2 9637   2.800   6.114   3.073 -0.2407  0.6857  0.8097
 3232TIP3   OH2 9638   1.470   0.934   1.294  0.2118 -0.1182 -0.5535
 3232TIP3    H1 9639   1.390   0.902   1.254  0.8298 -2.6340 -0.0016
 3232TIP3    H2 9640   1.441   0.992   1.364 -1.0321  0.2945 -1.3888
 3233TIP3   OH2 9641   8.087   5.240   3.902  0.2013  0.1080 -0.1558
 3233TIP3    H1 9642   8.054   5.294   3.830 -1.8646 -0.2346  0.4549
 3233TIP3    H2 9643   8.091   5.299   3.977  1.4068  0.2274 -0.2892
 3234TIP3   OH2 9644   7.871   6.859   2.911  0.2108 -0.5277  0.0403
 3234TIP3    H1 9645   7.809   6.898   2.973 -0.0382  1.2289 -1.2313
 3234TIP3    H2 9646   7.949   6.840   2.964 -0.0494  0.7715  0.9360
 3235TIP3   OH2 9647   5.716   4.447   5.187  0.1633 -0.2440  0.1791
 3235TIP3    H1 9648   5.739   4.534   5.220  0.3191  0.0014 -0.5672
 3235TIP3    H2 9649   5.766   4.438   5.106 -0.5412 -0.6742 -0.2113
 3236TIP3   OH2 9650   6.097   2.535   2.060 -0.6846  0.0061 -0.6624
 3236TIP3    H1 9651   6.115   2.443   2.076  1.2372 -0.6875 -5.3006
 3236TIP3    H2 9652   6.006   2.536   2.029 -0.8883 -0.2255 -0.0843
 3237TIP3   OH2 9653   5.637   0.453   3.611 -0.0968  0.1112  0.3989
 3237TIP3    H1 9654   5.708   0.408   3.565 -0.0731  0.4736  0.0749
 3237TIP3    H2 9655   5.612   0.524   3.552  0.5503  1.1664  1.3417
 3238TIP3   OH2 9656   5.366   6.793   6.495 -0.0372 -0.2345 -0.7513
 3238TIP3    H1 9657   5.353   6.888   6.492  1.8948  0.1725  1.4381
 3238TIP3    H2 9658   5.290   6.760   6.544  0.4446  0.4912  0.5183
 3239TIP3   OH2 9659   6.172   5.187   2.708  0.0867 -0.4365  0.1444
 3239TIP3    H1 9660   6.201   5.104   2.746 -1.7980 -1.3887 -0.4225
 3239TIP3    H2 9661   6.095   5.211   2.759  1.4095  1.7765  1.2718
 3240TIP3   OH2 9662   1.034   6.289   1.913 -0.1068  0.0755  0.5340
 3240TIP3    H1 9663   1.018   6.196   1.898  0.0365 -0.3617  2.6775
 3240TIP3    H2 9664   1.127   6.301   1.892 -0.1280 -0.2636  0.2413
 3241TIP3   OH2 9665   1.620   3.315   1.121 -0.1642 -0.3423 -0.1774
 3241TIP3    H1 9666   1.709   3.319   1.085 -0.2886 -1.2166 -0.5992
 3241TIP3    H2 9667   1.625   3.367   1.201  0.3383  0.9084 -0.9938
 3242TIP3   OH2 9668   1.921   7.307   6.524  0.2085  0.2614  0.2553
 3242TIP3    H1 9669   1.991   7.280   6.465 -1.3544  0.8266 -1.9896
 3242TIP3    H2 9670   1.842   7.266   6.488 -0.8395  0.7247  1.9085
 3243TIP3   OH2 9671   7.897   1.974   3.513 -0.0581 -0.0874 -0.0463
 3243TIP3    H1 9672   7.934   2.062   3.522  0.7302 -0.3741 -0.4341
 3243TIP3    H2 9673   7.861   1.955   3.600 -0.2633  0.6258  0.0343
 3244TIP3   OH2 9674   3.053   0.633   3.621  0.2780  0.1209  0.1355
 3244TIP3    H1 9675   3.102   0.550   3.624 -0.3496 -0.2538  0.2233
 3244TIP3    H2 9676   2.962   0.608   3.639 -0.0819  0.7056 -0.8077
 3245TIP3   OH2 9677   5.126   7.417   3.887  0.0314  0.0910  0.1118
 3245TIP3    H1 9678   5.146   7.509   3.907  0.1668  0.4339 -1.4868
 3245TIP3    H2 9679   5.191   7.393   3.821 -1.0204 -0.6635 -0.6692
 3246TIP3   OH2 9680   7.210   5.987   6.253  0.1667  0.5067  0.8205
 3246TIP3    H1 9681   7.240   5.944   6.173  1.5091  0.9488  1.0701
 3246TIP3    H2 9682   7.136   6.041   6.225  0.5249  0.5354 -0.0888
 3247TIP3   OH2 9683   5.409   1.958   4.357 -0.1044  0.2043  0.6557
 3247TIP3    H1 9684   5.410   1.922   4.445  0.6755 -1.5859 -0.0391
 3247TIP3    H2 9685   5.490   2.009   4.351  1.1990 -1.7975  0.2056
 3248TIP3   OH2 9686   6.693   5.427   0.801  0.3147  0.0465 -0.3965
 3248TIP3    H1 9687   6.767   5.483   0.827 -0.2064  0.8114 -0.5173
 3248TIP3    H2 9688   6.616   5.484   0.811 -0.3290 -0.9203  0.3261
 3249TIP3   OH2 9689   6.677   2.101   1.931 -0.2107 -0.3133  0.1462
 3249TIP3    H1 9690   6.598   2.144   1.897 -0.1909 -0.7010 -0.3973
 3249TIP3    H2 9691   6.734   2.092   1.855  1.2404  1.8187  0.8600
 3250TIP3   OH2 9692   7.370   7.677   0.574  0.0894 -0.1903 -0.0143
 3250TIP3    H1 9693   7.291   7.640   0.533 -1.6900  1.8784  1.3326
 3250TIP3    H2 9694   7.442   7.624   0.539 -1.9045 -2.4601 -0.9789
 3251TIP3   OH2 9695   1.539   5.404   6.633 -0.5223  0.2678 -0.3700
 3251TIP3    H1 9696   1.542   5.495   6.662 -1.7993  0.8137 -1.7888
 3251TIP3    H2 9697   1.527   5.410   6.538  3.6356 -1.4184 -1.1859
 3252TIP3   OH2 9698   6.529   1.116   1.646  0.3948 -0.0698 -0.6361
 3252TIP3    H1 9699   6.597   1.072   1.595 -1.8452 -1.7085 -2.4398
 3252TIP3    H2 9700   6.552   1.098   1.737  0.1476 -4.4768 -1.1979
 3253TIP3   OH2 9701   5.320   7.466   2.631 -0.3971 -0.2215  0.6106
 3253TIP3    H1 9702   5.400   7.420   2.658  0.0317 -0.6647 -1.2120
 3253TIP3    H2 9703   5.325   7.550   2.676  0.0659 -0.9946  2.0853
 3254TIP3   OH2 9704   2.725   2.894   5.359  0.3935 -0.8681 -0.0336
 3254TIP3    H1 9705   2.719   2.851   5.274  1.6257 -0.2936 -0.4323
 3254TIP3    H2 9706   2.639   2.880   5.399 -0.3589 -0.7605 -1.5501
 3255TIP3   OH2 9707   1.429   7.835   1.493  0.1720 -0.4455 -0.2716
 3255TIP3    H1 9708   1.414   7.880   1.410 -0.3237 -1.2558 -0.6380
 3255TIP3    H2 9709   1.406   7.744   1.475  1.8505 -1.0050  0.2425
 3256TIP3   OH2 9710   5.484   6.503   4.578  0.6449  0.3710 -0.4236
 3256TIP3    H1 9711   5.556   6.517   4.640  0.2893  0.6295 -0.0635
 3256TIP3    H2 9712   5.476   6.585   4.530 -1.0965  1.3433  1.3313
 3257TIP3   OH2 9713   1.640   5.522   1.926  0.0590  0.3361  0.0927
 3257TIP3    H1 9714   1.548   5.547   1.920  0.2855  0.9361 -1.1987
 3257TIP3    H2 9715   1.656   5.470   1.847  0.9031  0.5077  0.1388
 3258TIP3   OH2 9716   3.110   2.261   5.415 -0.0086  0.2879 -0.7797
 3258TIP3    H1 9717   3.160   2.231   5.490 -0.3715 -1.5928 -1.2246
 3258TIP3    H2 9718   3.167   2.323   5.370  1.4869 -0.9802 -0.6846
 3259TIP3   OH2 9719   7.643   1.841   4.958  0.1005 -0.2762  0.4630
 3259TIP3    H1 9720   7.573   1.899   4.927 -0.5792 -1.1927  0.2502
 3259TIP3    H2 9721   7.618   1.817   5.047 -0.0657 -0.9249  0.2445
 3260TIP3   OH2 9722   6.765   4.813   0.575 -0.4104 -0.2738 -0.2946
 3260TIP3    H1 9723   6.800   4.876   0.512 -2.1489  0.4100 -0.6273
 3260TIP3    H2 9724   6.806   4.836   0.658 -0.5820  0.9287 -0.5314
 3261TIP3   OH2 9725   6.212   0.585   5.810  0.2504 -0.2992  0.1592
 3261TIP3    H1 9726   6.277   0.547   5.870  1.3984  1.6902  0.2597
 3261TIP3    H2 9727   6.265   0.627   5.741 -0.9597  0.4642 -0.3364
 3262TIP3   OH2 9728   6.409   6.389   3.560  0.4447  0.6219  0.2165
 3262TIP3    H1 9729   6.375   6.439   3.635 -0.2860  1.4014 -0.6078
 3262TIP3    H2 9730   6.464   6.322   3.599 -0.5317  0.5325  1.5086
 3263TIP3   OH2 9731   8.195   2.803   6.278  0.1200 -0.8742 -0.4345
 3263TIP3    H1 9732   8.128   2.737   6.297 -0.6663 -0.4600 -1.6897
 3263TIP3    H2 9733   8.171   2.878   6.333  0.3596 -1.2108  0.1409
 3264TIP3   OH2 9734   7.966   4.652   1.986 -0.2151  0.0754  0.4685
 3264TIP3    H1 9735   8.022   4.698   1.924 -0.4201  0.4090  0.5270
 3264TIP3    H2 9736   7.999   4.563   1.987  0.1136  0.1946  0.2651
 3265TIP3   OH2 9737   7.358   2.730   3.554 -0.0225  0.2062  0.3505
 3265TIP3    H1 9738   7.343   2.821   3.581 -0.1670  0.7647 -1.4962
 3265TIP3    H2 9739   7.298   2.679   3.608 -1.2399  1.3936  0.1694
 3266TIP3   OH2 9740   1.439   5.418   3.194  0.3785 -0.1743 -0.1328
 3266TIP3    H1 9741   1.410   5.436   3.105 -1.5105 -0.0250  0.4721
 3266TIP3    H2 9742   1.407   5.493   3.245  2.5020  0.3714  0.5061
 3267TIP3   OH2 9743   5.478   1.127   6.530  0.7575  0.1735 -0.2181
 3267TIP3    H1 9744   5.539   1.191   6.495 -0.4828  1.0359 -0.9029
 3267TIP3    H2 9745   5.533   1.056   6.562  2.0564  0.4042 -1.8135
 3268TIP3   OH2 9746   7.683   7.473   0.254  0.1959  0.0230  0.0875
 3268TIP3    H1 9747   7.762   7.431   0.289  0.3561  1.3952  1.5223
 3268TIP3    H2 9748   7.706   7.497   0.164  1.4753  0.5026  0.5213
 3269TIP3   OH2 9749   1.775   6.463   1.173  0.1950  0.4126 -0.6026
 3269TIP3    H1 9750   1.773   6.559   1.177 -0.1677  0.3581  1.6235
 3269TIP3    H2 9751   1.702   6.435   1.228  1.3369 -1.1595  0.1882
 3270TIP3   OH2 9752   5.355   6.314   0.846  0.5951 -0.0393 -0.2680
 3270TIP3    H1 9753   5.359   6.218   0.848 -1.3626 -0.2622 -2.5761
 3270TIP3    H2 9754   5.324   6.339   0.933  0.2208 -1.5672  0.0588
 3271TIP3   OH2 9755   5.720   0.439   5.467 -0.3252 -0.3207 -0.2400
 3271TIP3    H1 9756   5.790   0.411   5.527 -1.4470  1.4148  1.9958
 3271TIP3    H2 9757   5.730   0.381   5.391  3.1647 -0.5166  0.2095
 3272TIP3   OH2 9758   5.057   3.544   3.444  0.0165 -0.2944 -0.5015
 3272TIP3    H1 9759   4.979   3.508   3.487  0.4254  0.3892  0.8778
 3272TIP3    H2 9760   5.029   3.630   3.414  0.1462 -0.1674 -0.2637
 3273TIP3   OH2 9761   1.749   5.752   1.958  0.1301 -0.2369  0.0037
 3273TIP3    H1 9762   1.718   5.661   1.962  0.7100 -0.4220  0.3656
 3273TIP3    H2 9763   1.825   5.749   1.900  0.3449 -0.0406  0.2768
 3274TIP3   OH2 9764   7.143   5.741   5.626  0.3113 -0.4379  0.5967
 3274TIP3    H1 9765   7.070   5.784   5.581 -0.7040 -2.2062  0.4363
 3274TIP3    H2 9766   7.199   5.812   5.655 -0.9397  0.9336 -0.2132
 3275TIP3   OH2 9767   6.089   4.201   2.815  0.2057  0.0488 -0.1490
 3275TIP3    H1 9768   6.037   4.241   2.746  0.2510 -0.2223 -0.3426
 3275TIP3    H2 9769   6.177   4.193   2.777  0.1827 -0.2857 -0.1334
 3276TIP3   OH2 9770   6.765   3.063   2.520 -0.4842  0.2344 -0.1403
 3276TIP3    H1 9771   6.678   3.078   2.483  0.1300  0.9636 -1.3641
 3276TIP3    H2 9772   6.776   3.131   2.586 -0.4704  0.7486 -0.6693
 3277TIP3   OH2 9773   6.952   2.407   2.996  0.2632 -0.2614  0.1302
 3277TIP3    H1 9774   6.903   2.468   3.051 -0.5443  1.0754 -1.9081
 3277TIP3    H2 9775   7.044   2.425   3.017  0.0711  1.9652 -0.5965
 3278TIP3   OH2 9776   2.791   1.324   3.476  0.2838  0.1569  0.0950
 3278TIP3    H1 9777   2.783   1.362   3.388 -0.6673 -1.0129 -0.3337
 3278TIP3    H2 9778   2.864   1.373   3.515  1.6969 -0.2707 -1.8454
 3279TIP3   OH2 9779   2.920   7.147   1.014 -0.1390 -0.4795 -0.3672
 3279TIP3    H1 9780   2.834   7.150   0.971  0.2515  0.5066 -1.1217
 3279TIP3    H2 9781   2.971   7.086   0.961 -1.1962 -3.4047  1.7570
 3280TIP3   OH2 9782   7.852   1.664   2.070 -0.3613  0.5630 -0.1881
 3280TIP3    H1 9783   7.872   1.587   2.016 -4.0730 -0.6116 -0.1463
 3280TIP3    H2 9784   7.838   1.628   2.158  0.9437  1.7983  0.5608
 3281TIP3   OH2 9785   8.183   1.053   3.631 -0.0487  0.2717  0.2112
 3281TIP3    H1 9786   8.200   1.099   3.714  1.3791 -0.2961  0.2633
 3281TIP3    H2 9787   8.237   0.974   3.636 -0.8359 -0.3512 -0.7845
 3282TIP3   OH2 9788   6.831   7.567   4.230 -0.1894  0.1252 -0.4335
 3282TIP3    H1 9789   6.766   7.612   4.285  0.7841 -1.7199  2.4903
 3282TIP3    H2 9790   6.814   7.474   4.244  1.0251 -0.4079 -2.2272
 3283TIP3   OH2 9791   1.086   5.616   3.910 -0.0264  0.0057  0.1523
 3283TIP3    H1 9792   1.103   5.522   3.910 -0.3538 -0.0542  0.2284
 3283TIP3    H2 9793   1.164   5.654   3.950  0.3977 -0.1761 -0.4866
 3284TIP3   OH2 9794   4.860   5.134   6.573 -0.2448  0.4894 -0.3085
 3284TIP3    H1 9795   4.787   5.073   6.583 -0.2441  0.4667 -0.4429
 3284TIP3    H2 9796   4.928   5.083   6.529 -0.6674  0.9196 -1.5077
 3285TIP3   OH2 9797   5.688   3.402   3.734 -0.1596  0.2290 -0.8277
 3285TIP3    H1 9798   5.719   3.491   3.755  0.4083  0.6465 -3.1739
 3285TIP3    H2 9799   5.645   3.411   3.649  0.7771 -1.9146 -1.5976
 3286TIP3   OH2 9800   7.508   2.957   5.793  0.2522  0.3793 -0.4142
 3286TIP3    H1 9801   7.527   2.955   5.699 -0.1482 -0.2914 -0.4859
 3286TIP3    H2 9802   7.413   2.943   5.799  0.3152  0.1524  0.1019
 3287TIP3   OH2 9803   2.031   1.794   2.397  0.1769  0.2431  0.0600
 3287TIP3    H1 9804   2.110   1.750   2.429  1.1502  1.6327 -0.3732
 3287TIP3    H2 9805   2.062   1.879   2.365 -1.7841  1.7637  1.9124
 3288TIP3   OH2 9806   0.983   4.874   0.245  0.5674 -0.5390  0.4726
 3288TIP3    H1 9807   1.032   4.951   0.272  0.2639 -0.2339  0.1644
 3288TIP3    H2 9808   0.895   4.887   0.280  0.1169 -0.0490 -0.7588
 3289TIP3   OH2 9809   5.153   3.263   3.775 -0.5901 -0.3956 -0.6596
 3289TIP3    H1 9810   5.178   3.318   3.700  1.0612 -0.7314 -0.3990
 3289TIP3    H2 9811   5.062   3.287   3.793 -0.2255  1.5704 -1.1433
 3290TIP3   OH2 9812   3.355   1.836   4.364  0.1236  0.5869 -0.1518
 3290TIP3    H1 9813   3.294   1.891   4.316  0.3913  0.3700 -0.7459
 3290TIP3    H2 9814   3.302   1.796   4.433 -0.7775 -0.8145 -1.5887
 3291TIP3   OH2 9815   8.268   6.786  -0.005 -0.4801  0.0622  0.4563
 3291TIP3    H1 9816   8.261   6.694   0.021 -2.3615 -0.0030 -0.1253
 3291TIP3    H2 9817   8.232   6.834   0.070 -2.0377  0.1231 -0.2875
 3292TIP3   OH2 9818   2.523   7.329   6.310 -0.6124  0.5782 -0.2397
 3292TIP3    H1 9819   2.486   7.246   6.340  0.4078  0.0704 -0.3546
 3292TIP3    H2 9820   2.475   7.349   6.230 -0.8137  0.0618 -0.2532
 3293TIP3   OH2 9821   3.581   3.974   5.063 -0.3455 -0.9000  0.0521
 3293TIP3    H1 9822   3.494   3.936   5.055 -1.6888  1.9147  0.2247
 3293TIP3    H2 9823   3.592   4.027   4.984  0.7210 -0.2597  0.6038
 3294TIP3   OH2 9824   6.713   5.650   3.499  0.1147 -0.5943 -0.3224
 3294TIP3    H1 9825   6.723   5.630   3.405  3.6304  3.5002 -1.0955
 3294TIP3    H2 9826   6.786   5.603   3.541  0.9569  0.6943 -0.3068
 3295TIP3   OH2 9827   1.267   4.449   5.446 -0.2771 -0.0287  0.1652
 3295TIP3    H1 9828   1.355   4.474   5.418  1.3438 -2.1937  2.8676
 3295TIP3    H2 9829   1.220   4.429   5.365  2.3627 -0.7792 -1.2760
 3296TIP3   OH2 9830   6.386   6.650   6.283  0.1676  0.8020 -0.2625
 3296TIP3    H1 9831   6.344   6.587   6.224  1.6468  0.8587 -1.4447
 3296TIP3    H2 9832   6.339   6.641   6.365 -2.3774  1.1205 -1.5706
 3297TIP3   OH2 9833   1.277   1.392   1.179  0.6243  0.5271 -0.1701
 3297TIP3    H1 9834   1.370   1.382   1.155  0.3505  1.0650 -1.5418
 3297TIP3    H2 9835   1.244   1.303   1.185  1.0356  0.3463 -0.5287
 3298TIP3   OH2 9836   4.849   4.710   3.721 -0.2058  0.4385  0.1225
 3298TIP3    H1 9837   4.917   4.746   3.664  1.3544 -1.0638  0.9623
 3298TIP3    H2 9838   4.828   4.625   3.682 -1.3095  0.6903  0.1308
 3299TIP3   OH2 9839   4.631   6.177   4.530 -0.4325  0.6620  0.1573
 3299TIP3    H1 9840   4.692   6.107   4.553  0.1866  0.0821 -2.8374
 3299TIP3    H2 9841   4.652   6.247   4.592  0.8475 -0.7799  1.4567
 3300TIP3   OH2 9842   7.075   5.644   6.170 -0.2232 -0.0054  0.5053
 3300TIP3    H1 9843   7.164   5.639   6.203 -0.5927 -0.2504  1.5231
 3300TIP3    H2 9844   7.084   5.656   6.076  0.8882  1.0994  0.7309
 3301TIP3   OH2 9845   2.051   5.891   0.126 -0.1638 -0.1662 -0.2935
 3301TIP3    H1 9846   2.005   5.962   0.172 -3.5319 -2.5284  0.3615
 3301TIP3    H2 9847   2.099   5.845   0.195 -1.5576 -1.0197  0.1667
 3302TIP3   OH2 9848   0.718   6.236   1.797  0.0631 -0.1468 -0.1794
 3302TIP3    H1 9849   0.642   6.231   1.855  0.8587 -2.5345  0.7761
 3302TIP3    H2 9850   0.714   6.156   1.745  2.4714 -0.9253  0.6947
 3303TIP3   OH2 9851   1.476   5.358   1.688 -0.0136 -0.1293  0.1411
 3303TIP3    H1 9852   1.510   5.303   1.758 -0.6591 -0.8287 -0.0865
 3303TIP3    H2 9853   1.404   5.406   1.727  0.1455  0.0849  0.1716
 3304TIP3   OH2 9854   5.031   2.105   1.208 -0.2944 -0.0008  0.1624
 3304TIP3    H1 9855   4.971   2.151   1.267 -0.0711  1.9554 -1.0385
 3304TIP3    H2 9856   5.048   2.021   1.251 -2.2551  0.2361  1.5197
 3305TIP3   OH2 9857   4.768   3.027   4.804 -0.5317  0.5544  0.0565
 3305TIP3    H1 9858   4.706   2.955   4.818  1.9252 -1.5816  0.8367
 3305TIP3    H2 9859   4.791   3.022   4.711 -1.6755  1.5407 -0.3032
 3306TIP3   OH2 9860   4.152   3.919   1.028  0.2447 -0.3544  0.5937
 3306TIP3    H1 9861   4.107   3.954   1.105 -1.2630  0.7198 -0.6939
 3306TIP3    H2 9862   4.228   3.977   1.017 -1.7046  2.1221 -0.9587
 3307TIP3   OH2 9863   8.066   1.068   4.763 -0.1565 -0.0913 -0.5482
 3307TIP3    H1 9864   8.113   1.151   4.761  0.6864 -0.5789 -1.2474
 3307TIP3    H2 9865   8.133   1.002   4.784 -0.4336 -0.8356 -1.8580
 3308TIP3   OH2 9866   7.366   1.740   6.381  0.4684 -0.0620  0.1223
 3308TIP3    H1 9867   7.275   1.710   6.391  0.8282 -1.4559 -0.4315
 3308TIP3    H2 9868   7.389   1.715   6.291  0.8962  1.7523 -0.3012
 3309TIP3   OH2 9869   0.821   5.827   2.325  0.0553 -0.1340  0.0740
 3309TIP3    H1 9870   0.765   5.783   2.388 -1.1680 -0.8013 -1.4206
 3309TIP3    H2 9871   0.894   5.766   2.311  0.8468  0.4256  1.4768
 3310TIP3   OH2 9872   6.078   6.114   0.059  0.0642 -0.4587 -0.2498
 3310TIP3    H1 9873   6.172   6.109   0.047  0.1969  0.2769  0.4179
 3310TIP3    H2 9874   6.066   6.174   0.133 -0.9191 -0.5998 -0.2813
 3311TIP3   OH2 9875   6.442   0.166   1.624  0.2148  0.1636  0.3781
 3311TIP3    H1 9876   6.390   0.147   1.702 -2.6130 -0.4494 -1.5230
 3311TIP3    H2 9877   6.432   0.260   1.609 -0.5353  0.0236 -0.0622
 3312TIP3   OH2 9878   1.055   2.268   6.257 -0.0986  0.0122  0.1970
 3312TIP3    H1 9879   1.075   2.220   6.176 -1.6686 -1.5948  0.6831
 3312TIP3    H2 9880   1.063   2.360   6.233  1.5978 -0.4489 -1.1917
 3313TIP3   OH2 9881   6.788   2.747   5.409 -0.3276 -0.1847 -0.6842
 3313TIP3    H1 9882   6.700   2.754   5.372 -0.1925 -0.1861 -1.0093
 3313TIP3    H2 9883   6.780   2.782   5.498 -0.5953  0.0893 -0.8141
 3314TIP3   OH2 9884   5.317   5.913   4.064 -0.2600 -0.2445 -0.1667
 3314TIP3    H1 9885   5.375   5.884   3.993 -0.3183  1.0035 -0.7635
 3314TIP3    H2 9886   5.370   5.906   4.143  0.1420 -0.7111 -0.4718
 3315TIP3   OH2 9887   1.900   3.632   3.644  0.2910  1.0625  0.1695
 3315TIP3    H1 9888   1.952   3.670   3.715 -2.9235  2.5919  1.9295
 3315TIP3    H2 9889   1.857   3.707   3.603 -1.7605 -0.1759 -0.0936
 3316TIP3   OH2 9890   8.108   7.227   0.525 -0.2634  0.5460 -0.5023
 3316TIP3    H1 9891   8.147   7.254   0.441  0.1891 -0.4128 -0.6113
 3316TIP3    H2 9892   8.182   7.193   0.575 -0.8207 -0.5610 -0.4037
 3317TIP3   OH2 9893   0.112   4.044   3.213  0.0101 -0.0539 -0.0527
 3317TIP3    H1 9894   0.069   4.002   3.288 -0.6791 -1.0125 -0.9720
 3317TIP3    H2 9895   0.205   4.036   3.232 -0.1622  0.3800  1.0585
 3318TIP3   OH2 9896   5.877   0.765   2.561  0.1853  0.2289  0.5223
 3318TIP3    H1 9897   5.914   0.808   2.484  1.0610 -0.3359  0.6249
 3318TIP3    H2 9898   5.842   0.837   2.614 -1.7004  0.5520 -1.0188
 3319TIP3   OH2 9899   4.247   0.380   3.588 -1.0120 -0.1326  0.0064
 3319TIP3    H1 9900   4.179   0.364   3.654  0.3639 -1.1726  1.2484
 3319TIP3    H2 9901   4.298   0.299   3.586  0.8784  0.9762 -0.0082
 3320TIP3   OH2 9902   4.429   2.374   6.737  0.8896 -0.2997  0.0708
 3320TIP3    H1 9903   4.433   2.326   6.655  0.4930 -2.0280  1.0113
 3320TIP3    H2 9904   4.360   2.330   6.787  1.3597  0.4787  1.4682
 3321TIP3   OH2 9905   1.981   0.327   2.410  0.0354  0.2624  0.4534
 3321TIP3    H1 9906   1.915   0.344   2.477  0.3689  1.5327  0.4847
 3321TIP3    H2 9907   2.052   0.388   2.430 -0.1819  1.2431 -1.5023
 3322TIP3   OH2 9908   4.661   6.305   5.783 -0.0608 -0.4500  0.2006
 3322TIP3    H1 9909   4.747   6.264   5.774 -0.1970 -0.7394  0.1993
 3322TIP3    H2 9910   4.672   6.366   5.856 -0.0065 -0.8985  0.5715
 3323TIP3   OH2 9911   2.414   7.158   5.222 -0.6778  0.1351  0.5831
 3323TIP3    H1 9912   2.495   7.206   5.205 -0.4855 -0.1398  0.7177
 3323TIP3    H2 9913   2.397   7.172   5.315  0.4344 -1.6451  1.1054
 3324TIP3   OH2 9914   0.141   0.638   5.817  0.2959  0.4934  0.1210
 3324TIP3    H1 9915   0.074   0.650   5.884 -0.6179 -0.7760 -0.5038
 3324TIP3    H2 9916   0.224   0.648   5.863 -0.3050  1.6471  1.0088
 3325TIP3   OH2 9917   6.882   5.202   5.669 -0.3019  0.4103 -0.2714
 3325TIP3    H1 9918   6.942   5.234   5.601  0.4599 -1.1585 -0.4054
 3325TIP3    H2 9919   6.844   5.123   5.631 -2.5773  1.4082 -0.2140
 3326TIP3   OH2 9920   1.217   2.844   4.253  0.9091  0.0730  0.5219
 3326TIP3    H1 9921   1.149   2.899   4.293  2.7426  2.9501 -0.0007
 3326TIP3    H2 9922   1.218   2.765   4.306 -1.6160  0.6455  1.6149
 3327TIP3   OH2 9923   4.820   5.142   5.486  0.0403 -0.4121 -0.0760
 3327TIP3    H1 9924   4.845   5.069   5.430 -0.8730 -1.6270  1.0277
 3327TIP3    H2 9925   4.868   5.127   5.568  0.8579  0.9762 -0.2628
 3328TIP3   OH2 9926   4.696   7.405   4.074 -0.1757  0.0283 -0.1867
 3328TIP3    H1 9927   4.768   7.457   4.111 -0.5972 -0.0825  0.8360
 3328TIP3    H2 9928   4.703   7.418   3.980  0.9202  0.3668 -0.0761
 3329TIP3   OH2 9929   0.550   1.585   1.649 -0.6081 -0.1693  0.1325
 3329TIP3    H1 9930   0.478   1.633   1.689 -0.3324 -0.9387  1.6255
 3329TIP3    H2 9931   0.629   1.633   1.676 -0.4812 -0.0578 -0.4268
 3330TIP3   OH2 9932   8.201   3.704   5.100 -0.0311  0.1457 -0.0101
 3330TIP3    H1 9933   8.110   3.732   5.089  0.0634  0.2812 -0.4347
 3330TIP3    H2 9934   8.252   3.766   5.048  0.4297  0.8699  1.2571
 3331TIP3   OH2 9935   1.871   0.094   6.560  0.5986 -0.6200  0.3517
 3331TIP3    H1 9936   1.913   0.073   6.644  1.2599 -2.2815 -0.3379
 3331TIP3    H2 9937   1.804   0.027   6.549 -0.0245  0.0634 -0.0789
 3332TIP3   OH2 9938   5.366   5.632   0.434  0.6901  0.0646  0.0167
 3332TIP3    H1 9939   5.296   5.586   0.388  1.0323 -2.9273  2.2046
 3332TIP3    H2 9940   5.392   5.701   0.374 -1.0958 -1.5111 -2.7951
 3333TIP3   OH2 9941   2.995   5.287   1.754 -0.3738 -0.0857 -0.3853
 3333TIP3    H1 9942   2.968   5.201   1.720  1.1051 -1.0148  0.6760
 3333TIP3    H2 9943   3.029   5.269   1.841  1.5226  1.3187 -0.7591
 3334TIP3   OH2 9944   8.217   1.858   5.479 -0.0437  0.6376 -0.3565
 3334TIP3    H1 9945   8.273   1.790   5.516  0.1914  0.2779 -1.3436
 3334TIP3    H2 9946   8.207   1.833   5.387 -2.2230  0.4128 -0.1135
 3335TIP3   OH2 9947   2.036   5.537   3.187 -0.5775 -0.4165  0.1628
 3335TIP3    H1 9948   1.965   5.569   3.131  0.1592 -0.2371 -0.6770
 3335TIP3    H2 9949   2.056   5.611   3.244 -1.8247 -0.8345  1.2032
 3336TIP3   OH2 9950   3.447   6.461   5.794 -0.2322 -0.1179 -0.3911
 3336TIP3    H1 9951   3.399   6.388   5.832 -0.4875  0.1011 -0.2858
 3336TIP3    H2 9952   3.410   6.471   5.706 -0.3369  0.0058 -0.3351
 3337TIP3   OH2 9953   1.364   6.385   6.555  0.0626  0.2124 -0.0807
 3337TIP3    H1 9954   1.279   6.364   6.592  0.4346 -1.2741  0.0030
 3337TIP3    H2 9955   1.345   6.420   6.468 -0.6341 -0.1448 -0.0805
 3338TIP3   OH2 9956   2.507   5.483   6.469  0.3080  0.2681 -0.2085
 3338TIP3    H1 9957   2.477   5.545   6.403  0.2766  0.8877  0.3801
 3338TIP3    H2 9958   2.595   5.511   6.491  1.7078 -1.9532 -2.4307
 3339TIP3   OH2 9959   7.135   1.823   0.295  0.0640  0.2750  0.0865
 3339TIP3    H1 9960   7.202   1.877   0.254 -1.5960  0.9929 -1.8638
 3339TIP3    H2 9961   7.052   1.861   0.265 -1.2028 -2.6121 -0.3757
 3340TIP3   OH2 9962   8.097   6.234   4.992 -0.3638 -0.1770 -0.3282
 3340TIP3    H1 9963   8.139   6.295   5.054  0.8524  0.6460 -1.9039
 3340TIP3    H2 9964   8.161   6.163   4.982 -0.0361  0.2580 -1.4692
 3341TIP3   OH2 9965   1.408   6.108   0.224 -0.6877 -0.2325 -0.3958
 3341TIP3    H1 9966   1.360   6.025   0.228  0.5840 -0.9713  0.1160
 3341TIP3    H2 9967   1.484   6.090   0.169  0.4336  0.1297  0.9612
 3342TIP3   OH2 9968   3.021   5.751   4.764 -0.2587  0.1672 -0.6765
 3342TIP3    H1 9969   3.044   5.829   4.815  0.4027 -0.8909  0.7125
 3342TIP3    H2 9970   3.057   5.678   4.815 -1.2868 -1.0854 -1.6913
 3343TIP3   OH2 9971   2.881   3.934   5.817  0.0854 -0.1177 -0.2449
 3343TIP3    H1 9972   2.807   3.965   5.766 -1.2678  0.8919  2.1488
 3343TIP3    H2 9973   2.851   3.939   5.908  3.0448  0.2559  0.8242
 3344TIP3   OH2 9974   0.550   0.573   4.614  0.0867  0.2516  0.5987
 3344TIP3    H1 9975   0.636   0.558   4.574  0.6254 -0.6810  2.0200
 3344TIP3    H2 9976   0.561   0.655   4.663 -0.1305  0.6098  0.0660
 3345TIP3   OH2 9977   5.405   6.684   5.582  0.2590 -0.1658  0.4004
 3345TIP3    H1 9978   5.388   6.590   5.579  0.2217 -0.1376 -1.4156
 3345TIP3    H2 9979   5.367   6.717   5.501  0.8390  1.3282  0.7202
 3346TIP3   OH2 9980   3.272   1.140   3.583  0.1601 -0.3621  0.2352
 3346TIP3    H1 9981   3.321   1.140   3.665 -0.0215 -0.0705  0.3455
 3346TIP3    H2 9982   3.182   1.163   3.609  0.4353  1.3034 -0.2430
 3347TIP3   OH2 9983   1.533   5.167   3.338  0.0737  0.0768 -0.3541
 3347TIP3    H1 9984   1.510   5.244   3.288  0.7822 -0.0744 -0.9266
 3347TIP3    H2 9985   1.628   5.161   3.331  0.1350 -0.2460  0.5663
 3348TIP3   OH2 9986   5.300   0.429   0.445  0.1995 -0.3756  0.1858
 3348TIP3    H1 9987   5.265   0.348   0.482 -1.1842  0.6997  1.3533
 3348TIP3    H2 9988   5.387   0.439   0.485 -0.7417  0.0936  2.2718
 3349TIP3   OH2 9989   0.902   0.656   1.908 -0.3782  0.2037 -0.6171
 3349TIP3    H1 9990   0.946   0.610   1.837  0.1189 -0.8906  0.3794
 3349TIP3    H2 9991   0.942   0.743   1.909  1.8961 -0.7868  0.3381
 3350TIP3   OH2 9992   0.236   6.718   5.400 -0.1073  0.0607  0.7962
 3350TIP3    H1 9993   0.290   6.725   5.479  3.0215  0.6612 -1.2157
 3350TIP3    H2 9994   0.224   6.809   5.371 -0.8871 -0.1786  0.3364
 3351TIP3   OH2 9995   0.262   1.703   5.215  0.2126 -0.1230 -0.2443
 3351TIP3    H1 9996   0.277   1.705   5.120  0.4977 -1.3017 -0.2309
 3351TIP3    H2 9997   0.274   1.794   5.243 -1.3389  0.5406 -1.5561
 3352TIP3   OH2 9998   0.535   4.837   6.769  0.1041 -0.0983  0.0267
 3352TIP3    H1 9999   0.498   4.925   6.760 -1.3719 -0.3939  2.3117
 3352TIP3    H210000   0.482   4.783   6.710 -1.2866 -0.0007  1.1235
 3353TIP3   OH210001   3.305   4.007   4.837  0.1511 -0.3696  0.0441
 3353TIP3    H110002   3.384   4.060   4.837  0.2202 -0.4631 -0.6814
 3353TIP3    H210003   3.329   3.927   4.882  0.1830  0.0127  0.7155
 3354TIP3   OH210004   5.372   6.511   3.922  0.3465  0.0323  0.0351
 3354TIP3    H110005   5.355   6.550   3.836 -0.4609 -2.2603 -0.9220
 3354TIP3    H210006   5.426   6.435   3.903 -0.6204 -1.0383  1.4458
 3355TIP3   OH210007   1.150   2.522   5.260  0.0803 -0.0096  0.0379
 3355TIP3    H110008   1.158   2.615   5.237 -0.3715 -0.1975 -0.9218
 3355TIP3    H210009   1.214   2.478   5.204  1.0826 -0.1804  1.2669
 3356TIP3   OH210010   6.014   2.228   3.835 -0.3808  0.0151 -1.0037
 3356TIP3    H110011   5.930   2.272   3.830 -1.0688 -1.1806 -0.4946
 3356TIP3    H210012   6.011   2.163   3.764 -0.3433 -0.7645 -0.3031
 3357TIP3   OH210013   6.397   7.691   3.603  0.0002 -0.6089  0.1481
 3357TIP3    H110014   6.381   7.649   3.687 -0.1268 -0.4980  0.1794
 3357TIP3    H210015   6.416   7.619   3.543  3.1110 -0.5792  0.9042
 3358TIP3   OH210016   2.199   7.472   2.014 -0.5026 -0.0985 -0.3338
 3358TIP3    H110017   2.254   7.396   1.995 -1.2161 -1.2093  1.7670
 3358TIP3    H210018   2.261   7.542   2.034  0.1581 -0.6522 -0.3965
 3359TIP3   OH210019   2.630   7.275   5.130  0.0844 -0.0767  0.0471
 3359TIP3    H110020   2.688   7.332   5.081 -1.6369  1.1058 -0.7183
 3359TIP3    H210021   2.673   7.190   5.129  2.1240  0.9000  0.1574
 3360TIP3   OH210022   1.225   3.340   6.450  0.3847  0.0094  0.4056
 3360TIP3    H110023   1.276   3.270   6.491  1.6277  0.8870  0.4004
 3360TIP3    H210024   1.220   3.408   6.518 -1.6044 -0.4015  0.7547
 3361TIP3   OH210025   5.752   2.355   2.232  0.3242 -0.1523  1.1078
 3361TIP3    H110026   5.671   2.317   2.201  0.9446 -1.7464  1.3611
 3361TIP3    H210027   5.802   2.375   2.153  0.5814 -1.2378  0.9794
 3362TIP3   OH210028   1.858   5.819   4.815  0.1827  0.3972 -0.1489
 3362TIP3    H110029   1.897   5.904   4.792  0.4357  0.7954  1.5933
 3362TIP3    H210030   1.786   5.809   4.753 -0.2426  2.1840 -0.0127
 3363TIP3   OH210031   0.531   5.189   0.229  0.0739 -0.0007  0.2666
 3363TIP3    H110032   0.544   5.151   0.142  0.0785 -1.1893  0.7658
 3363TIP3    H210033   0.451   5.241   0.221  0.6557  0.7734 -0.7164
 3364TIP3   OH210034   2.803   5.217   0.452 -0.1455  0.4337  0.0802
 3364TIP3    H110035   2.742   5.166   0.506 -0.6711  0.3926 -0.5423
 3364TIP3    H210036   2.867   5.252   0.515 -0.5722  0.1432  0.6877
 3365TIP3   OH210037   2.141   0.222   3.526 -0.2025  0.0024 -0.0929
 3365TIP3    H110038   2.081   0.178   3.586  2.4417 -0.2580  2.6312
 3365TIP3    H210039   2.183   0.151   3.478  0.7798 -0.2035  1.0039
 3366TIP3   OH210040   8.090   5.354   2.183 -0.4224  0.7165  0.4697
 3366TIP3    H110041   8.029   5.392   2.119 -0.3232  0.2141  0.0735
 3366TIP3    H210042   8.119   5.429   2.235 -1.2227  0.9982  0.5370
 3367TIP3   OH210043   2.983   5.369   0.624 -0.0751 -0.4316  0.5338
 3367TIP3    H110044   3.055   5.311   0.648 -0.1942 -0.7308  0.1659
 3367TIP3    H210045   2.964   5.418   0.704 -0.6496 -1.6115  1.1473
 3368TIP3   OH210046   3.333   0.387   5.021  0.8165  0.0548  0.0201
 3368TIP3    H110047   3.361   0.300   5.048  1.3009  0.6460  1.4787
 3368TIP3    H210048   3.302   0.428   5.101 -2.3143  0.1919 -1.1564
 3369TIP3   OH210049   1.875   5.293   1.497  0.3776 -0.1493 -0.4057
 3369TIP3    H110050   1.855   5.262   1.586  0.3579 -2.4095 -1.1272
 3369TIP3    H210051   1.817   5.368   1.484 -0.9729 -0.9149  0.8456
 3370TIP3   OH210052   0.205   2.921   4.858 -0.5304  0.6986 -0.5774
 3370TIP3    H110053   0.266   2.866   4.908 -1.0996  1.1369  0.6212
 3370TIP3    H210054   0.250   3.006   4.851 -0.6642  0.7878 -0.3669
 3371TIP3   OH210055   0.174   6.520   3.502 -0.4201 -0.1764 -0.0489
 3371TIP3    H110056   0.230   6.445   3.526 -0.8167 -0.3855  0.2339
 3371TIP3    H210057   0.224   6.597   3.530 -1.1726 -0.4309  2.1618
 3372TIP3   OH210058   1.741   3.420   6.794  0.1517 -0.0287  0.1117
 3372TIP3    H110059   1.662   3.385   6.833 -1.1651  0.1372 -2.1906
 3372TIP3    H210060   1.744   3.381   6.706  2.3773  0.3302 -0.0403
 3373TIP3   OH210061   5.173   6.914   4.426 -0.0998  0.0568  0.3616
 3373TIP3    H110062   5.157   7.004   4.399 -1.4886 -0.8760 -2.3242
 3373TIP3    H210063   5.245   6.885   4.369 -0.7282 -0.9606  0.0624
 3374TIP3   OH210064   5.503   1.895   3.328  0.2503 -0.3263  0.0244
 3374TIP3    H110065   5.599   1.889   3.331  0.3368  0.7489 -0.2210
 3374TIP3    H210066   5.479   1.855   3.245  0.2651 -2.7491  1.0972
 3375TIP3   OH210067   4.236   5.913   6.743 -0.5044 -0.0941  0.5111
 3375TIP3    H110068   4.222   5.888   6.834  1.6415 -1.4927  0.5268
 3375TIP3    H210069   4.260   6.006   6.746 -1.4276  0.1351  1.2281
 3376TIP3   OH210070   7.678   6.650   0.296  0.0401 -0.2591 -0.3436
 3376TIP3    H110071   7.666   6.720   0.361 -1.2577  0.4652 -1.3089
 3376TIP3    H210072   7.614   6.583   0.320  0.9533 -0.9275  0.2949
 3377TIP3   OH210073   1.164   2.071   1.012  0.4873  0.1399 -0.6283
 3377TIP3    H110074   1.120   2.029   0.938 -1.6769  0.3182  0.5090
 3377TIP3    H210075   1.135   2.162   1.009 -0.3546 -0.0564  0.9479
 3378TIP3   OH210076   3.066   3.245   6.344 -0.4424 -0.5580 -0.1512
 3378TIP3    H110077   3.101   3.301   6.413 -1.8824 -1.3829  1.3207
 3378TIP3    H210078   3.040   3.306   6.274  1.6662  0.2327 -0.3220
 3379TIP3   OH210079   2.682   7.630   2.096  0.2042  0.0936 -0.0030
 3379TIP3    H110080   2.592   7.599   2.107 -0.1014  1.2559  1.0867
 3379TIP3    H210081   2.676   7.724   2.109  1.9855 -0.0862  3.4912
 3380TIP3   OH210082   7.985   1.371   0.109 -0.4897 -0.4401 -0.8303
 3380TIP3    H110083   8.053   1.437   0.105  0.1158 -0.9312  0.5970
 3380TIP3    H210084   7.962   1.353   0.018  0.2690  0.7553 -1.2725
 3381TIP3   OH210085   4.569   6.859   4.956 -0.1621 -0.3533 -0.2871
 3381TIP3    H110086   4.624   6.904   5.020 -1.8807  1.9617 -0.3294
 3381TIP3    H210087   4.630   6.830   4.888  1.1825  0.6891  0.4295
 3382TIP3   OH210088   7.520   5.257   1.003  0.0586 -0.2767  0.3676
 3382TIP3    H110089   7.490   5.167   0.995 -0.0260 -0.1168 -1.6744
 3382TIP3    H210090   7.614   5.253   0.985  0.0656  0.0382  0.3301
 3383TIP3   OH210091   4.225   5.199   5.511 -0.5859  0.1306  0.3308
 3383TIP3    H110092   4.270   5.279   5.483  0.3056 -0.5668 -0.2994
 3383TIP3    H210093   4.152   5.190   5.449 -0.6589  0.4336  0.3729
 3384TIP3   OH210094   5.671   7.850   6.167 -0.0979 -0.2960 -0.5291
 3384TIP3    H110095   5.758   7.817   6.191  1.2324  2.0947 -1.6876
 3384TIP3    H210096   5.632   7.779   6.115  1.5749 -1.0592 -0.8179
 3385TIP3   OH210097   7.772   7.552   2.475  0.2827 -0.3546  0.4028
 3385TIP3    H110098   7.752   7.588   2.561  0.1765 -2.4650  1.3136
 3385TIP3    H210099   7.864   7.577   2.460 -0.0908  1.1948  0.4635
 3386TIP3   OH210100   6.884   2.671   0.270 -0.5043 -0.3109  0.3103
 3386TIP3    H110101   6.971   2.709   0.284  0.1613 -1.2265 -1.1288
 3386TIP3    H210102   6.844   2.670   0.357  1.2142 -0.5564  1.1394
 3387TIP3   OH210103   2.865   5.345   4.822 -0.0685 -0.0875 -0.3709
 3387TIP3    H110104   2.913   5.424   4.845  0.2059 -0.2177 -0.4885
 3387TIP3    H210105   2.790   5.376   4.771  0.0123  0.1014 -0.3736
 3388TIP3   OH210106   0.168   1.919   2.352 -0.5998  0.3833 -0.3408
 3388TIP3    H110107   0.179   1.964   2.436 -1.1169 -0.4315  0.1814
 3388TIP3    H210108   0.088   1.867   2.364 -1.2244  0.9899 -1.6696
 3389TIP3   OH210109   4.305   5.137   0.682 -0.0746  0.0824 -0.0811
 3389TIP3    H110110   4.336   5.180   0.761 -0.3476 -0.1421  0.1515
 3389TIP3    H210111   4.300   5.044   0.706  0.7349 -0.1187 -0.6440
 3390TIP3   OH210112   4.068   7.642   0.121 -0.0518  0.4568  0.3139
 3390TIP3    H110113   4.136   7.653   0.188 -1.0361 -0.9025  1.6039
 3390TIP3    H210114   3.993   7.609   0.169 -1.6098  1.7689 -1.1003
 3391TIP3   OH210115   1.427   1.485   5.419 -0.0343  0.4687 -0.5844
 3391TIP3    H110116   1.517   1.501   5.391 -0.6387  1.3553 -2.1405
 3391TIP3    H210117   1.412   1.547   5.491  0.7027  0.0491 -0.0613
 3392TIP3   OH210118   3.496   4.847   0.952  0.2344  0.1795  0.3482
 3392TIP3    H110119   3.423   4.805   0.997 -0.6361  2.3765  1.1351
 3392TIP3    H210120   3.458   4.881   0.871  0.0843  2.0915  1.1606
 3393TIP3   OH210121   3.811   2.578   4.464  0.6184 -0.7940 -0.3218
 3393TIP3    H110122   3.825   2.538   4.378  0.3492 -0.8878 -0.3258
 3393TIP3    H210123   3.894   2.567   4.510  0.0724 -2.9057  0.2979
 3394TIP3   OH210124   4.048   3.561   5.921  0.3832 -0.0559 -0.6717
 3394TIP3    H110125   4.012   3.476   5.947 -0.2219 -0.3362 -2.2920
 3394TIP3    H210126   4.045   3.614   6.001  0.4238 -1.4391  0.2690
 3395TIP3   OH210127   2.472   1.440   1.455  0.7072  0.3571  0.0175
 3395TIP3    H110128   2.397   1.388   1.485 -1.0373  1.8688 -1.4311
 3395TIP3    H210129   2.547   1.406   1.504 -0.8912 -1.3310  1.4247
 3396TIP3   OH210130   7.830   2.880   1.159 -0.1491 -0.3222  0.6207
 3396TIP3    H110131   7.799   2.855   1.246 -2.2600 -2.6198 -0.6796
 3396TIP3    H210132   7.879   2.804   1.128 -1.5178 -0.5745 -1.0842
 3397TIP3   OH210133   7.966   1.696   4.367  0.0285  0.2366 -0.7007
 3397TIP3    H110134   8.020   1.680   4.445  0.8424  0.5982 -1.1757
 3397TIP3    H210135   7.955   1.610   4.328 -0.1222  0.0964 -0.3563
 3398TIP3   OH210136   3.309   0.837   3.000  0.6628 -0.2690 -0.0964
 3398TIP3    H110137   3.344   0.763   2.950 -0.3207 -0.3739 -0.6628
 3398TIP3    H210138   3.307   0.909   2.938  1.2451  0.1340  0.3457
 3399TIP3   OH210139   1.892   5.576   6.387  0.1418 -0.1375 -0.2274
 3399TIP3    H110140   1.961   5.567   6.321  0.5172 -1.6368  0.3129
 3399TIP3    H210141   1.916   5.654   6.436  0.0144  0.8323 -1.6562
 3400TIP3   OH210142   5.901   4.868   0.935 -0.2796 -0.3266  0.3292
 3400TIP3    H110143   5.931   4.893   0.848  0.0425 -0.6187  0.3542
 3400TIP3    H210144   5.981   4.854   0.985 -0.4401 -1.6525  0.2419
 3401TIP3   OH210145   0.812   0.706   1.591 -0.3406  0.7119 -0.2111
 3401TIP3    H110146   0.905   0.703   1.614 -0.3958  1.9090  0.2460
 3401TIP3    H210147   0.772   0.637   1.642  0.1255  0.9507  0.4954
 3402TIP3   OH210148   4.394   7.446   1.882  0.0834  0.4264 -0.0564
 3402TIP3    H110149   4.357   7.441   1.793  0.4874  1.1912 -0.2699
 3402TIP3    H210150   4.343   7.513   1.926  0.1017  0.2807  0.1883
 3403TIP3   OH210151   3.593   7.323   4.757 -0.7085 -0.1173  0.1310
 3403TIP3    H110152   3.602   7.414   4.732  0.9559 -0.4786 -0.7117
 3403TIP3    H210153   3.645   7.314   4.837 -1.1606 -0.2652  0.4164
 3404TIP3   OH210154   5.369   4.057   0.581 -0.3181  0.1406 -0.2384
 3404TIP3    H110155   5.452   4.061   0.533 -0.0919  0.7175  0.1991
 3404TIP3    H210156   5.390   4.008   0.661 -0.4599  0.0589 -0.2517
 3405TIP3   OH210157   1.060   6.931   6.523 -0.9256  0.6074 -0.4482
 3405TIP3    H110158   0.973   6.941   6.484 -0.2773 -0.0572 -2.1745
 3405TIP3    H210159   1.049   6.863   6.589 -1.3657 -0.8901 -1.9904
 3406TIP3   OH210160   6.546   4.277   1.378 -0.1457 -0.0712  0.8379
 3406TIP3    H110161   6.496   4.201   1.347  2.0158 -1.6830  1.0245
 3406TIP3    H210162   6.611   4.292   1.310  0.6417  0.4102  1.6781
 3407TIP3   OH210163   1.464   6.916   4.014 -0.0934 -0.0089 -0.7562
 3407TIP3    H110164   1.433   6.989   3.960 -1.1374  0.2867  0.1914
 3407TIP3    H210165   1.558   6.913   3.998  0.1601  2.1868 -0.1113
 3408TIP3   OH210166   3.953   0.465   5.736 -0.8039  0.0519 -0.1105
 3408TIP3    H110167   3.935   0.390   5.792 -1.2716  0.7798  0.7238
 3408TIP3    H210168   4.048   0.474   5.738 -0.6203 -1.2068 -1.1553
 3409TIP3   OH210169   2.270   7.034   0.555 -0.1331 -0.0927 -0.0332
 3409TIP3    H110170   2.325   7.111   0.566 -2.4147  1.3521  2.3959
 3409TIP3    H210171   2.281   7.010   0.463  3.4500  0.8169  0.0045
 3410TIP3   OH210172   7.213   7.818   5.367 -0.1973  0.3105  0.1507
 3410TIP3    H110173   7.163   7.765   5.429 -0.5476  0.5920  0.1096
 3410TIP3    H210174   7.235   7.898   5.415 -0.4694  0.5288 -0.0897
 3411TIP3   OH210175   6.453   0.817   3.949  0.4908 -0.3721 -0.0563
 3411TIP3    H110176   6.375   0.830   3.897 -0.9379  0.1962  2.0897
 3411TIP3    H210177   6.512   0.887   3.922 -2.0958  3.0423  2.3035
 3412TIP3   OH210178   7.603   2.704   0.811  0.2843  0.7195  0.4329
 3412TIP3    H110179   7.643   2.626   0.773  0.5681 -0.1353  2.3473
 3412TIP3    H210180   7.677   2.754   0.846  0.2127  2.4143 -1.6309
 3413TIP3   OH210181   0.958   3.858   5.983 -0.0085 -0.5086  0.3729
 3413TIP3    H110182   1.023   3.787   5.983 -0.3819 -1.0088  3.6335
 3413TIP3    H210183   0.996   3.925   6.040 -1.1167  0.4477  0.0188
 3414TIP3   OH210184   4.507   7.198   1.882  0.5303 -0.1402 -0.3621
 3414TIP3    H110185   4.484   7.138   1.953 -0.8708  0.1236 -0.5568
 3414TIP3    H210186   4.460   7.279   1.903  0.8310  0.2409 -1.1202
 3415TIP3   OH210187   6.989   1.598   2.442 -0.3087  0.2151 -0.1688
 3415TIP3    H110188   6.990   1.668   2.377  0.2014 -0.2564 -0.6815
 3415TIP3    H210189   7.071   1.551   2.427  0.2039  0.5818  1.3546
 3416TIP3   OH210190   1.403   7.303   5.526  0.2292  0.2269  0.2829
 3416TIP3    H110191   1.457   7.299   5.604  1.5197  1.9429 -0.4463
 3416TIP3    H210192   1.358   7.387   5.532 -0.3005  0.0028 -0.4046
 3417TIP3   OH210193   2.127   4.318   2.981 -0.4887  0.3139  0.4978
 3417TIP3    H110194   2.219   4.293   2.983 -0.7382 -0.9033 -1.4869
 3417TIP3    H210195   2.129   4.414   2.973  0.5587  0.4125  1.6559
 3418TIP3   OH210196   5.058   6.475   2.405 -0.2104  0.1354  0.2019
 3418TIP3    H110197   5.026   6.472   2.314  0.8557 -0.3952 -0.1780
 3418TIP3    H210198   5.128   6.540   2.403  0.2443 -0.3340  0.4855
 3419TIP3   OH210199   0.150   4.620   0.596  0.5521 -0.1016 -0.2652
 3419TIP3    H110200   0.145   4.543   0.539 -0.3704  0.3320 -0.7852
 3419TIP3    H210201   0.061   4.633   0.628  0.4819  1.3167 -0.9585
 3420TIP3   OH210202   2.168   0.823   5.956 -0.0835  0.2292  0.1700
 3420TIP3    H110203   2.117   0.832   6.037 -0.4725 -0.6658  0.0340
 3420TIP3    H210204   2.116   0.766   5.900 -0.0891  1.3054 -0.9666
 3421TIP3   OH210205   7.722   5.187   6.087  0.0578  0.4195  0.4355
 3421TIP3    H110206   7.717   5.093   6.073  0.7111  0.1476  1.8858
 3421TIP3    H210207   7.768   5.221   6.010  1.6045 -0.6978  0.8363
 3422TIP3   OH210208   6.618   2.419   1.009  0.5270 -0.1220  0.5624
 3422TIP3    H110209   6.557   2.451   1.076  0.3255  1.3833 -0.2765
 3422TIP3    H210210   6.638   2.497   0.956  1.5944 -1.0178 -0.4129
 3423TIP3   OH210211   3.032   1.842   4.733  0.0934 -0.4666 -0.5512
 3423TIP3    H110212   3.026   1.765   4.789 -0.1781 -0.8398 -1.0813
 3423TIP3    H210213   2.944   1.853   4.698 -0.6619  1.7881  1.7073
 3424TIP3   OH210214   0.022   1.164   1.208 -0.1084  0.5929 -0.1452
 3424TIP3    H110215  -0.051   1.156   1.148  0.9938 -1.4435 -1.3367
 3424TIP3    H210216   0.097   1.184   1.152  0.9905 -1.6097  0.4253
 3425TIP3   OH210217   2.033   5.329   5.776 -0.8237  0.0768 -0.1457
 3425TIP3    H110218   2.042   5.316   5.870 -2.8526 -2.5577 -0.1950
 3425TIP3    H210219   1.958   5.388   5.767  0.3318  1.6162 -0.1621
 3426TIP3   OH210220   3.484   7.128   0.262 -1.1144  0.6044 -0.0667
 3426TIP3    H110221   3.536   7.077   0.201 -0.8206  0.2536  0.4665
 3426TIP3    H210222   3.529   7.212   0.267 -0.4361  0.2141  0.5874
 3427TIP3   OH210223   4.971   4.065   1.977 -0.9377  0.1250 -0.0727
 3427TIP3    H110224   5.046   4.121   1.953  0.2350 -0.5097  1.8604
 3427TIP3    H210225   4.963   4.003   1.905  1.7469 -1.0586  0.5345
 3428TIP3   OH210226   2.126   2.925   2.768 -0.2072 -0.0129 -0.3061
 3428TIP3    H110227   2.114   2.836   2.736 -1.5398 -0.1649  0.5361
 3428TIP3    H210228   2.043   2.969   2.752  0.9093  1.5881 -2.1159
 3429TIP3   OH210229   5.747   7.184   2.677  0.1207  0.0173  0.1363
 3429TIP3    H110230   5.652   7.192   2.682  0.2471  1.8321  0.4830
 3429TIP3    H210231   5.776   7.180   2.768  0.4034  0.0544  0.0494
 3430TIP3   OH210232   4.430   4.704   5.893 -0.1000  0.3827  0.6525
 3430TIP3    H110233   4.381   4.767   5.945 -0.9765 -0.2475  0.6292
 3430TIP3    H210234   4.366   4.671   5.830 -0.4473 -2.3698  2.2772
 3431TIP3   OH210235   2.941   6.041   4.462 -0.6252  0.1461  0.5546
 3431TIP3    H110236   2.867   6.001   4.416 -0.6867  0.7161  0.1451
 3431TIP3    H210237   2.905   6.121   4.500 -0.2386  0.3839  0.4244
 3432TIP3   OH210238   0.472   7.571   1.124  0.1489  0.2472  0.5897
 3432TIP3    H110239   0.483   7.658   1.164  0.4211 -0.0420  1.1585
 3432TIP3    H210240   0.416   7.524   1.185 -0.3519  0.1545  0.0683
 3433TIP3   OH210241   0.026   5.300   2.818  0.2282  1.1111  0.8429
 3433TIP3    H110242   0.081   5.366   2.776 -0.1117  1.7595  1.4088
 3433TIP3    H210243  -0.023   5.261   2.746  0.7812  1.1356  0.4440
 3434TIP3   OH210244   3.693   7.674   4.857 -0.1659  0.3012  0.1624
 3434TIP3    H110245   3.674   7.666   4.951  0.8642 -1.9033  0.2445
 3434TIP3    H210246   3.766   7.736   4.853  1.9351 -1.9492  1.1992
 3435TIP3   OH210247   2.572   3.662   6.151  0.4893  0.1782  0.3073
 3435TIP3    H110248   2.527   3.740   6.117  1.3919  0.7809  0.4522
 3435TIP3    H210249   2.613   3.692   6.232  1.0602 -0.3815  0.2301
 3436TIP3   OH210250   4.883   5.330   5.086 -0.0669  0.3982 -0.0826
 3436TIP3    H110251   4.931   5.336   5.168  2.4610 -1.5052 -1.2812
 3436TIP3    H210252   4.882   5.419   5.052  3.2400  0.4812 -0.2306
 3437TIP3   OH210253   2.432   3.756   3.956  0.5954 -0.0486  0.4522
 3437TIP3    H110254   2.353   3.806   3.977 -0.5012 -1.0731 -1.0963
 3437TIP3    H210255   2.403   3.665   3.953  1.4952 -0.3224 -1.5191
 3438TIP3   OH210256   1.451   4.267   3.849 -0.4876  0.0376 -0.0719
 3438TIP3    H110257   1.441   4.297   3.759  0.1934 -0.0167 -0.1668
 3438TIP3    H210258   1.488   4.342   3.895 -0.6261 -0.0085  0.1150
 3439TIP3   OH210259   3.503   6.694   4.507  0.0611  0.0798 -0.3045
 3439TIP3    H110260   3.416   6.693   4.468  0.8725 -0.8286 -2.2257
 3439TIP3    H210261   3.488   6.710   4.600 -2.1012  0.5149 -0.6809
 3440TIP3   OH210262   3.818   1.729   5.093 -0.0306 -0.0975  0.2920
 3440TIP3    H110263   3.743   1.723   5.153  0.2207 -0.8996  0.5349
 3440TIP3    H210264   3.850   1.819   5.105  0.9102 -0.6441  2.4801
 3441TIP3   OH210265   6.345   5.337   4.303 -0.0734  0.3567  0.5681
 3441TIP3    H110266   6.325   5.303   4.390  0.7724 -0.8222  0.3285
 3441TIP3    H210267   6.399   5.268   4.262 -0.6294  0.7855 -0.9554
 3442TIP3   OH210268   4.351   4.520   5.710 -0.1413 -0.2041 -0.1998
 3442TIP3    H110269   4.290   4.534   5.637 -0.8722  1.5653  0.6787
 3442TIP3    H210270   4.434   4.498   5.667 -0.6223  0.4902 -1.5808
 3443TIP3   OH210271   5.310   4.413   4.274  0.1090 -0.1618 -0.0427
 3443TIP3    H110272   5.350   4.430   4.189  0.0739 -0.4692 -0.1223
 3443TIP3    H210273   5.378   4.368   4.324 -0.5041 -1.7238 -0.5688
 3444TIP3   OH210274   4.978   1.894   6.620 -0.8460 -0.3183  0.5225
 3444TIP3    H110275   5.044   1.853   6.565 -1.7951 -1.2003 -0.0014
 3444TIP3    H210276   5.027   1.951   6.679  0.4564 -1.6316  0.7510
 3445TIP3   OH210277   1.616   1.171   6.701  0.0623 -0.5667  0.0448
 3445TIP3    H110278   1.595   1.079   6.682  0.5873 -0.6135 -0.3365
 3445TIP3    H210279   1.573   1.189   6.784  0.5091 -1.3637  0.4574
 3446TIP3   OH210280   6.315   5.111   0.238  0.1663  0.1165 -0.1172
 3446TIP3    H110281   6.399   5.083   0.201  1.2863  1.5802  1.1818
 3446TIP3    H210282   6.329   5.202   0.265 -0.9410 -0.4152  2.6261
 3447TIP3   OH210283   1.404   0.431   5.100 -0.3007  0.0974  0.0749
 3447TIP3    H110284   1.481   0.376   5.087 -0.7947 -0.1887 -2.0353
 3447TIP3    H210285   1.361   0.394   5.177  1.2076 -0.2367  0.8053
 3448TIP3   OH210286   2.063   1.685   5.262 -0.0243  0.6164  0.3168
 3448TIP3    H110287   2.065   1.640   5.346 -1.0102  0.8537  0.4773
 3448TIP3    H210288   2.024   1.770   5.280 -2.0060 -0.0053 -0.6462
 3449TIP3   OH210289   1.300   1.012   1.543  0.0407 -0.0420  0.5800
 3449TIP3    H110290   1.306   1.079   1.611  0.3820  0.6171 -0.0958
 3449TIP3    H210291   1.260   0.937   1.588 -0.1075  0.5152  1.4078
 3450TIP3   OH210292   7.665   5.146   2.621 -0.9656  0.1415 -0.7600
 3450TIP3    H110293   7.596   5.127   2.685 -1.4859  1.2120 -0.9832
 3450TIP3    H210294   7.663   5.071   2.561 -1.6998 -0.0091 -0.5635
 3451TIP3   OH210295   7.063   5.293   0.308 -0.5600  0.3483  0.1535
 3451TIP3    H110296   6.985   5.314   0.359 -0.2425 -0.4724  0.9997
 3451TIP3    H210297   7.050   5.203   0.278 -0.0287  0.2698  0.1436
 3452TIP3   OH210298   6.061   3.494   0.003 -0.1741 -0.1858 -0.0337
 3452TIP3    H110299   6.050   3.537   0.088 -0.4981  1.7524 -0.9891
 3452TIP3    H210300   6.129   3.429   0.018  1.7031  1.8915  1.1343
 3453TIP3   OH210301   6.362   6.052   0.072 -0.0702  0.3388 -0.3157
 3453TIP3    H110302   6.396   5.973   0.029  0.0867  0.6878 -0.8492
 3453TIP3    H210303   6.421   6.066   0.146  0.3606  0.3721 -0.6533
 3454TIP3   OH210304   7.286   0.890   6.005  0.1944  0.1244 -0.6510
 3454TIP3    H110305   7.230   0.892   5.928  0.7573  2.6930 -1.0914
 3454TIP3    H210306   7.252   0.960   6.062 -0.2844 -1.7777  1.5554
 3455TIP3   OH210307   6.431   6.599   5.859  0.0901  0.0293  0.7868
 3455TIP3    H110308   6.441   6.665   5.928 -0.1443  0.6394  0.2458
 3455TIP3    H210309   6.462   6.642   5.779 -3.3655  0.7815 -0.2885
 3456TIP3   OH210310   5.593   1.387   6.007 -0.2479 -0.0740 -0.0415
 3456TIP3    H110311   5.634   1.427   5.931  3.4516 -2.0785  0.6677
 3456TIP3    H210312   5.639   1.304   6.019 -1.9072 -0.7104  3.3200
 3457TIP3   OH210313   6.918   2.647   2.769  0.5481 -0.8944 -0.2281
 3457TIP3    H110314   6.928   2.614   2.858  1.5120  0.6612  0.2804
 3457TIP3    H210315   6.935   2.571   2.713  0.3984 -1.7814  0.8939
 3458TIP3   OH210316   5.287   6.705   2.912 -0.2840 -0.5516 -0.0190
 3458TIP3    H110317   5.267   6.616   2.884  1.9587 -0.4055 -2.5431
 3458TIP3    H210318   5.239   6.761   2.850 -0.8676 -0.0119  0.9068
 3459TIP3   OH210319   5.960   2.613   4.740  0.0942 -0.3123  0.2313
 3459TIP3    H110320   5.928   2.696   4.703  1.0156  0.1802  0.4981
 3459TIP3    H210321   6.052   2.631   4.762  0.1240 -1.2137  0.8835
 3460TIP3   OH210322   5.238   3.816   6.498 -0.5730 -0.2945  0.3043
 3460TIP3    H110323   5.178   3.874   6.545 -1.8540 -0.4478 -1.0617
 3460TIP3    H210324   5.204   3.813   6.409  1.4901 -0.3847 -0.5559
 3461TIP3   OH210325   2.110   6.520   4.313 -0.1466 -0.3205 -0.3686
 3461TIP3    H110326   2.112   6.560   4.400 -2.5656 -0.3700 -0.2130
 3461TIP3    H210327   2.085   6.429   4.329  1.7543 -0.9803 -0.9807
 3462TIP3   OH210328   5.427   5.061   2.918 -0.6864 -0.0002 -0.0208
 3462TIP3    H110329   5.405   4.971   2.895  1.1975 -0.3155 -0.7778
 3462TIP3    H210330   5.387   5.114   2.849  0.0590 -0.4607 -0.8269
 3463TIP3   OH210331   7.119   6.271   5.041  0.4687  0.1598 -0.0805
 3463TIP3    H110332   7.211   6.253   5.059  1.4646  2.5806 -2.1328
 3463TIP3    H210333   7.094   6.336   5.107  0.5039  0.1409 -0.0484
 3464TIP3   OH210334   2.616   5.211   3.370 -0.2166 -0.2983 -0.0860
 3464TIP3    H110335   2.709   5.193   3.366 -0.1495  0.3071 -1.6305
 3464TIP3    H210336   2.574   5.126   3.362  0.1930 -0.4869 -0.2309
 3465TIP3   OH210337   0.550   7.423   1.533 -0.2716  0.0761 -0.6727
 3465TIP3    H110338   0.631   7.472   1.544 -0.3483 -0.1595  1.4455
 3465TIP3    H210339   0.481   7.490   1.531 -0.1126  0.2218 -1.4331
 3466TIP3   OH210340   5.445   5.737   5.397 -0.2146 -0.0995 -0.1746
 3466TIP3    H110341   5.426   5.701   5.484 -0.3180 -0.1271 -0.2093
 3466TIP3    H210342   5.421   5.830   5.404  2.5754  0.6483  0.7636
 3467TIP3   OH210343   7.472   0.436   1.008 -0.7348 -0.1086 -0.5241
 3467TIP3    H110344   7.547   0.429   0.949 -0.9185 -1.9197 -0.6149
 3467TIP3    H210345   7.417   0.504   0.971 -0.0595 -0.1031 -1.5399
 3468TIP3   OH210346   2.705   3.778   0.827  0.2773 -0.0064 -0.4392
 3468TIP3    H110347   2.677   3.867   0.808 -0.2071 -0.2276 -0.7770
 3468TIP3    H210348   2.800   3.780   0.816  0.7600  1.2997  2.9271
 3469TIP3   OH210349   4.727   5.973   4.347 -0.0449  0.1603  0.0115
 3469TIP3    H110350   4.692   5.888   4.319  2.0708 -1.9008  2.9783
 3469TIP3    H210351   4.657   6.011   4.400 -0.8053  0.0313 -0.8776
 3470TIP3   OH210352   8.176   6.971   3.781 -0.2251  0.0701  0.1025
 3470TIP3    H110353   8.169   7.063   3.806  1.0075  0.1148  0.3181
 3470TIP3    H210354   8.252   6.968   3.722  1.6781 -1.2727  2.4669
 3471TIP3   OH210355   1.827   0.068   0.786 -0.4378  0.4349 -0.0661
 3471TIP3    H110356   1.894  -0.000   0.791  0.1967  1.1160  1.4894
 3471TIP3    H210357   1.835   0.103   0.697  0.4978 -0.2608 -0.2751
 3472TIP3   OH210358   1.161   1.511   4.387  0.2378 -0.6234 -0.3483
 3472TIP3    H110359   1.236   1.481   4.438  1.4773 -0.3088 -1.9346
 3472TIP3    H210360   1.196   1.581   4.333 -1.2546 -0.3619 -1.0020
 3473TIP3   OH210361   6.622   0.592   4.242  0.2857 -0.2006  0.4476
 3473TIP3    H110362   6.656   0.520   4.296  0.7718 -0.0596  0.3355
 3473TIP3    H210363   6.633   0.561   4.152  1.5553  0.4594  0.3507
 3474TIP3   OH210364   6.107   1.128   1.601  1.0897 -0.6068 -0.5531
 3474TIP3    H110365   6.024   1.087   1.579  0.7230 -0.5843  0.6956
 3474TIP3    H210366   6.132   1.088   1.685  1.8469  0.0852 -0.4324
 3475TIP3   OH210367   5.681   7.673   3.961  0.5865 -0.0228  0.3597
 3475TIP3    H110368   5.605   7.674   4.019  0.1717 -3.3565  0.0720
 3475TIP3    H210369   5.734   7.600   3.993  3.9485  2.3379  0.7475
 3476TIP3   OH210370   2.523   1.465   3.317 -0.3085  0.1003  0.1150
 3476TIP3    H110371   2.595   1.526   3.303 -0.3833  0.2845  0.5223
 3476TIP3    H210372   2.499   1.476   3.409 -1.0048  0.2097 -0.0694
 3477TIP3   OH210373   5.901   5.330   2.439 -0.1678  0.2411  0.5884
 3477TIP3    H110374   5.866   5.242   2.426 -0.9543  0.7548 -0.9209
 3477TIP3    H210375   5.865   5.358   2.523 -1.2406 -0.2553  0.3071
 3478TIP3   OH210376   5.967   7.495   5.489  0.2911  0.3450  0.1946
 3478TIP3    H110377   5.984   7.407   5.454 -0.0940  0.6318 -0.7453
 3478TIP3    H210378   5.945   7.480   5.581 -0.1017 -0.5829 -0.0386
 3479TIP3   OH210379   4.595   3.541   0.776  1.1289 -0.1265 -0.6998
 3479TIP3    H110380   4.631   3.459   0.744  1.2800  0.8525 -3.3247
 3479TIP3    H210381   4.651   3.609   0.737 -0.4963  1.2714 -0.7322
 3480TIP3   OH210382   7.014   7.447   2.698 -0.0150 -0.5430  0.0430
 3480TIP3    H110383   6.965   7.373   2.733 -1.3722 -0.2640 -1.1631
 3480TIP3    H210384   7.016   7.511   2.769  1.6492 -1.8998  1.2874
 3481TIP3   OH210385   6.348   6.483   4.160 -0.2607  0.1234  0.3436
 3481TIP3    H110386   6.313   6.399   4.191 -0.3814  0.4887  1.2213
 3481TIP3    H210387   6.274   6.525   4.117 -0.0983 -0.3793 -0.4445
 3482TIP3   OH210388   1.194   7.476   0.741 -0.1343  0.3200  0.6712
 3482TIP3    H110389   1.180   7.473   0.647 -2.2506 -3.6530  0.8956
 3482TIP3    H210390   1.106   7.487   0.778  0.5493  0.8761  2.2169
 3483TIP3   OH210391   6.440   4.029   6.177  0.5245  0.2019  0.6567
 3483TIP3    H110392   6.490   4.089   6.232  1.1860  0.1795  0.1019
 3483TIP3    H210393   6.349   4.045   6.201  0.5907  2.1682 -0.1928
 3484TIP3   OH210394   2.446   7.820   3.018  0.7819 -0.2492 -0.7963
 3484TIP3    H110395   2.486   7.806   2.932 -1.2916  0.0715 -1.8685
 3484TIP3    H210396   2.491   7.758   3.076  0.6809 -2.1048 -2.5996
 3485TIP3   OH210397   2.674   1.225   6.552 -0.4392  0.2370 -0.1513
 3485TIP3    H110398   2.677   1.130   6.560 -2.1688  0.2361  1.0171
 3485TIP3    H210399   2.766   1.252   6.557  0.0734 -1.3419 -0.3324
 3486TIP3   OH210400   2.519   2.518   5.988 -0.3912  1.3664 -0.0235
 3486TIP3    H110401   2.503   2.466   5.909  0.3214 -0.1235  0.7691
 3486TIP3    H210402   2.612   2.539   5.984  0.2599 -0.8125  1.5502
 3487TIP3   OH210403   5.739   5.604   2.084  0.2592  0.5437  0.5535
 3487TIP3    H110404   5.709   5.676   2.140 -1.9079  0.5733 -0.5331
 3487TIP3    H210405   5.660   5.553   2.067  0.9922  0.0836 -1.7850
 3488TIP3   OH210406   2.879   6.366   5.043  0.0072  0.8885 -0.2875
 3488TIP3    H110407   2.873   6.423   5.120 -1.0032  1.2315 -0.6087
 3488TIP3    H210408   2.969   6.380   5.011  0.1257  1.4746  0.2652
 3489TIP3   OH210409   1.854   2.483   1.822 -0.0172  0.2424  0.1493
 3489TIP3    H110410   1.775   2.516   1.777 -0.2447  0.8346  0.9748
 3489TIP3    H210411   1.828   2.476   1.914  0.9818  0.7231  0.4792
 3490TIP3   OH210412   0.229   1.101   4.019 -0.0379 -0.1723 -0.0944
 3490TIP3    H110413   0.215   1.072   4.109  1.0511  0.8060  0.4295
 3490TIP3    H210414   0.245   1.195   4.027  0.8306 -0.2052 -1.2252
 3491TIP3   OH210415   5.927   6.947   3.002  0.5683  0.5307  0.2436
 3491TIP3    H110416   5.957   6.864   2.965  2.5013  1.4037 -0.2973
 3491TIP3    H210417   6.008   6.995   3.021 -0.4742  2.8101 -0.7071
 3492TIP3   OH210418   0.050   5.700   3.398 -0.3634  0.4923 -0.0255
 3492TIP3    H110419  -0.036   5.729   3.372 -0.4364 -1.1093 -1.7642
 3492TIP3    H210420   0.110   5.739   3.335 -0.0741 -0.1968 -0.1879
 3493TIP3   OH210421   4.926   0.706   5.548 -0.4039 -0.6968 -0.0137
 3493TIP3    H110422   4.975   0.789   5.546  0.6828 -1.2598  1.3252
 3493TIP3    H210423   4.915   0.682   5.456 -0.0797  0.5509 -0.4002
 3494TIP3   OH210424   2.917   0.399   5.587  0.4058  0.1138  0.1913
 3494TIP3    H110425   2.880   0.320   5.627  0.5134  0.2074  0.4784
 3494TIP3    H210426   2.973   0.367   5.517 -0.0555 -0.0385 -0.1167
 3495TIP3   OH210427   5.700   1.128   5.968 -0.4935  0.4973  0.0221
 3495TIP3    H110428   5.763   1.092   5.905 -0.2679 -0.7737  0.9276
 3495TIP3    H210429   5.618   1.083   5.948 -1.4511  2.8753 -1.8076
 3496TIP3   OH210430   0.573   2.725   6.432 -0.1883  0.0628 -0.2607
 3496TIP3    H110431   0.546   2.634   6.420 -3.1245  0.2765  3.0554
 3496TIP3    H210432   0.508   2.775   6.383 -0.7250  0.4042  0.7763
 3497TIP3   OH210433   4.687   2.266   4.933  0.3982  0.1308  0.2915
 3497TIP3    H110434   4.747   2.193   4.922  1.6924  1.2351 -0.2097
 3497TIP3    H210435   4.643   2.275   4.849 -0.7663 -0.8745  0.7495
 3498TIP3   OH210436   6.716   0.587   3.699  0.6509  0.2550 -0.2589
 3498TIP3    H110437   6.753   0.608   3.785 -0.0646 -1.5251  0.5257
 3498TIP3    H210438   6.623   0.573   3.716  0.7205 -1.4168 -1.0469
 3499TIP3   OH210439   0.795   4.710   1.137 -0.2701 -0.1488  0.5336
 3499TIP3    H110440   0.880   4.673   1.115  0.6036 -0.7149  4.1701
 3499TIP3    H210441   0.745   4.636   1.171 -0.4503  0.9268  2.8170
 3500TIP3   OH210442   8.113   7.443   3.174 -0.9483 -0.4231 -0.0649
 3500TIP3    H110443   8.026   7.411   3.194 -1.1695  0.9847  1.5740
 3500TIP3    H210444   8.102   7.500   3.098 -1.3616 -0.6163 -0.1491
 3501TIP3   OH210445   1.179   2.954   2.245 -0.0269  0.3507  0.1456
 3501TIP3    H110446   1.140   2.999   2.319 -0.4631 -0.3874  0.3785
 3501TIP3    H210447   1.124   2.978   2.170  0.5937  1.3406 -0.0097
 3502TIP3   OH210448   1.370   6.224   5.306  0.4434 -0.0869 -0.2159
 3502TIP3    H110449   1.328   6.193   5.226  0.0962 -0.2023  0.0069
 3502TIP3    H210450   1.415   6.305   5.280  0.0437  0.0634 -0.4477
 3503TIP3   OH210451   8.224   2.859   5.826  0.1310 -0.4417  0.1994
 3503TIP3    H110452   8.233   2.935   5.883  0.3762 -0.7755  0.6153
 3503TIP3    H210453   8.148   2.811   5.861 -1.0439  0.4306 -1.0376
 3504TIP3   OH210454   5.948   0.310   1.657  0.3078  0.4096 -0.6465
 3504TIP3    H110455   6.011   0.320   1.585  0.8795  1.8451  0.0015
 3504TIP3    H210456   5.983   0.366   1.727 -1.3862  0.7848 -0.0559
 3505TIP3   OH210457   6.794   7.590   2.863  0.5795  0.0783 -0.3870
 3505TIP3    H110458   6.818   7.497   2.870 -1.1471 -0.3868 -0.1277
 3505TIP3    H210459   6.710   7.589   2.818 -0.4335  1.3643  1.3748
 3506TIP3   OH210460   2.333   3.641   2.999  0.5804 -0.1666  0.0285
 3506TIP3    H110461   2.354   3.659   3.091 -0.1215 -2.5076  0.7162
 3506TIP3    H210462   2.398   3.576   2.973  0.3882  0.0309 -0.9720
 3507TIP3   OH210463   6.168   3.964   5.454  0.1795  0.4517  0.0135
 3507TIP3    H110464   6.221   3.886   5.470  0.4665  0.6447  0.0240
 3507TIP3    H210465   6.113   3.973   5.532 -0.2746 -0.0689 -0.2418
 3508TIP3   OH210466   3.044   7.778   6.355 -0.1414  0.3191 -0.7139
 3508TIP3    H110467   2.994   7.856   6.379  0.1278  0.7356 -1.4624
 3508TIP3    H210468   3.135   7.808   6.353  0.2416 -0.5718  1.2313
 3509TIP3   OH210469   4.933   2.243   4.619 -0.3119 -0.4852 -0.2129
 3509TIP3    H110470   4.871   2.216   4.551 -0.2264 -1.2152 -0.0085
 3509TIP3    H210471   4.919   2.180   4.689 -1.1466  0.8780  0.8977
 3510TIP3   OH210472   2.104   6.180   1.499 -0.0502  0.3921  0.0708
 3510TIP3    H110473   2.149   6.263   1.484  1.3313 -0.5609 -1.2842
 3510TIP3    H210474   2.020   6.190   1.454 -0.7795  1.7412  1.6050
 3511TIP3   OH210475   4.378   5.257   2.051  0.1445  0.6250  0.4192
 3511TIP3    H110476   4.380   5.309   2.131 -1.2989  0.6505  0.4530
 3511TIP3    H210477   4.372   5.167   2.081  0.9344  0.5331  0.3352
 3512TIP3   OH210478   5.200   2.671   3.891  0.1003  0.4946  0.2083
 3512TIP3    H110479   5.217   2.601   3.954 -0.6822  0.8122  0.7763
 3512TIP3    H210480   5.286   2.707   3.872  0.3640  0.2827  0.9610
 3513TIP3   OH210481   0.100   1.999   5.018  0.1160  0.4879  0.3439
 3513TIP3    H110482   0.150   2.078   5.001 -1.2346  1.6086  1.3872
 3513TIP3    H210483   0.159   1.928   4.993  1.8708  1.7727  0.6507
 3514TIP3   OH210484   1.788   2.388   5.126  0.1313 -0.2457  0.0359
 3514TIP3    H110485   1.770   2.297   5.148  1.3036 -0.0302  2.1889
 3514TIP3    H210486   1.880   2.400   5.147 -0.3246  1.7687  1.1212
 3515TIP3   OH210487   3.107   6.732   2.672  0.2622 -0.0925  0.3604
 3515TIP3    H110488   3.102   6.827   2.659  1.0694 -0.0174  0.5228
 3515TIP3    H210489   3.050   6.695   2.604  0.3780  0.4853 -0.0579
 3516TIP3   OH210490   2.179   5.252   2.736  0.2393 -0.3418  0.3345
 3516TIP3    H110491   2.270   5.223   2.739 -0.1239 -1.5431  0.0608
 3516TIP3    H210492   2.161   5.284   2.825  1.8270  2.8829 -0.3441
 3517TIP3   OH210493   3.080   6.137   4.219 -0.1095 -0.3075 -0.1930
 3517TIP3    H110494   3.052   6.124   4.310 -1.7982 -0.1089 -0.6610
 3517TIP3    H210495   3.145   6.208   4.223 -1.6379  1.0916  0.6312
 3518TIP3   OH210496   2.489   3.563   1.618 -0.3889  0.1995  0.2730
 3518TIP3    H110497   2.493   3.656   1.640 -0.2987 -0.0374  1.3119
 3518TIP3    H210498   2.396   3.546   1.603 -0.3712  0.5183 -0.2046
 3519TIP3   OH210499   4.268   7.157   6.608 -0.1524  0.6109 -0.0299
 3519TIP3    H110500   4.351   7.183   6.566 -0.4365  1.9841  0.2022
 3519TIP3    H210501   4.254   7.067   6.578 -0.0814  1.3439 -2.5147
 3520TIP3   OH210502   2.758   6.936   5.877  0.1763  0.2276 -0.4392
 3520TIP3    H110503   2.679   6.990   5.879 -0.4122 -0.6181  1.3909
 3520TIP3    H210504   2.734   6.857   5.926  1.1495 -1.5067 -2.5536
 3521TIP3   OH210505   1.494   5.899   1.930  0.5785 -0.1999 -0.8511
 3521TIP3    H110506   1.472   5.819   1.883  0.1069 -0.2930 -0.4786
 3521TIP3    H210507   1.576   5.879   1.975  0.7324 -0.2990 -1.1739
 3522TIP3   OH210508   1.390   0.949   4.491 -0.2451  0.0884  0.0933
 3522TIP3    H110509   1.456   0.905   4.438 -1.2866 -1.6510  0.1588
 3522TIP3    H210510   1.387   0.899   4.572 -1.2509  0.4797  0.3122
 3523TIP3   OH210511   3.299   3.064   5.274 -0.6145  0.1569 -0.3216
 3523TIP3    H110512   3.307   3.133   5.208  1.7478  1.7267  1.4229
 3523TIP3    H210513   3.289   3.111   5.357 -0.2630 -1.6300  0.7839
 3524TIP3   OH210514   4.633   2.025   2.834 -0.0025 -0.3422 -0.0835
 3524TIP3    H110515   4.599   2.065   2.754  1.4290 -1.0678 -1.1052
 3524TIP3    H210516   4.694   2.090   2.868  0.2500 -0.4989 -0.2293
 3525TIP3   OH210517   1.398   6.225   0.463 -0.4285  0.3840 -0.0693
 3525TIP3    H110518   1.403   6.201   0.371  1.2230 -2.0184  0.5540
 3525TIP3    H210519   1.312   6.266   0.472 -0.8330  0.2310 -2.5642
 3526TIP3   OH210520   6.534   3.774   2.109 -0.0256  0.1504 -0.2813
 3526TIP3    H110521   6.572   3.862   2.111 -0.1815  0.2042  1.1745
 3526TIP3    H210522   6.552   3.742   2.020 -1.0300  2.0855 -1.2339
 3527TIP3   OH210523   7.123   5.904   5.119 -0.0951 -0.5706  0.1028
 3527TIP3    H110524   7.204   5.891   5.168 -0.8572 -0.9033  1.3128
 3527TIP3    H210525   7.143   5.872   5.031  1.2888  0.0045  0.1779
 3528TIP3   OH210526   2.021   0.052   2.589 -0.2593  0.3398 -0.4463
 3528TIP3    H110527   2.026   0.144   2.561  0.2160  0.0924 -1.1882
 3528TIP3    H210528   1.931   0.026   2.568 -0.6843  0.8737  0.5798
 3529TIP3   OH210529   2.632   2.693   1.596 -0.5568  0.0888  0.1171
 3529TIP3    H110530   2.713   2.700   1.647  0.2412 -0.1565 -1.0725
 3529TIP3    H210531   2.624   2.777   1.553 -0.6041 -0.1012 -0.2464
 3530TIP3   OH210532   1.156   0.266   5.156 -0.0427 -0.3593 -0.1381
 3530TIP3    H110533   1.153   0.327   5.082  0.1785  0.6558  0.6633
 3530TIP3    H210534   1.157   0.179   5.116 -1.6918  0.1021 -1.2919
 3531TIP3   OH210535   4.372   7.712   0.280 -0.7678  0.3255 -0.3281
 3531TIP3    H110536   4.369   7.750   0.367 -0.9533 -0.6704  0.1115
 3531TIP3    H210537   4.451   7.749   0.240 -0.4910  0.5190  0.3896
 3532TIP3   OH210538   6.605   6.836   0.489  0.0196  0.6692 -0.0884
 3532TIP3    H110539   6.543   6.767   0.464 -0.4197  0.6178  1.0874
 3532TIP3    H210540   6.602   6.838   0.584  2.7689 -0.1607  0.0854
 3533TIP3   OH210541   7.911   1.204   4.971 -0.1048 -0.0825  0.1431
 3533TIP3    H110542   7.994   1.221   5.016 -0.0363 -0.6852  0.2582
 3533TIP3    H210543   7.934   1.141   4.903 -0.5205 -0.4843  0.3699
 3534TIP3   OH210544   2.072   1.899   1.792 -0.5210 -0.0429 -0.0568
 3534TIP3    H110545   1.987   1.928   1.760  0.5692  2.1611 -1.1407
 3534TIP3    H210546   2.092   1.820   1.741 -3.1676 -2.5068  2.3449
 3535TIP3   OH210547   1.757   5.550   2.708 -0.3021 -0.3314  0.1569
 3535TIP3    H110548   1.729   5.642   2.709  2.6867  0.7577  3.3685
 3535TIP3    H210549   1.806   5.541   2.627  1.2680  1.6843  0.7874
 3536TIP3   OH210550   5.841   5.489   1.254  0.1807 -0.1785 -0.6210
 3536TIP3    H110551   5.928   5.527   1.239  0.6868 -1.2823 -0.5779
 3536TIP3    H210552   5.783   5.539   1.196  0.8272  0.6104 -0.6090
 3537TIP3   OH210553   6.654   4.020   3.834  0.0415 -0.1130 -0.0039
 3537TIP3    H110554   6.628   3.999   3.924 -0.0863  1.2340  0.2936
 3537TIP3    H210555   6.731   4.075   3.843  0.7928 -1.0161 -0.7784
 3538TIP3   OH210556   3.684   1.991   4.376 -0.3026  0.4354 -0.0080
 3538TIP3    H110557   3.736   1.961   4.450  1.4313  1.1004 -0.9199
 3538TIP3    H210558   3.682   2.087   4.385 -0.5808  0.4794 -0.5038
 3539TIP3   OH210559   5.139   3.440   2.625  0.5801  0.8182 -0.3512
 3539TIP3    H110560   5.142   3.501   2.551  0.6726  0.4767 -0.6254
 3539TIP3    H210561   5.059   3.465   2.672  1.4253  2.2030  0.4381
 3540TIP3   OH210562   5.687   1.006   4.399  0.8105  0.1140 -0.2985
 3540TIP3    H110563   5.678   0.911   4.393 -0.5481  0.3158 -1.9870
 3540TIP3    H210564   5.764   1.019   4.455  1.2286 -1.9694 -0.3176
 3541TIP3   OH210565   3.306   7.066   1.354  0.0087 -0.4753  0.0516
 3541TIP3    H110566   3.314   7.155   1.387  1.1061 -0.8168  0.7459
 3541TIP3    H210567   3.376   7.058   1.289 -3.1576  0.7766 -3.9486
 3542TIP3   OH210568   4.865   1.979   0.015 -0.4277  0.2841  0.1331
 3542TIP3    H110569   4.783   1.930   0.013 -0.3699  0.0771  1.8989
 3542TIP3    H210570   4.839   2.068   0.035 -0.3398  0.5921 -1.0156
 3543TIP3   OH210571   3.508   6.866   3.458  0.3069  0.7142  0.0255
 3543TIP3    H110572   3.446   6.849   3.387  0.8173 -0.4193 -0.1792
 3543TIP3    H210573   3.576   6.799   3.447 -0.7854 -1.1011  2.9287
 3544TIP3   OH210574   6.075   7.407   5.187  0.2326  0.1067 -0.2185
 3544TIP3    H110575   6.096   7.480   5.129 -1.6206  0.4671 -0.5065
 3544TIP3    H210576   6.091   7.329   5.134  0.6749  0.3554 -0.4564
 3545TIP3   OH210577   5.711   1.651   5.428  0.0434  0.2973  0.2509
 3545TIP3    H110578   5.757   1.568   5.442 -1.5562 -0.6764  0.0259
 3545TIP3    H210579   5.620   1.631   5.450 -0.6056  1.6423 -1.0577
 3546TIP3   OH210580   3.049   3.071   3.974 -0.2457  0.6177  0.2936
 3546TIP3    H110581   3.005   2.992   4.006 -0.3888  0.8131  0.5817
 3546TIP3    H210582   2.979   3.135   3.961 -0.6003 -0.2746 -3.0709
 3547TIP3   OH210583   8.240   3.089   1.545  0.3971 -0.0482 -0.4632
 3547TIP3    H110584   8.292   3.136   1.479 -0.6567 -1.0217 -2.0249
 3547TIP3    H210585   8.159   3.066   1.501  0.2014 -1.9241  0.7605
 3548TIP3   OH210586   5.564   6.854   3.664 -0.2923 -0.5534 -0.2574
 3548TIP3    H110587   5.651   6.892   3.665 -0.3655 -0.2669 -1.7512
 3548TIP3    H210588   5.574   6.772   3.617 -1.3090  0.9743 -3.4425
 3549TIP3   OH210589   4.941   4.505   6.015  0.3023  0.1427  0.2994
 3549TIP3    H110590   4.911   4.479   5.929  1.5033  0.9303 -0.3930
 3549TIP3    H210591   4.941   4.601   6.013  1.7181  0.1736  0.6408
 3550TIP3   OH210592   0.122   6.535   5.204 -0.2310  0.4548  0.1118
 3550TIP3    H110593   0.066   6.601   5.162  0.5029  0.5296 -0.7778
 3550TIP3    H210594   0.133   6.567   5.293 -0.9864  0.8237  0.0876
 3551TIP3   OH210595   6.637   7.222   0.209 -0.1766 -0.5362 -0.0798
 3551TIP3    H110596   6.704   7.200   0.273 -1.3785 -1.8059  0.8073
 3551TIP3    H210597   6.581   7.144   0.206 -0.0534 -0.6026 -2.8409
 3552TIP3   OH210598   1.023   7.658   4.735  0.5626 -0.2320  0.2554
 3552TIP3    H110599   0.968   7.698   4.668  0.3842 -1.5608 -0.4049
 3552TIP3    H210600   1.026   7.724   4.805 -0.0039  0.7844 -0.6500
 3553TIP3   OH210601   5.151   4.959   2.811  0.4720 -0.8889  0.5190
 3553TIP3    H110602   5.092   4.916   2.873  0.9118  0.5296  1.9596
 3553TIP3    H210603   5.120   5.049   2.806  0.2420 -1.0358 -1.6147
 3554TIP3   OH210604   6.268   1.339   0.731 -0.1753  0.6831 -0.1825
 3554TIP3    H110605   6.337   1.313   0.791 -0.6817 -2.1861 -0.7103
 3554TIP3    H210606   6.203   1.384   0.786 -0.2706 -1.1916  1.3333
 3555TIP3   OH210607   7.240   6.448   0.486 -0.2310 -0.7112 -0.7987
 3555TIP3    H110608   7.260   6.382   0.419 -1.7033 -1.4140 -0.5975
 3555TIP3    H210609   7.145   6.459   0.480 -0.3917 -0.7803  1.1615
 3556TIP3   OH210610   6.701   4.678   5.478 -0.0433  0.2898  0.3238
 3556TIP3    H110611   6.656   4.701   5.560 -0.6801  2.0481 -0.4788
 3556TIP3    H210612   6.651   4.723   5.410  1.9212  0.8931 -0.7857
 3557TIP3   OH210613   3.172   5.882   0.947  0.1638  0.7708  0.7246
 3557TIP3    H110614   3.140   5.832   0.872  1.9750  0.9942 -0.2538
 3557TIP3    H210615   3.187   5.816   1.015  0.4619  0.2723  0.1832
 3558TIP3   OH210616   6.851   0.896   3.204 -0.4026  0.2709  0.2438
 3558TIP3    H110617   6.918   0.829   3.213 -1.6179 -0.8770  1.2415
 3558TIP3    H210618   6.775   0.861   3.250 -1.1252  2.3170  0.7415
 3559TIP3   OH210619   8.223   3.138   5.139  0.3712 -0.4744  0.4520
 3559TIP3    H110620   8.136   3.105   5.161  0.2839 -0.9051 -0.4975
 3559TIP3    H210621   8.212   3.179   5.053  1.3710 -1.6857 -0.2712
 3560TIP3   OH210622   2.211   3.906   3.965  0.1849  0.1823  0.1595
 3560TIP3    H110623   2.161   3.987   3.963  0.4422  0.3336 -1.2632
 3560TIP3    H210624   2.156   3.842   3.919  0.7859  0.0627 -0.4239
 3561TIP3   OH210625   3.710   5.621   2.529 -0.3552  0.2329  0.0644
 3561TIP3    H110626   3.746   5.623   2.441 -0.3240  0.2437  0.0776
 3561TIP3    H210627   3.625   5.577   2.519  0.5529 -1.7156  0.3591
 3562TIP3   OH210628   0.737   7.060   5.264  0.1851  0.0980  0.5532
 3562TIP3    H110629   0.704   7.146   5.240  1.5746  1.2726  2.4677
 3562TIP3    H210630   0.813   7.046   5.207 -0.1397  0.0595  0.1288
 3563TIP3   OH210631   4.106   5.349   2.219 -0.5200 -0.2559  0.5154
 3563TIP3    H110632   4.112   5.442   2.201 -0.2331  0.1606  2.5221
 3563TIP3    H210633   4.023   5.321   2.180 -0.4145  0.7323 -0.4465
 3564TIP3   OH210634   3.412   2.948   1.124  0.0388  0.4858 -0.1363
 3564TIP3    H110635   3.324   2.986   1.127 -0.2204 -0.0923 -0.2805
 3564TIP3    H210636   3.437   2.937   1.216 -0.5989 -0.5997 -0.0712
 3565TIP3   OH210637   6.114   0.584   5.435  0.0293  0.5199  0.2365
 3565TIP3    H110638   6.143   0.546   5.352 -2.8486 -0.9315 -0.2553
 3565TIP3    H210639   6.082   0.509   5.486  1.3751  1.4148  2.5826
 3566TIP3   OH210640   6.242   5.525   1.542  0.0919 -0.0662 -0.1907
 3566TIP3    H110641   6.212   5.490   1.626 -0.2480 -0.4217 -0.4574
 3566TIP3    H210642   6.295   5.601   1.565  2.2656 -1.7090  0.4950
 3567TIP3   OH210643   6.224   0.293   0.742 -0.4700 -0.7468 -0.7330
 3567TIP3    H110644   6.314   0.324   0.751 -1.1858  0.9421  1.6569
 3567TIP3    H210645   6.173   0.371   0.722 -1.7020 -1.1606  0.5878
 3568TIP3   OH210646   6.193   6.348   6.362 -0.5984 -0.0201  0.2882
 3568TIP3    H110647   6.236   6.323   6.280 -0.4094  1.3536 -0.0539
 3568TIP3    H210648   6.264   6.347   6.427  0.1865  2.7739 -0.3784
 3569TIP3   OH210649   2.291   4.349   1.942  0.7648 -0.5577 -0.1743
 3569TIP3    H110650   2.386   4.358   1.931  0.7398  0.1006  0.0896
 3569TIP3    H210651   2.280   4.327   2.034  0.6448 -0.3469 -0.1382
 3570TIP3   OH210652   4.978   3.508   6.751 -0.0812 -0.0213  0.0464
 3570TIP3    H110653   5.046   3.542   6.692  1.3582 -0.4055  1.4041
 3570TIP3    H210654   4.978   3.414   6.735 -1.3968  0.1353 -1.0190
 3571TIP3   OH210655   8.271   1.182   0.618 -0.1339  0.4712  0.0990
 3571TIP3    H110656   8.203   1.175   0.550  0.9011  0.5847 -0.9908
 3571TIP3    H210657   8.239   1.128   0.690 -0.6444 -0.8273 -1.0473
 3572TIP3   OH210658   3.494   6.593   1.922  0.0094  0.0426  0.1796
 3572TIP3    H110659   3.431   6.573   1.853  0.6692  1.4743 -0.8992
 3572TIP3    H210660   3.442   6.635   1.990 -0.1338  2.1823 -1.1524
 3573TIP3   OH210661   6.258   5.289   0.676 -0.3979  0.0241  0.0723
 3573TIP3    H110662   6.215   5.236   0.742 -0.4817 -1.3587 -1.0369
 3573TIP3    H210663   6.352   5.281   0.695 -0.4251 -0.3326  0.0537
 3574TIP3   OH210664   1.489   2.707   6.671 -0.0210  0.0798  0.2798
 3574TIP3    H110665   1.418   2.723   6.609 -0.3380  2.4219  1.1209
 3574TIP3    H210666   1.476   2.617   6.700 -2.1164  0.1462 -0.2807
 3575TIP3   OH210667   0.688   0.218   5.734  0.2968 -0.4160  0.8685
 3575TIP3    H110668   0.733   0.155   5.677  1.6779  1.3752 -0.1341
 3575TIP3    H210669   0.607   0.238   5.688  0.6630 -0.1806  0.3111
 3576TIP3   OH210670   3.669   0.294   3.957  0.3002 -0.3426  0.1436
 3576TIP3    H110671   3.687   0.386   3.980  1.6784 -0.5326 -0.0704
 3576TIP3    H210672   3.640   0.298   3.866  0.5573 -0.1307  0.0694
 3577TIP3   OH210673   4.952   6.208   0.296 -0.0138 -0.0578 -0.1429
 3577TIP3    H110674   5.015   6.279   0.280  0.2697 -0.2249  0.2105
 3577TIP3    H210675   5.006   6.136   0.329 -0.4354 -0.0951  0.4759
 3578TIP3   OH210676   2.050   6.966   6.044 -0.4918 -0.3984 -0.0642
 3578TIP3    H110677   2.114   6.969   5.973 -0.7111  1.0258 -0.2413
 3578TIP3    H210678   2.102   6.977   6.124 -0.5370  1.7167 -0.2603
 3579TIP3   OH210679   3.065   4.387   2.699  0.0878  0.5011  0.4088
 3579TIP3    H110680   3.060   4.295   2.724 -0.3370  0.4193  0.0298
 3579TIP3    H210681   3.158   4.409   2.706  0.5176 -0.5234 -1.5020
 3580TIP3   OH210682   0.697   1.646   3.056 -0.0120  0.0401  0.3976
 3580TIP3    H110683   0.603   1.638   3.066  0.1727 -1.6639  1.0599
 3580TIP3    H210684   0.732   1.634   3.144  0.8209  1.0174  0.2215
 3581TIP3   OH210685   0.735   2.106   2.446 -0.3322 -0.1608 -0.0332
 3581TIP3    H110686   0.750   2.014   2.423  1.7532  0.0190  0.3948
 3581TIP3    H210687   0.823   2.143   2.452 -1.1480  2.0533 -0.9054
 3582TIP3   OH210688   6.749   5.290   3.505 -0.1126 -0.0601  0.2712
 3582TIP3    H110689   6.674   5.335   3.465 -1.1243 -0.1338  1.9523
 3582TIP3    H210690   6.740   5.199   3.478 -0.6337 -0.0635  0.4428
 3583TIP3   OH210691   0.134   0.917   1.085 -0.0916  0.0918 -0.2343
 3583TIP3    H110692   0.055   0.890   1.037  0.2884 -0.7217 -0.4126
 3583TIP3    H210693   0.155   1.003   1.049 -0.3691 -0.0861 -0.8434
 3584TIP3   OH210694   4.328   3.935   4.715 -0.3325  0.2292  0.8001
 3584TIP3    H110695   4.378   3.998   4.663  0.5251 -0.6290  0.5622
 3584TIP3    H210696   4.238   3.969   4.713 -0.3020  0.3147 -1.1285
 3585TIP3   OH210697   2.753   0.413   3.343 -0.0345 -0.4349 -0.5821
 3585TIP3    H110698   2.673   0.402   3.290  0.0519 -0.2697 -0.7484
 3585TIP3    H210699   2.731   0.484   3.403  0.0773 -0.2066 -0.8068
 3586TIP3   OH210700   5.685   1.022   5.388  0.3026 -0.6139  0.0791
 3586TIP3    H110701   5.628   0.979   5.452 -0.4099  2.0394  1.3833
 3586TIP3    H210702   5.771   1.021   5.428  0.8728 -2.8712 -1.0159
 3587TIP3   OH210703   3.197   5.846   0.201 -0.2602 -0.1365 -0.6121
 3587TIP3    H110704   3.120   5.871   0.252  0.3686  1.5675 -0.4397
 3587TIP3    H210705   3.268   5.900   0.237  1.5573 -3.1247  0.6818
 3588TIP3   OH210706   1.882   5.535   2.266 -0.1062 -0.1408 -0.3515
 3588TIP3    H110707   1.827   5.481   2.209 -1.2241  0.2735  0.2900
 3588TIP3    H210708   1.869   5.624   2.234 -1.4124  0.2071  1.0100
 3589TIP3   OH210709   3.268   0.259   3.192 -0.0916 -0.4120 -0.7537
 3589TIP3    H110710   3.263   0.342   3.144  0.7100 -0.2250 -0.5302
 3589TIP3    H210711   3.177   0.231   3.201 -0.3527  0.3094 -1.0682
 3590TIP3   OH210712   5.685   6.514   6.399  0.1461  0.2884  0.3661
 3590TIP3    H110713   5.777   6.504   6.376 -0.2831 -0.3235 -1.1758
 3590TIP3    H210714   5.683   6.586   6.462  1.3649  2.3436 -1.7990
 3591TIP3   OH210715   0.548   4.512   1.643  0.7869  0.2195 -0.2926
 3591TIP3    H110716   0.503   4.438   1.683  2.4084 -1.8834 -2.0784
 3591TIP3    H210717   0.580   4.564   1.716  0.4575 -1.4129  1.0726
 3592TIP3   OH210718   2.731   1.904   0.508 -0.0348  0.3661  0.5023
 3592TIP3    H110719   2.743   1.995   0.535 -0.1424  0.8530 -1.0228
 3592TIP3    H210720   2.812   1.882   0.462  0.5982 -0.8046  2.0835
 3593TIP3   OH210721   7.645   3.585   3.976 -0.1317  1.1178 -0.0847
 3593TIP3    H110722   7.670   3.606   4.067 -0.6679 -1.1227  0.6391
 3593TIP3    H210723   7.623   3.492   3.978 -3.5982  1.7626 -1.7821
 3594TIP3   OH210724   6.877   7.344   0.511 -0.1134 -0.2374  0.1791
 3594TIP3    H110725   6.904   7.414   0.570  0.9308  0.5685 -1.1965
 3594TIP3    H210726   6.885   7.382   0.423 -1.4313 -1.4530 -0.5080
 3595TIP3   OH210727   2.469   1.685   2.009  0.0626  0.1326  0.2372
 3595TIP3    H110728   2.386   1.639   1.994 -0.7798  1.7548 -0.2890
 3595TIP3    H210729   2.446   1.777   2.009  1.9195  0.6451 -0.1946
 3596TIP3   OH210730   6.480   7.322   2.569 -0.2476 -0.4051 -0.2973
 3596TIP3    H110731   6.538   7.250   2.594 -0.2221 -0.2325  0.1403
 3596TIP3    H210732   6.520   7.400   2.608  0.2256 -0.0031 -1.5349
 3597TIP3   OH210733   5.097   3.744   4.475  0.1086 -0.5298  0.4108
 3597TIP3    H110734   5.080   3.687   4.400  0.3138  0.4002 -0.3556
 3597TIP3    H210735   5.178   3.710   4.513 -0.3232 -1.3831  0.5943
 3598TIP3   OH210736   2.878   2.755   2.760 -0.1846 -0.1947  0.3248
 3598TIP3    H110737   2.841   2.769   2.847  1.9581 -0.2750  1.3198
 3598TIP3    H210738   2.921   2.670   2.765 -1.2144 -0.8670 -1.2953
 3599TIP3   OH210739   0.048   4.107   6.297  0.3385 -0.2901 -0.0297
 3599TIP3    H110740   0.123   4.102   6.356  0.8573 -0.0337 -0.6558
 3599TIP3    H210741   0.017   4.198   6.306  0.2092 -0.3467  0.1000
 3600TIP3   OH210742   8.126   1.597   6.391 -0.3044  0.0391  0.1388
 3600TIP3    H110743   8.214   1.619   6.361 -0.0314  0.4643  1.2093
 3600TIP3    H210744   8.123   1.501   6.389 -1.0088 -0.0055 -3.1463
 3601TIP3   OH210745   4.246   3.384   5.292  0.3791  0.8862  0.2225
 3601TIP3    H110746   4.262   3.360   5.384  0.5930  0.2062  0.0080
 3601TIP3    H210747   4.151   3.390   5.285  0.1321 -2.3452 -0.3115
 3602TIP3   OH210748   4.071   3.547   1.866  0.2107 -0.3727  0.0866
 3602TIP3    H110749   4.137   3.484   1.838  0.8304 -0.3998  1.5222
 3602TIP3    H210750   3.999   3.535   1.804  1.2721 -0.7959 -1.1174
 3603TIP3   OH210751   1.803   0.418   1.819  1.2822  0.3594  0.7607
 3603TIP3    H110752   1.781   0.364   1.743  3.2165  0.7503 -0.1498
 3603TIP3    H210753   1.724   0.469   1.836  0.3007 -0.8459 -0.0034
 3604TIP3   OH210754   2.728   3.771   2.325 -0.2230  0.2903 -0.0033
 3604TIP3    H110755   2.820   3.772   2.353  0.2126 -0.0396 -1.3301
 3604TIP3    H210756   2.708   3.861   2.303 -0.7457  0.6614  1.7971
 3605TIP3   OH210757   2.378   1.917   4.976 -0.7484 -0.2186  0.4865
 3605TIP3    H110758   2.361   2.001   5.016  0.1245 -0.1550  0.7291
 3605TIP3    H210759   2.404   1.860   5.048 -0.3746 -0.4285  0.1909
 3606TIP3   OH210760   0.391   6.650   6.564  0.8515  0.0952  0.0988
 3606TIP3    H110761   0.451   6.575   6.560  1.3319  0.4830  0.0302
 3606TIP3    H210762   0.444   6.725   6.538 -0.1184  0.1793 -1.8371
 3607TIP3   OH210763   2.107   5.952   5.753  0.3450  0.6755 -0.4992
 3607TIP3    H110764   2.019   5.979   5.780 -0.4895 -1.9164 -0.3704
 3607TIP3    H210765   2.095   5.865   5.714  3.0663 -0.5277  1.0467
 3608TIP3   OH210766   2.334   0.260   0.672  0.5235 -0.3528  0.0378
 3608TIP3    H110767   2.359   0.180   0.626 -0.0555 -0.5853  0.1227
 3608TIP3    H210768   2.339   0.236   0.765  0.3253 -0.2930  0.0623
 3609TIP3   OH210769   3.432   0.694   0.713  0.2087  1.0674  0.1699
 3609TIP3    H110770   3.426   0.689   0.808  1.2776  0.3599  0.2196
 3609TIP3    H210771   3.522   0.721   0.696  0.1496  0.7898 -0.6397
 3610TIP3   OH210772   8.064   2.946   5.556  0.1387  0.6253 -0.1027
 3610TIP3    H110773   8.083   2.888   5.482  0.0924 -1.6405  1.5417
 3610TIP3    H210774   8.122   2.915   5.626 -2.2079  0.2870  1.8733
 3611TIP3   OH210775   3.677   3.220   4.315  0.2523 -0.5204 -0.2227
 3611TIP3    H110776   3.624   3.275   4.373  0.9253  0.5041 -0.5778
 3611TIP3    H210777   3.618   3.198   4.243  0.0972  0.0258 -0.2619
 3612TIP3   OH210778   1.212   2.147   3.027 -0.3843 -0.3644  0.3212
 3612TIP3    H110779   1.272   2.073   3.034 -1.2868 -1.6690 -3.1413
 3612TIP3    H210780   1.266   2.220   2.996  0.0184 -0.4057  0.9171
 3613TIP3   OH210781   1.590   1.258   2.086 -0.1395  0.0997  0.0269
 3613TIP3    H110782   1.549   1.325   2.142 -1.6854  0.7549 -1.7679
 3613TIP3    H210783   1.600   1.302   2.001  1.5029 -1.0754 -0.4224
 3614TIP3   OH210784   0.992   5.670   3.230  0.2278 -0.1574  0.1828
 3614TIP3    H110785   1.014   5.708   3.315 -0.9963  0.3841  0.2813
 3614TIP3    H210786   0.994   5.744   3.169 -0.5182 -0.2247  0.0613
 3615TIP3   OH210787   3.345   0.506   5.279  0.4391 -0.4233 -0.4043
 3615TIP3    H110788   3.327   0.413   5.292  0.4380 -0.7272 -2.2208
 3615TIP3    H210789   3.441   0.513   5.283  0.4717 -0.6082 -0.8035
 3616TIP3   OH210790   1.263   6.819   0.450 -0.1740 -0.5261  0.2252
 3616TIP3    H110791   1.226   6.891   0.398  0.0270 -0.5082  0.1052
 3616TIP3    H210792   1.346   6.798   0.406  0.1735 -0.2694  0.7371
 3617TIP3   OH210793   2.889   3.955   1.530  0.1301  0.7457  0.0415
 3617TIP3    H110794   2.819   3.989   1.474  0.8999  0.0523 -1.4054
 3617TIP3    H210795   2.959   3.932   1.469  1.0305 -0.0002  1.3120
 3618TIP3   OH210796   1.879   0.140   1.927  0.5166  0.0765  0.0278
 3618TIP3    H110797   1.888   0.203   1.998  1.8473  2.2040 -1.8846
 3618TIP3    H210798   1.798   0.164   1.882 -0.1581 -1.0607  0.5836
 3619TIP3   OH210799   1.194   5.413   4.550 -0.0099  0.0631  0.1575
 3619TIP3    H110800   1.174   5.475   4.620 -0.2132 -1.1982  1.2506
 3619TIP3    H210801   1.109   5.395   4.510 -0.2004 -0.6737  0.8608
 3620TIP3   OH210802   7.858   1.367   5.581 -0.1345 -0.0318 -0.3213
 3620TIP3    H110803   7.802   1.321   5.643  0.0844 -0.2112 -0.2557
 3620TIP3    H210804   7.798   1.406   5.518 -0.3276 -0.2916 -0.2970
 3621TIP3   OH210805   1.516   2.112   3.959 -0.0220 -0.7241 -0.0996
 3621TIP3    H110806   1.532   2.032   4.008  1.4461 -0.6886 -0.4750
 3621TIP3    H210807   1.581   2.174   3.993 -1.7638  0.6568  0.9001
 3622TIP3   OH210808   1.035   4.487   1.722 -0.4181 -0.3651  0.1397
 3622TIP3    H110809   1.047   4.582   1.730  0.0996 -0.4788  0.7759
 3622TIP3    H210810   0.953   4.470   1.769  0.4368 -0.4606  1.6739
 3623TIP3   OH210811   6.534   6.338   3.255 -0.0310  0.3081  0.1325
 3623TIP3    H110812   6.496   6.423   3.277 -1.0106 -0.1949  0.4513
 3623TIP3    H210813   6.607   6.327   3.316 -1.6047 -0.2861  2.0038
 3624TIP3   OH210814   3.826   5.789   3.578  0.3258 -0.4222 -0.4458
 3624TIP3    H110815   3.763   5.720   3.600  0.6440 -0.2762  0.9854
 3624TIP3    H210816   3.780   5.842   3.513 -1.1320 -0.2092  0.7043
 3625TIP3   OH210817   3.454   1.427   4.563 -0.4008 -0.3311 -0.1084
 3625TIP3    H110818   3.469   1.517   4.535  2.3297 -0.8658 -0.6239
 3625TIP3    H210819   3.420   1.383   4.485  1.0432 -0.3556 -0.7599
 3626TIP3   OH210820   1.517   4.347   0.726 -0.3420 -0.2336  0.1502
 3626TIP3    H110821   1.451   4.306   0.783  1.2187  0.0421  2.3033
 3626TIP3    H210822   1.600   4.333   0.772  0.8967  0.8719 -1.6269
 3627TIP3   OH210823   2.148   4.742   3.568  0.0648 -0.1248 -0.3145
 3627TIP3    H110824   2.105   4.661   3.540 -0.2679 -0.3094  0.6913
 3627TIP3    H210825   2.226   4.713   3.616 -0.2515  0.1211  0.3751
 3628TIP3   OH210826   1.814   2.930   4.259  0.3238 -0.1393  0.0288
 3628TIP3    H110827   1.778   2.884   4.336  0.2014  0.3980  0.2929
 3628TIP3    H210828   1.771   3.015   4.259 -1.6731 -1.0401 -2.1270
 3629TIP3   OH210829   1.790   5.469   5.821  0.0382  0.5877  0.0223
 3629TIP3    H110830   1.761   5.396   5.875 -0.1941  0.0465 -0.8016
 3629TIP3    H210831   1.710   5.520   5.806 -0.3351 -0.3537 -1.4198
 3630TIP3   OH210832   4.014   4.257   4.967 -0.1159 -0.1825  0.4750
 3630TIP3    H110833   3.987   4.169   4.943  0.9359 -0.4681  0.2853
 3630TIP3    H210834   4.098   4.245   5.011 -0.6977  0.5781  1.8928
 3631TIP3   OH210835   8.135   0.446   3.131 -0.1809  0.4695 -0.5623
 3631TIP3    H110836   8.104   0.491   3.053 -0.9972  0.3618 -0.3098
 3631TIP3    H210837   8.083   0.366   3.135  0.1773  0.2517 -0.1639
 3632TIP3   OH210838   3.037   7.146   0.687 -0.0481  0.1640 -0.1565
 3632TIP3    H110839   3.112   7.087   0.682 -0.0573  0.0021  1.1085
 3632TIP3    H210840   3.071   7.232   0.663  0.4853  0.0364  0.1332
 3633TIP3   OH210841   3.695   1.806   4.858  0.2819  0.2950 -0.3371
 3633TIP3    H110842   3.766   1.759   4.903  0.0900 -0.6031 -0.9426
 3633TIP3    H210843   3.630   1.822   4.926  1.4787  2.0290  0.4636
 3634TIP3   OH210844   5.350   4.014   6.735 -0.3080 -0.7043 -0.1663
 3634TIP3    H110845   5.429   4.048   6.777  0.4548 -0.7024 -1.5390
 3634TIP3    H210846   5.353   3.920   6.751 -0.3529 -0.6238  0.3142
 3635TIP3   OH210847   4.375   1.887   1.703 -0.1800 -0.3237 -0.0078
 3635TIP3    H110848   4.345   1.867   1.792 -2.6292 -0.2257 -0.7366
 3635TIP3    H210849   4.363   1.805   1.655  0.1591 -0.0974 -0.4829
 3636TIP3   OH210850   7.282   7.504   3.423  0.0713  0.4768  0.7545
 3636TIP3    H110851   7.326   7.429   3.464  1.2532  0.3499 -0.6718
 3636TIP3    H210852   7.215   7.530   3.486  0.3912 -1.0664  1.7816
 3637TIP3   OH210853   2.855   7.474   0.397 -0.2351 -0.6165 -0.3246
 3637TIP3    H110854   2.795   7.548   0.405 -1.1385 -1.3204 -0.4103
 3637TIP3    H210855   2.864   7.441   0.486  0.9463  0.1764 -0.1315
 3638TIP3   OH210856   6.128   4.353   5.715  0.1827 -0.1816  0.2136
 3638TIP3    H110857   6.090   4.282   5.766 -0.5000 -0.9363 -1.2689
 3638TIP3    H210858   6.160   4.310   5.635  1.0457  0.9761 -0.0987
 3639TIP3   OH210859   2.133   7.770   0.026  0.5023  0.0014  0.1844
 3639TIP3    H110860   2.092   7.751   0.110 -0.6669 -1.1832 -0.6206
 3639TIP3    H210861   2.203   7.704   0.018  0.4667 -0.0309  0.1367
 3640TIP3   OH210862   8.222   6.108   5.456 -0.0128  0.0990 -0.7322
 3640TIP3    H110863   8.261   6.039   5.404 -1.3130  0.3047 -2.0317
 3640TIP3    H210864   8.128   6.089   5.456  0.0263 -0.8997  3.0368
 3641TIP3   OH210865   8.028   0.548   6.790  0.2377  0.4057 -0.1201
 3641TIP3    H110866   8.067   0.478   6.738  3.2289  2.3785 -0.7439
 3641TIP3    H210867   8.008   0.617   6.727  0.3753  1.3743  0.8672
 3642TIP3   OH210868   2.301   3.912   5.280  0.0524  0.0207 -0.3795
 3642TIP3    H110869   2.293   3.995   5.233  0.1760 -0.3324 -1.0361
 3642TIP3    H210870   2.361   3.860   5.227  1.8988  0.3751  1.2537
 3643TIP3   OH210871   5.334   2.050   0.457 -0.4772  0.5791  0.2824
 3643TIP3    H110872   5.247   2.016   0.433 -0.3566 -0.3827  1.0973
 3643TIP3    H210873   5.318   2.139   0.486 -1.2498  0.3194  0.6879
 3644TIP3   OH210874   2.531   5.661   5.448 -0.4233 -0.0660  0.4053
 3644TIP3    H110875   2.480   5.596   5.399  0.6738 -0.8425  0.2604
 3644TIP3    H210876   2.496   5.745   5.419  1.6530 -0.3353 -3.5410
 3645TIP3   OH210877   5.155   7.006   5.069  0.0411  0.5559  0.2344
 3645TIP3    H110878   5.127   7.046   4.987 -0.5203  1.2964  0.7756
 3645TIP3    H210879   5.142   7.074   5.135 -2.4845 -0.9691  1.4683
 3646TIP3   OH210880   7.815   2.905   0.820 -0.5574 -0.5850  0.4615
 3646TIP3    H110881   7.832   2.949   0.903 -0.7296 -0.4250  0.4152
 3646TIP3    H210882   7.773   2.973   0.766  0.1823 -0.4843  0.0034
 3647TIP3   OH210883   6.874   2.082   3.683  0.1482 -0.7168  0.4674
 3647TIP3    H110884   6.959   2.102   3.645  0.7324 -0.3870  1.8699
 3647TIP3    H210885   6.823   2.163   3.672  0.0038 -0.9219 -0.3919
 3648TIP3   OH210886   4.518   4.703   0.616  0.9955 -0.1852  0.3190
 3648TIP3    H110887   4.576   4.768   0.575 -1.8352  2.6305  0.3730
 3648TIP3    H210888   4.441   4.700   0.559 -1.0306  0.2691  2.8033
 3649TIP3   OH210889   2.126   7.625   0.266 -0.3150  0.4309 -0.2169
 3649TIP3    H110890   2.035   7.637   0.293 -0.7636 -1.5082 -0.7592
 3649TIP3    H210891   2.175   7.619   0.348 -1.0069 -0.7509  0.1227
 3650TIP3   OH210892   2.441   6.240   4.404 -0.3599 -0.3318 -0.0771
 3650TIP3    H110893   2.393   6.228   4.322 -1.2888  0.4967  0.3181
 3650TIP3    H210894   2.501   6.313   4.386  1.0430 -1.5736 -0.6707
 3651TIP3   OH210895   6.102   0.490   1.882 -0.1409 -0.2526  0.6633
 3651TIP3    H110896   6.040   0.473   1.953  0.6344 -4.0326  0.6507
 3651TIP3    H210897   6.185   0.456   1.914  0.7222 -0.0734 -1.2451
 3652TIP3   OH210898   6.199   6.584   2.413  0.3934 -0.1711  0.3944
 3652TIP3    H110899   6.119   6.532   2.406 -0.0115  0.5371 -0.3424
 3652TIP3    H210900   6.258   6.547   2.347  0.8252 -0.9441  1.2026
 3653TIP3   OH210901   6.967   0.326   1.907 -0.4235 -0.4276 -0.6191
 3653TIP3    H110902   6.946   0.266   1.979 -0.7065  0.3659 -0.0304
 3653TIP3    H210903   6.885   0.371   1.888 -0.0643  0.2272 -0.6290
 3654TIP3   OH210904   6.756   0.905   3.634  0.0301 -0.0103  0.4170
 3654TIP3    H110905   6.798   0.955   3.703  0.0529  0.6277 -0.0450
 3654TIP3    H210906   6.729   0.823   3.675  1.7160 -0.4412  0.7224
 3655TIP3   OH210907   7.403   5.191   2.005 -0.6454 -0.2665 -0.2182
 3655TIP3    H110908   7.390   5.208   1.912  1.5448 -2.8261 -1.1482
 3655TIP3    H210909   7.341   5.249   2.049 -2.2178  0.6076 -3.2586
 3656TIP3   OH210910   5.380   1.829   6.193  0.0189  0.0351 -0.1693
 3656TIP3    H110911   5.328   1.808   6.271  0.0823  1.0419  0.1609
 3656TIP3    H210912   5.320   1.876   6.135  0.3155  0.4469 -0.1517
 3657TIP3   OH210913   4.033   5.541   0.416  0.2265 -0.3027  0.0869
 3657TIP3    H110914   3.971   5.607   0.385 -0.8150 -1.0970  0.3999
 3657TIP3    H210915   4.112   5.590   0.437 -0.4734  0.8253  0.1880
 3658TIP3   OH210916   8.255   5.655   0.230  0.3557 -0.0425 -0.3291
 3658TIP3    H110917   8.207   5.574   0.211 -0.3092  0.0955  0.6815
 3658TIP3    H210918   8.202   5.699   0.296  1.0294  0.9323 -0.4226
 3659TIP3   OH210919   3.297   5.863   4.241  0.3502  0.3617  0.2878
 3659TIP3    H110920   3.353   5.912   4.302 -0.0705 -0.5168  1.4079
 3659TIP3    H210921   3.221   5.837   4.294  0.4233 -1.2438 -0.3444
 3660TIP3   OH210922   7.466   2.895   1.333  0.1620 -0.1779 -0.1143
 3660TIP3    H110923   7.392   2.944   1.369 -1.1068 -2.2701  0.2518
 3660TIP3    H210924   7.441   2.803   1.342  2.7845 -0.9556 -0.0780
 3661TIP3   OH210925   4.157   7.023   2.281 -0.5053  0.1418 -0.1609
 3661TIP3    H110926   4.198   7.052   2.200  0.4798 -2.4345 -0.6643
 3661TIP3    H210927   4.191   7.083   2.347  0.3051  1.0080 -1.3224
 3662TIP3   OH210928   6.690   0.132   2.638 -0.4588 -0.0301 -0.0449
 3662TIP3    H110929   6.617   0.191   2.621  1.6333  3.0291  0.7469
 3662TIP3    H210930   6.752   0.151   2.567  0.3981 -1.1316  0.3849
 3663TIP3   OH210931   4.695   2.192   5.719  0.5135  0.2220 -0.5028
 3663TIP3    H110932   4.684   2.213   5.626  2.2057 -1.3319 -1.1145
 3663TIP3    H210933   4.611   2.214   5.758  0.0072  1.6760 -2.2412
 3664TIP3   OH210934   4.134   6.630   4.938  0.0488 -0.4372 -0.5977
 3664TIP3    H110935   4.046   6.663   4.919 -0.1722  0.7941  2.0743
 3664TIP3    H210936   4.179   6.633   4.853 -1.7969  1.0966 -1.6251
 3665TIP3   OH210937   5.375   4.499   6.447 -0.3985  0.5000 -0.1771
 3665TIP3    H110938   5.449   4.441   6.430 -2.7763 -2.5253 -0.8865
 3665TIP3    H210939   5.367   4.500   6.543  0.8547  1.3401 -0.0594
 3666TIP3   OH210940   6.536   0.862   4.219 -0.0031  0.4588 -0.4953
 3666TIP3    H110941   6.562   0.770   4.224 -0.8950  0.2551  2.1282
 3666TIP3    H210942   6.480   0.867   4.142  0.4688 -1.0641 -0.9742
 3667TIP3   OH210943   5.825   3.412   3.224  0.7114  0.1526  0.2445
 3667TIP3    H110944   5.870   3.495   3.210  0.4610  0.2939  0.2589
 3667TIP3    H210945   5.782   3.394   3.141 -0.5109  0.8297  0.6993
 3668TIP3   OH210946   1.105   4.108   3.671 -0.1098  0.3942 -0.3754
 3668TIP3    H110947   1.193   4.084   3.643  0.1396  0.6526  0.1669
 3668TIP3    H210948   1.082   4.185   3.619  0.0803  0.4651 -0.3534
 3669TIP3   OH210949   7.993   0.582   2.918 -0.1365  0.0964 -0.2774
 3669TIP3    H110950   7.927   0.650   2.908 -1.2371 -1.1043 -1.8679
 3669TIP3    H210951   7.964   0.512   2.858  0.9078 -1.7662  1.2700
 3670TIP3   OH210952   7.106   0.938   4.126 -0.1419 -0.8625  0.2749
 3670TIP3    H110953   7.071   0.906   4.209 -1.6517 -0.7514 -0.2921
 3670TIP3    H210954   7.072   1.027   4.117  1.1301 -0.3692  0.1693
 3671TIP3   OH210955   6.037   5.106   1.812 -0.0208  0.3170  0.3276
 3671TIP3    H110956   6.111   5.088   1.871  0.8902  1.8213 -0.2914
 3671TIP3    H210957   5.962   5.116   1.871  0.1200 -1.6975  0.9371
 3672TIP3   OH210958   4.630   4.207   4.948 -0.0705  0.1125  0.5202
 3672TIP3    H110959   4.701   4.145   4.931 -0.8581 -0.7488  0.3579
 3672TIP3    H210960   4.550   4.157   4.935 -0.7199  0.8602  1.4797
 3673TIP3   OH210961   5.389   7.606   6.309 -0.4671 -0.9406  0.4889
 3673TIP3    H110962   5.325   7.572   6.372 -0.8038  2.1405  1.9534
 3673TIP3    H210963   5.471   7.609   6.357  0.1024 -1.8020 -0.3784
 3674TIP3   OH210964   6.871   0.055   2.081 -1.0653  0.0839 -0.0486
 3674TIP3    H110965   6.810   0.022   2.015 -1.8415  1.6613 -0.1851
 3674TIP3    H210966   6.826   0.131   2.118  0.3917  0.6650  0.5959
 3675TIP3   OH210967   3.825   3.798   0.992  0.3248 -0.1722 -0.7957
 3675TIP3    H110968   3.879   3.792   1.071  0.4849  1.6846 -0.7110
 3675TIP3    H210969   3.756   3.861   1.016 -0.1723 -0.2968 -1.8472
 3676TIP3   OH210970   2.845   1.668   1.212 -0.5867  0.2156  0.5581
 3676TIP3    H110971   2.887   1.599   1.161 -0.7895  0.8652 -0.5177
 3676TIP3    H210972   2.759   1.633   1.234 -0.1299 -0.4534  1.3092
 3677TIP3   OH210973   6.925   7.163   1.175  0.0824  0.5111 -1.0577
 3677TIP3    H110974   6.882   7.247   1.162  0.4897  0.7392 -0.9482
 3677TIP3    H210975   7.015   7.185   1.198  0.4921  0.0273 -2.1340
 3678TIP3   OH210976   2.221   5.381   3.997 -0.1714  0.0145 -0.2288
 3678TIP3    H110977   2.286   5.355   3.932  1.0660  0.4535  0.7996
 3678TIP3    H210978   2.244   5.332   4.076 -0.6945  0.6567  0.3342
 3679TIP3   OH210979   8.021   5.494   0.379 -0.1012 -0.1259  0.3385
 3679TIP3    H110980   7.952   5.445   0.334  0.7023 -1.7222  0.7833
 3679TIP3    H210981   8.100   5.444   0.363  0.3100 -0.5307  3.1187
 3680TIP3   OH210982   5.545   4.827   5.467 -0.1248 -0.4540 -0.5439
 3680TIP3    H110983   5.563   4.832   5.373 -1.3077  1.1373 -0.7092
 3680TIP3    H210984   5.536   4.917   5.496 -1.6646 -0.9591  0.7259
 3681TIP3   OH210985   0.963   0.345   6.134  0.2664  0.1187  0.2674
 3681TIP3    H110986   0.945   0.288   6.060  0.4978 -0.4139  0.6176
 3681TIP3    H210987   1.042   0.394   6.108  0.8807 -0.7165  0.5170
 3682TIP3   OH210988   4.295   7.402   0.908  0.1328  0.1312  0.1194
 3682TIP3    H110989   4.390   7.408   0.920 -0.1560  1.5448  2.4329
 3682TIP3    H210990   4.280   7.311   0.882  2.2674  0.5293 -3.0040
 3683TIP3   OH210991   4.230   7.368   5.179  0.2227  0.4860 -0.5414
 3683TIP3    H110992   4.213   7.274   5.188 -0.5760  0.7889  1.9594
 3683TIP3    H210993   4.324   7.377   5.196  0.0245  0.2549  0.7872
 3684TIP3   OH210994   4.468   2.003   3.752  0.0897  0.1607  0.2051
 3684TIP3    H110995   4.381   2.040   3.766  0.1665  0.7953 -0.8854
 3684TIP3    H210996   4.457   1.940   3.680  0.6746  0.8642 -0.5184
 3685TIP3   OH210997   7.078   0.731   6.212  0.3638  0.1998  0.9058
 3685TIP3    H110998   7.083   0.636   6.198  1.4494  0.4215 -0.3428
 3685TIP3    H210999   6.990   0.754   6.185  0.5193 -0.2741 -0.0605
 3686TIP3   OH211000   6.409   2.449   4.136 -0.5759  0.1337 -0.4748
 3686TIP3    H111001   6.420   2.364   4.094 -0.1599 -0.5682  0.9758
 3686TIP3    H211002   6.477   2.451   4.204 -2.2534  0.4517  1.3089
 3687TIP3   OH211003   5.737   0.260   1.895 -0.0047 -0.4291  0.5020
 3687TIP3    H111004   5.783   0.185   1.856  0.7082  0.1666  0.1758
 3687TIP3    H211005   5.700   0.225   1.976 -2.1439 -1.8918 -1.0148
 3688TIP3   OH211006   6.878   0.984   5.807 -0.2670  0.2462 -0.2952
 3688TIP3    H111007   6.949   1.042   5.836 -0.1557  0.8083 -1.6410
 3688TIP3    H211008   6.803   1.009   5.862  0.3990  0.0547  0.7309
 3689TIP3   OH211009   2.408   6.552   4.184  0.1651  0.1490 -0.1910
 3689TIP3    H111010   2.379   6.552   4.275 -0.7492  3.9382 -0.3518
 3689TIP3    H211011   2.363   6.477   4.145 -0.8183 -0.5092  2.0386
 3690TIP3   OH211012   8.062   2.475   6.420  0.5475  0.7007 -0.0814
 3690TIP3    H111013   7.971   2.457   6.441  0.9842 -1.5134  0.1275
 3690TIP3    H211014   8.059   2.527   6.339 -0.9143 -2.7568 -2.4994
 3691TIP3   OH211015   2.688   7.579   6.562 -0.2303 -0.0443 -0.1319
 3691TIP3    H111016   2.737   7.641   6.617 -0.4035 -0.2028  0.2069
 3691TIP3    H211017   2.604   7.622   6.547  0.2924  0.5783 -1.3766
 3692TIP3   OH211018   2.836   0.990   3.565 -0.1774 -0.5930  0.7771
 3692TIP3    H111019   2.757   1.034   3.532 -1.1284 -2.3159  0.6232
 3692TIP3    H211020   2.810   0.953   3.649  1.0636  0.3985  1.6327
 3693TIP3   OH211021   4.654   4.086   5.746  0.0277  0.6060  0.3465
 3693TIP3    H111022   4.728   4.067   5.804 -0.3654 -0.4575  0.5233
 3693TIP3    H211023   4.649   4.182   5.745  0.9231  0.6754  0.9425
 3694TIP3   OH211024   2.357   1.505   1.018  0.3735  1.0051 -0.0992
 3694TIP3    H111025   2.376   1.588   0.974  1.2375  0.9132  0.0907
 3694TIP3    H211026   2.417   1.443   0.978  1.1510  0.9104  1.1765
 3695TIP3   OH211027   0.063   4.662   4.561 -0.1555 -0.7074  0.1609
 3695TIP3    H111028   0.129   4.729   4.546 -0.0210 -1.2231 -1.7022
 3695TIP3    H211029   0.077   4.635   4.652 -0.2014  1.7291  0.9584
 3696TIP3   OH211030   5.497   3.643   2.096  0.1272  0.2734 -0.2466
 3696TIP3    H111031   5.487   3.712   2.161 -1.0232  0.8783 -1.0519
 3696TIP3    H211032   5.550   3.682   2.027 -0.7259  0.4487 -0.8163
 3697TIP3   OH211033   1.358   1.072   5.842 -0.3270  0.3050 -0.9376
 3697TIP3    H111034   1.316   1.012   5.903  0.1739  1.2396  0.3650
 3697TIP3    H211035   1.352   1.157   5.885 -2.2149  1.4870 -3.3202
 3698TIP3   OH211036   4.032   1.829   2.611  0.4590  0.2787  0.1001
 3698TIP3    H111037   4.112   1.808   2.564 -0.1644  0.5026 -1.1245
 3698TIP3    H211038   3.977   1.874   2.546 -1.1433 -0.9446  0.5293
 3699TIP3   OH211039   4.911   3.508   5.513  0.3580 -0.1628  1.0064
 3699TIP3    H111040   4.839   3.539   5.457  0.7289 -0.0452  0.5851
 3699TIP3    H211041   4.904   3.413   5.510  0.9977 -0.2053 -0.1109
 3700TIP3   OH211042   4.248   3.318   5.558  0.3166 -0.3986 -0.2308
 3700TIP3    H111043   4.187   3.384   5.591 -0.6328 -0.8439 -1.0381
 3700TIP3    H211044   4.253   3.253   5.628 -1.7483 -1.3865 -0.9417
 3701TIP3   OH211045   6.550   5.201   5.657  0.4673  0.1367  0.1733
 3701TIP3    H111046   6.475   5.141   5.662 -0.4881  1.2001 -0.9162
 3701TIP3    H211047   6.607   5.163   5.590 -0.7894  1.1022 -1.4988
 3702TIP3   OH211048   0.579   5.979   0.261  1.1000 -0.0706 -0.4318
 3702TIP3    H111049   0.617   5.982   0.349 -1.1777  0.3022  0.6358
 3702TIP3    H211050   0.591   6.068   0.227  1.2094  0.0380 -0.1142
 3703TIP3   OH211051   6.882   0.288   5.759  0.1189  0.4182  0.1823
 3703TIP3    H111052   6.799   0.334   5.753  0.6792  1.3928 -0.3505
 3703TIP3    H211053   6.939   0.333   5.697  0.9579 -0.4311  0.3086
 3704TIP3   OH211054   3.038   3.832   3.323 -0.1250  0.1014  0.0382
 3704TIP3    H111055   3.000   3.745   3.315 -0.6929  0.3706 -0.2558
 3704TIP3    H211056   2.979   3.879   3.382 -0.9423  0.8871 -1.3431
 3705TIP3   OH211057   0.051   6.125   6.223  0.8556  0.2019 -0.2612
 3705TIP3    H111058   0.063   6.181   6.146  0.1045  0.8871  0.0986
 3705TIP3    H211059   0.108   6.164   6.290  0.4682  0.4342 -0.0636
 3706TIP3   OH211060   1.934   6.628   2.468  0.5090  0.5845  0.3028
 3706TIP3    H111061   1.926   6.664   2.379  1.1957  1.6640  0.6494
 3706TIP3    H211062   1.845   6.628   2.502 -0.0701 -1.6534 -1.0180
 3707TIP3   OH211063   1.315   0.470   1.633  0.4340 -0.2460 -0.0330
 3707TIP3    H111064   1.285   0.430   1.551  2.2840  1.2755 -1.5316
 3707TIP3    H211065   1.385   0.413   1.664  0.0365 -0.5741  0.2825
 3708TIP3   OH211066   2.151   4.883   6.359  0.2958 -0.3426  0.5817
 3708TIP3    H111067   2.090   4.865   6.288  1.0477 -0.8072  0.0352
 3708TIP3    H211068   2.226   4.926   6.316  0.2437  0.4842  1.2763
 3709TIP3   OH211069   2.959   7.363   4.088  0.1826  0.6927  0.0538
 3709TIP3    H111070   2.976   7.444   4.135  1.6010 -0.2987  1.3165
 3709TIP3    H211071   3.023   7.362   4.017 -0.7241  1.2870 -0.8025
 3710TIP3   OH211072   1.042   2.446   4.937 -0.3204 -0.0833 -0.0372
 3710TIP3    H111073   0.952   2.471   4.956  0.1944  1.7548  0.1172
 3710TIP3    H211074   1.094   2.521   4.964  1.1993 -0.8221 -0.8050
 3711TIP3   OH211075   1.215   5.281   3.394 -0.8045 -0.2118  0.4461
 3711TIP3    H111076   1.176   5.336   3.461 -0.3558  1.9687 -0.9798
 3711TIP3    H211077   1.154   5.208   3.384 -2.5368  1.1216  0.9169
 3712TIP3   OH211078   7.134   1.933   3.939  0.2101  0.4323 -0.2841
 3712TIP3    H111079   7.135   1.870   3.867  0.2026  0.8751 -0.6796
 3712TIP3    H211080   7.182   2.009   3.905  0.6501  0.4528  0.3581
 3713TIP3   OH211081   6.424   3.027   0.907  0.1846  0.0142 -0.4695
 3713TIP3    H111082   6.401   3.090   0.975 -3.5335  0.4850 -1.9408
 3713TIP3    H211083   6.489   3.071   0.853 -0.1858  1.4281  0.2085
 3714TIP3   OH211084   3.850   5.371   5.724  0.1217  0.0337  0.7788
 3714TIP3    H111085   3.909   5.303   5.756  2.2465  1.5285  0.2871
 3714TIP3    H211086   3.843   5.433   5.796  0.9817  0.9651  0.0891
 3715TIP3   OH211087   4.149   4.748   5.547  0.0294 -0.0458  0.2361
 3715TIP3    H111088   4.135   4.733   5.640  0.2441  1.7398  0.5933
 3715TIP3    H211089   4.242   4.730   5.533 -0.1662 -1.0859  0.1772
 3716TIP3   OH211090   4.616   1.487   1.036 -0.3921  0.5480  0.9280
 3716TIP3    H111091   4.557   1.413   1.050  0.4158  0.1920  2.8355
 3716TIP3    H211092   4.563   1.564   1.056 -0.6395  0.3291  1.1163
 3717TIP3   OH211093   4.204   1.531   0.728  0.0133 -0.3534 -0.0814
 3717TIP3    H111094   4.172   1.562   0.813 -0.3967  1.3292 -0.8015
 3717TIP3    H211095   4.198   1.436   0.733 -0.9491 -0.2520  1.4049
 3718TIP3   OH211096   6.379   0.768   1.779  0.8028  0.8293  0.0569
 3718TIP3    H111097   6.412   0.758   1.868  0.0146 -0.2834  0.2415
 3718TIP3    H211098   6.458   0.779   1.725  1.4156 -0.5890  0.6345
 3719TIP3   OH211099   6.992   7.719   0.225  0.3433  0.1668  0.1810
 3719TIP3    H111100   6.958   7.804   0.196 -0.1886 -0.1751 -0.1984
 3719TIP3    H211101   7.028   7.737   0.312  1.6381  1.1249 -0.5186
 3720TIP3   OH211102   4.642   6.318   4.282 -0.1707 -0.1353  0.1975
 3720TIP3    H111103   4.630   6.270   4.364 -1.5691 -1.0775 -0.5197
 3720TIP3    H211104   4.717   6.277   4.240 -1.2687 -1.6806 -0.3456
 3721TIP3   OH211105   6.636   0.850   2.061  0.0871  0.3496 -0.3592
 3721TIP3    H111106   6.583   0.858   2.141 -0.8401  2.6243 -1.1116
 3721TIP3    H211107   6.626   0.759   2.035 -0.1398 -0.2865  1.7434
 3722TIP3   OH211108   4.451   0.566   6.311 -0.3092  0.5048  0.6287
 3722TIP3    H111109   4.492   0.493   6.265 -0.6664 -0.0109  1.1300
 3722TIP3    H211110   4.417   0.622   6.241  0.9400  0.7744  0.2057
 3723TIP3   OH211111   3.449   3.582   1.774 -0.7427 -0.5151  0.1738
 3723TIP3    H111112   3.513   3.651   1.788 -0.7042 -0.2191 -1.2863
 3723TIP3    H211113   3.426   3.553   1.862  0.3369  0.3346  0.7705
 3724TIP3   OH211114   7.942   0.308   2.766 -0.6683  0.5064 -0.3289
 3724TIP3    H111115   7.910   0.326   2.678  0.6867 -1.6552 -1.3355
 3724TIP3    H211116   8.037   0.309   2.758 -0.4635  1.8781  1.5056
 3725TIP3   OH211117   3.544   1.600   2.501  0.7598  0.1045  0.3902
 3725TIP3    H111118   3.510   1.512   2.485  1.5522 -0.1767  0.2144
 3725TIP3    H211119   3.637   1.586   2.523  0.5297  0.7563  1.8758
 3726TIP3   OH211120   7.742   1.806   4.485 -0.2218 -0.1138  0.1460
 3726TIP3    H111121   7.764   1.885   4.534 -1.7812  1.2556 -1.1951
 3726TIP3    H211122   7.819   1.790   4.430 -0.5164  1.5646 -0.8397
 3727TIP3   OH211123   7.855   2.008   4.908  0.2392 -0.3079 -0.3109
 3727TIP3    H111124   7.934   1.954   4.902 -0.1932 -1.0863  0.6495
 3727TIP3    H211125   7.785   1.946   4.929 -0.4820  0.4793 -0.3413
 3728TIP3   OH211126   7.031   4.478   1.637 -0.4930  0.3279 -0.2002
 3728TIP3    H111127   6.996   4.471   1.726  0.4558  0.6438  0.2004
 3728TIP3    H211128   7.026   4.389   1.603  1.8983 -0.4584  1.2381
 3729TIP3   OH211129   6.298   5.879   3.635  0.1264  0.3439  0.4463
 3729TIP3    H111130   6.324   5.854   3.723  1.3515 -3.0349 -0.7169
 3729TIP3    H211131   6.204   5.862   3.632  0.1675  0.0333  0.9514
 3730TIP3   OH211132   0.206   0.481   1.994  0.4077 -0.4512 -0.0500
 3730TIP3    H111133   0.301   0.488   1.989  0.3082  1.0827 -0.3022
 3730TIP3    H211134   0.175   0.572   1.994 -1.0717 -0.9244 -0.2793
 3731TIP3   OH211135   5.378   4.784   0.986  1.0619  0.0711 -0.0880
 3731TIP3    H111136   5.302   4.755   1.036 -0.7032  0.3308 -2.4464
 3731TIP3    H211137   5.453   4.756   1.039 -0.6247 -0.9383  1.9437
 3732TIP3   OH211138   2.024   1.320   4.534  0.4037 -0.5458  0.5482
 3732TIP3    H111139   2.030   1.395   4.474  0.0256  0.4649  1.7220
 3732TIP3    H211140   2.070   1.249   4.490  0.7081  0.3615 -0.6301
 3733TIP3   OH211141   3.834   4.513   3.412 -0.0579  0.0311 -0.2433
 3733TIP3    H111142   3.745   4.480   3.427  0.6273 -1.3906  1.0074
 3733TIP3    H211143   3.855   4.484   3.324  0.5577 -3.2682  0.8263
 3734TIP3   OH211144   6.713   7.447   3.695  0.5821  0.0570 -0.0416
 3734TIP3    H111145   6.757   7.524   3.658 -1.0584  0.8353 -0.4594
 3734TIP3    H211146   6.720   7.458   3.790  1.0592  0.2988 -0.1019
 3735TIP3   OH211147   1.434   6.032   2.536  0.3482  0.6912 -0.0001
 3735TIP3    H111148   1.405   6.036   2.445  0.1801 -0.1205  0.0111
 3735TIP3    H211149   1.430   6.123   2.566 -0.2809  0.8709 -0.5923
 3736TIP3   OH211150   7.197   0.208   5.688  0.1115  0.0394  0.1507
 3736TIP3    H111151   7.208   0.154   5.610  1.2158 -0.6357  0.7488
 3736TIP3    H211152   7.174   0.295   5.653 -0.3885 -0.4838 -0.8723
 3737TIP3   OH211153   0.556   5.618   0.555  0.0874 -0.1081 -0.3928
 3737TIP3    H111154   0.563   5.642   0.463 -1.8098 -1.8470 -1.0712
 3737TIP3    H211155   0.513   5.692   0.596  1.5255  0.9598 -0.7129
 3738TIP3   OH211156   4.403   4.861   0.821  0.0401 -0.3361 -0.5152
 3738TIP3    H111157   4.472   4.890   0.880 -0.5163 -1.4914  0.7571
 3738TIP3    H211158   4.449   4.813   0.752  0.6170  0.1922 -0.5095
 3739TIP3   OH211159   3.905   6.871   6.500 -0.1797  0.9941 -0.7486
 3739TIP3    H111160   3.931   6.789   6.458  1.2581  1.3156 -0.5429
 3739TIP3    H211161   3.822   6.851   6.542 -1.5100  0.5637 -3.3919
 3740TIP3   OH211162   5.089   0.016   2.324  0.0911 -0.0317 -0.4440
 3740TIP3    H111163   5.041   0.012   2.241 -0.9201  2.7579 -0.0606
 3740TIP3    H211164   5.108   0.108   2.337  0.9093 -0.4796  2.0904
 3741TIP3   OH211165   1.097   6.421   6.551  0.1427 -0.1160 -0.3175
 3741TIP3    H111166   1.044   6.497   6.529 -0.1460 -0.4896 -0.9177
 3741TIP3    H211167   1.093   6.365   6.474  0.5750 -0.6191  0.0165
 3742TIP3   OH211168   8.252   0.273   2.751 -0.6032  0.0507  0.1631
 3742TIP3    H111169   8.269   0.179   2.752  1.6907  0.3996 -0.8957
 3742TIP3    H211170   8.297   0.307   2.829  1.1723  0.6076 -1.0496
 3743TIP3   OH211171   7.318   3.616   5.170 -0.0680 -0.2138  0.4866
 3743TIP3    H111172   7.231   3.623   5.131  1.4523 -2.1998 -3.7737
 3743TIP3    H211173   7.344   3.707   5.187 -1.3789  0.7663 -2.1843
 3744TIP3   OH211174   2.831   2.318   1.778 -0.0598 -0.4601  0.1100
 3744TIP3    H111175   2.914   2.357   1.749  0.4653 -1.4476  0.2250
 3744TIP3    H211176   2.767   2.347   1.713  0.4161  0.1451 -0.0984
 3745TIP3   OH211177   0.405   5.041   2.959 -0.2757 -0.3935 -0.3293
 3745TIP3    H111178   0.451   5.086   3.030 -0.9177  1.5036 -1.0363
 3745TIP3    H211179   0.460   5.057   2.882 -0.8563 -0.2530 -0.7172
 3746TIP3   OH211180   2.533   3.794   5.157 -0.1425  0.2066 -0.1831
 3746TIP3    H111181   2.616   3.797   5.109  0.7082  0.7317  1.2477
 3746TIP3    H211182   2.531   3.707   5.197 -1.0058 -0.3535 -1.3973
 3747TIP3   OH211183   6.626   4.777   1.210  0.3045  0.6440  0.4223
 3747TIP3    H111184   6.707   4.824   1.193  0.1913  1.1663  1.2435
 3747TIP3    H211185   6.573   4.790   1.131  1.1269  0.0460 -0.2370
 3748TIP3   OH211186   3.570   2.861   0.142 -0.4074  0.2681  0.5926
 3748TIP3    H111187   3.600   2.919   0.071 -1.5966  1.3913  0.9746
 3748TIP3    H211188   3.608   2.899   0.221 -0.8662  0.3041  0.7987
 3749TIP3   OH211189   3.711   2.159   1.440  0.2910 -0.0442  0.3200
 3749TIP3    H111190   3.668   2.225   1.386  0.0867 -0.4535 -0.0246
 3749TIP3    H211191   3.801   2.157   1.409  0.3285  0.1592  0.4152
 3750TIP3   OH211192   5.849   1.060   5.737  0.2712 -0.0814 -0.1283
 3750TIP3    H111193   5.906   0.989   5.767  0.6391 -0.4320 -1.5604
 3750TIP3    H211194   5.897   1.100   5.665 -0.2634  1.1657  0.1916
 3751TIP3   OH211195   5.604   4.951   2.277  0.1724  0.5328  0.3122
 3751TIP3    H111196   5.540   4.942   2.206  0.2571 -0.1163  0.3111
 3751TIP3    H211197   5.688   4.963   2.232  0.1140  0.9497  0.3112
 3752TIP3   OH211198   4.310   4.186   1.340 -0.3455 -0.0370 -0.2978
 3752TIP3    H111199   4.219   4.191   1.370  0.0017 -0.6925  0.9552
 3752TIP3    H211200   4.362   4.206   1.418  0.5935 -0.7394 -0.7164
 3753TIP3   OH211201   3.444   7.079   5.950 -0.7911 -0.1887  0.2448
 3753TIP3    H111202   3.488   7.164   5.946 -2.4737  0.6984 -0.1803
 3753TIP3    H211203   3.510   7.016   5.919 -0.1688  1.2200 -1.4152
 3754TIP3   OH211204   1.083   7.764   1.330 -0.1717 -0.0752 -0.1873
 3754TIP3    H111205   1.075   7.850   1.371 -0.7361  0.0733 -0.6036
 3754TIP3    H211206   1.090   7.783   1.236 -0.1756 -0.4818 -0.2705
 3755TIP3   OH211207   0.666   3.935   5.264 -0.1168 -0.5066  0.1352
 3755TIP3    H111208   0.705   3.848   5.264 -1.8408 -1.3378  1.0462
 3755TIP3    H211209   0.611   3.937   5.342  0.7598  1.8449  0.7626
 3756TIP3   OH211210   1.243   4.333   6.598 -0.3112 -0.9950  0.1951
 3756TIP3    H111211   1.168   4.391   6.587 -0.9392 -2.0071 -1.0196
 3756TIP3    H211212   1.300   4.380   6.660 -3.1292 -1.3409  3.3618
 3757TIP3   OH211213   2.982   6.640   0.996  0.5383  0.4118  0.3064
 3757TIP3    H111214   3.018   6.552   1.003  0.0808  0.3113  1.6513
 3757TIP3    H211215   2.909   6.632   0.935 -1.1297 -0.7111  2.3587
 3758TIP3   OH211216   4.566   4.105   6.361  0.3836  0.5356  0.1700
 3758TIP3    H111217   4.570   4.191   6.320  0.1066  0.3047 -0.3567
 3758TIP3    H211218   4.498   4.114   6.429  0.6463  0.8412  0.3949
 3759TIP3   OH211219   6.067   2.519   5.394 -0.1970 -0.4856 -0.3568
 3759TIP3    H111220   6.125   2.541   5.321 -1.4735  0.5995 -1.1025
 3759TIP3    H211221   6.097   2.434   5.425  2.3380  0.4283 -0.1275
 3760TIP3   OH211222   5.837   4.454   3.564  0.3642  0.5487 -0.2705
 3760TIP3    H111223   5.785   4.461   3.645  0.3451  1.6398 -0.3655
 3760TIP3    H211224   5.802   4.376   3.520 -0.5751  0.7393  0.1085
 3761TIP3   OH211225   2.396   6.421   5.622  0.1684 -0.1539  0.0036
 3761TIP3    H111226   2.333   6.392   5.557  2.2202 -0.3204 -2.0519
 3761TIP3    H211227   2.418   6.341   5.671 -0.4440 -0.2855  0.0756
 3762TIP3   OH211228   6.201   0.032   2.098  0.0306  0.0737  0.0486
 3762TIP3    H111229   6.229   0.046   2.189 -0.0502  0.0906  0.0716
 3762TIP3    H211230   6.142   0.106   2.080  0.9302  0.7025 -0.3903
 3763TIP3   OH211231   3.060   0.293   5.366  0.0136 -0.1953 -0.3762
 3763TIP3    H111232   3.049   0.215   5.313 -0.7163 -0.6052  0.3500
 3763TIP3    H211233   3.154   0.301   5.379  0.1362 -0.5382 -1.0627
 3764TIP3   OH211234   4.231   2.666   1.107  0.1389 -0.1742 -0.2655
 3764TIP3    H111235   4.148   2.653   1.062  1.2011 -0.5441 -2.2062
 3764TIP3    H211236   4.290   2.699   1.040  1.9592 -1.3311  0.6862
 3765TIP3   OH211237   7.343   5.253   3.170 -0.3551 -0.3068 -0.3019
 3765TIP3    H111238   7.317   5.204   3.249 -1.7849  2.3552  0.9969
 3765TIP3    H211239   7.304   5.204   3.098  0.2474 -2.3382  0.6640
 3766TIP3   OH211240   3.199   2.925   0.707  0.6322 -0.6666 -0.3167
 3766TIP3    H111241   3.172   2.844   0.751  0.0020  0.0429  0.6243
 3766TIP3    H211242   3.290   2.937   0.731  0.5992 -0.8593 -0.0993
 3767TIP3   OH211243   7.115   0.129   4.223  0.7233  0.7024 -0.3725
 3767TIP3    H111244   7.146   0.119   4.133  0.2814  0.0747 -0.4635
 3767TIP3    H211245   7.116   0.223   4.239 -1.0713  1.0028 -1.7192
 3768TIP3   OH211246   1.518   1.409   5.110  0.7441  0.5094  0.5481
 3768TIP3    H111247   1.548   1.481   5.055 -1.7416  1.3575  0.1760
 3768TIP3    H211248   1.574   1.413   5.188  0.9624  2.5824  0.3429
 3769TIP3   OH211249   3.847   2.485   6.385  0.0774  0.3103  0.3108
 3769TIP3    H111250   3.843   2.403   6.336  1.4621  0.8152 -0.7011
 3769TIP3    H211251   3.766   2.486   6.436 -0.0152 -1.6346  0.2860
 3770TIP3   OH211252   6.154   4.059   2.492  0.8172  0.0985  0.2234
 3770TIP3    H111253   6.160   4.154   2.497  1.7036  0.1749 -1.4244
 3770TIP3    H211254   6.061   4.040   2.506  0.2165  1.4183 -1.5917
 3771TIP3   OH211255   4.457   3.076   6.541 -0.0679 -0.6663 -0.2067
 3771TIP3    H111256   4.527   3.014   6.520  0.4564 -0.5472  1.0699
 3771TIP3    H211257   4.492   3.126   6.615 -0.4949  1.1244 -1.1721
 3772TIP3   OH211258   7.403   0.290   4.976 -0.2526  0.0078  0.0668
 3772TIP3    H111259   7.451   0.370   4.996  0.0174 -0.0924 -0.1778
 3772TIP3    H211260   7.409   0.280   4.881  0.7565 -0.9373  0.2057
 3773TIP3   OH211261   1.719   4.337   3.326 -0.3762 -0.4245 -0.1094
 3773TIP3    H111262   1.814   4.330   3.315  0.0244  2.7285  0.5102
 3773TIP3    H211263   1.685   4.332   3.237  0.4935 -0.4041 -0.4585
 3774TIP3   OH211264   4.522   0.317   3.813 -0.4313  0.2367  0.5261
 3774TIP3    H111265   4.604   0.354   3.846  0.1687 -0.1023 -0.5422
 3774TIP3    H211266   4.547   0.231   3.778 -1.3706 -0.1629  0.8166
 3775TIP3   OH211267   8.036   7.684   1.892  0.0105  0.1624  0.2148
 3775TIP3    H111268   8.092   7.758   1.917 -0.0437  0.1321  0.4366
 3775TIP3    H211269   7.965   7.724   1.841 -0.7354  0.4687  1.4179
 3776TIP3   OH211270   0.229   3.115   3.749 -0.7042  0.0722  0.4489
 3776TIP3    H111271   0.168   3.105   3.676 -0.0495  0.8377 -0.2182
 3776TIP3    H211272   0.192   3.186   3.802 -0.4376  0.4979  0.0750
 3777TIP3   OH211273   3.153   1.983   2.122  0.1813 -0.1183 -0.0313
 3777TIP3    H111274   3.194   2.068   2.137 -1.3458  0.6778 -0.1711
 3777TIP3    H211275   3.084   1.978   2.188  1.2500 -1.9905  1.0499
 3778TIP3   OH211276   1.298   7.047   5.546 -0.3625 -0.1174 -0.1668
 3778TIP3    H111277   1.315   7.137   5.520  2.2688 -0.6437 -0.5676
 3778TIP3    H211278   1.257   7.006   5.470 -1.6521  0.7409  0.0526
 3779TIP3   OH211279   2.859   2.351   0.468 -0.2855  0.1605  0.1712
 3779TIP3    H111280   2.878   2.272   0.518  1.6840  0.3557 -0.2029
 3779TIP3    H211281   2.798   2.400   0.524 -1.8844 -1.7501  0.2217
 3780TIP3   OH211282   4.819   4.411   2.478  0.1264  0.1275  0.7056
 3780TIP3    H111283   4.798   4.405   2.385  0.7732  0.1729  0.5511
 3780TIP3    H211284   4.880   4.339   2.493  2.1850  1.7341  0.4807
 3781TIP3   OH211285   3.803   7.591   1.874 -0.1434  0.2679 -0.1385
 3781TIP3    H111286   3.774   7.499   1.876  2.1417 -0.5349 -0.2249
 3781TIP3    H211287   3.723   7.642   1.885 -1.3684 -1.7619  1.0633
 3782TIP3   OH211288   1.721   7.377   4.297 -0.2213  0.1933  0.6014
 3782TIP3    H111289   1.703   7.329   4.216 -1.5262  0.6658  0.5811
 3782TIP3    H211290   1.634   7.407   4.326  0.1369 -0.5196  2.5203
 3783TIP3   OH211291   7.453   4.907   3.964  0.2319 -0.4512 -0.1327
 3783TIP3    H111292   7.438   4.986   3.912 -0.1898 -0.2241  0.3206
 3783TIP3    H211293   7.535   4.925   4.011  1.3167 -1.1831 -1.6661
 3784TIP3   OH211294   4.059   6.659   6.750 -0.4137  0.2675 -0.2130
 3784TIP3    H111295   4.027   6.735   6.798  1.0868  0.4236  0.5846
 3784TIP3    H211296   3.981   6.622   6.709 -1.5662  0.7704  1.4402
 3785TIP3   OH211297   8.146   6.936   0.209 -0.3123 -0.1039  0.1809
 3785TIP3    H111298   8.175   6.941   0.300  0.5656 -1.4043  0.0014
 3785TIP3    H211299   8.057   6.901   0.214 -0.6730  0.8387  0.5780
 3786TIP3   OH211300   2.328   6.208   4.147 -0.5861  0.1055 -0.1046
 3786TIP3    H111301   2.313   6.132   4.092 -2.0777  0.3850 -0.1321
 3786TIP3    H211302   2.289   6.281   4.099  2.0131  1.2036 -0.7333
 3787TIP3   OH211303   2.115   6.583   5.122  0.5929  0.1048 -0.1604
 3787TIP3    H111304   2.101   6.489   5.137 -0.9673  0.4783  0.9009
 3787TIP3    H211305   2.089   6.596   5.031 -0.8366 -0.2089  0.1888
 3788TIP3   OH211306   1.175   7.580   3.045 -0.1502 -0.3077 -0.0736
 3788TIP3    H111307   1.093   7.588   3.094  0.7582 -0.9522  1.6741
 3788TIP3    H211308   1.205   7.671   3.034 -1.9080  0.0836 -2.3383
 3789TIP3   OH211309   6.732   7.578   4.563  0.4015  0.0132  0.1255
 3789TIP3    H111310   6.784   7.652   4.593 -0.6435 -0.3242  3.1779
 3789TIP3    H211311   6.681   7.612   4.490  3.2446  0.9126 -1.6196
 3790TIP3   OH211312   7.948   4.115   1.106 -0.7079  0.0139 -0.1720
 3790TIP3    H111313   7.863   4.151   1.083 -0.6013  2.2825  2.5106
 3790TIP3    H211314   7.956   4.129   1.200  3.0640  0.9605 -0.4603
 3791TIP3   OH211315   4.443   2.095   2.352  0.1397  0.3995  0.4327
 3791TIP3    H111316   4.518   2.106   2.294  0.4230 -1.5020  0.3645
 3791TIP3    H211317   4.480   2.083   2.439 -0.1078  0.1115  0.5030
 3792TIP3   OH211318   8.275   7.667   1.145  0.8173  0.0098 -0.0027
 3792TIP3    H111319   8.359   7.700   1.177  1.4990 -1.5639 -0.0853
 3792TIP3    H211320   8.210   7.725   1.184  1.8607  0.3808  1.2473
 3793TIP3   OH211321   4.209   1.670   2.929 -0.1379 -0.5877  0.0523
 3793TIP3    H111322   4.150   1.744   2.917 -1.2635 -1.1851  1.5012
 3793TIP3    H211323   4.296   1.708   2.932 -0.5492  0.4786 -0.8021
 3794TIP3   OH211324   1.813   6.644   5.347  0.5551 -0.4762 -0.4795
 3794TIP3    H111325   1.727   6.656   5.308 -1.2262  1.0428  3.4383
 3794TIP3    H211326   1.798   6.584   5.421  2.7087  0.2160  0.6122
 3795TIP3   OH211327   1.010   0.308   3.677 -0.6319 -0.2832  0.6265
 3795TIP3    H111328   1.038   0.237   3.735  2.0061 -1.1067 -1.4647
 3795TIP3    H211329   1.006   0.385   3.734  0.5806 -1.2819  2.1546
 3796TIP3   OH211330   1.691   3.331   2.727  0.2146 -0.8692  0.2181
 3796TIP3    H111331   1.736   3.406   2.765 -1.4442 -0.8036  2.2041
 3796TIP3    H211332   1.721   3.329   2.636  2.4283  0.4834  0.8493
 3797TIP3   OH211333   0.594   1.897   3.249 -0.0886 -0.5635 -0.1229
 3797TIP3    H111334   0.544   1.903   3.168 -1.1731  0.7651  0.5909
 3797TIP3    H211335   0.561   1.817   3.291 -1.7613  0.3351  0.3754
 3798TIP3   OH211336   4.001   6.045   5.846 -0.4395 -0.6220  0.7741
 3798TIP3    H111337   4.077   6.078   5.797 -0.1538 -0.5425  1.2618
 3798TIP3    H211338   3.934   6.113   5.834  0.0567  0.0332  1.5474
 3799TIP3   OH211339   6.499   2.357   3.805  1.0410 -0.2345 -0.4299
 3799TIP3    H111340   6.406   2.367   3.784  0.9393 -0.7229 -0.2121
 3799TIP3    H211341   6.524   2.442   3.843 -0.1561 -1.1483  2.6434
 3800TIP3   OH211342   8.305   7.340   2.465 -0.3099  0.0911  0.1295
 3800TIP3    H111343   8.320   7.295   2.382 -0.9121  0.2596 -0.0715
 3800TIP3    H211344   8.258   7.276   2.519 -3.0068  1.1179 -0.8574
 3801TIP3   OH211345   4.446   1.627   0.629 -0.3862  0.0432  0.0496
 3801TIP3    H111346   4.371   1.574   0.654 -2.9393  3.0488 -0.6130
 3801TIP3    H211347   4.485   1.654   0.713 -1.0936 -0.1560  0.4504
 3802TIP3   OH211348   1.684   1.183   5.065  0.2357  0.1949 -0.0682
 3802TIP3    H111349   1.626   1.258   5.075  1.9901  1.4513  1.4010
 3802TIP3    H211350   1.760   1.218   5.019  0.3852 -1.1048 -0.8445
 3803TIP3   OH211351   7.836   7.317   1.244 -0.5424 -0.1998 -0.1047
 3803TIP3    H111352   7.825   7.348   1.154  1.7004  0.4046 -0.2305
 3803TIP3    H211353   7.779   7.374   1.296  0.1756  1.2554 -0.8601
 3804TIP3   OH211354   2.000   1.945   5.317 -0.2886  0.1983  0.2439
 3804TIP3    H111355   2.016   2.019   5.259  0.6084 -0.9603 -1.0547
 3804TIP3    H211356   2.008   1.981   5.406 -0.6470  1.7881 -0.3432
 3805TIP3   OH211357   7.469   5.002   0.440  0.1272 -0.0359 -0.4030
 3805TIP3    H111358   7.554   5.020   0.400  0.7792 -0.0960  0.9119
 3805TIP3    H211359   7.439   5.087   0.471 -1.0472  0.2616 -2.2312
 3806TIP3   OH211360   3.139   2.245   5.076 -0.4062  0.1870 -0.3900
 3806TIP3    H111361   3.150   2.219   4.985 -2.3242 -0.4271 -0.4882
 3806TIP3    H211362   3.119   2.338   5.073  3.0842  1.0777 -0.2737
 3807TIP3   OH211363   5.195   1.452   0.378 -0.3074  0.4540 -0.1266
 3807TIP3    H111364   5.117   1.487   0.419  0.5414  0.1930  1.8053
 3807TIP3    H211365   5.215   1.372   0.427  1.6991  1.0314  0.0848
 3808TIP3   OH211366   7.799   1.798   3.342  0.1420 -0.3106  0.0042
 3808TIP3    H111367   7.853   1.860   3.391  1.1736 -1.7733  0.7872
 3808TIP3    H211368   7.784   1.726   3.402  0.6049 -1.7175 -1.4878
 3809TIP3   OH211369   1.715   5.246   5.964 -0.1730  0.5803  0.5003
 3809TIP3    H111370   1.675   5.265   6.048  2.1499  0.5183  1.7161
 3809TIP3    H211371   1.732   5.151   5.966 -2.0629  0.1396 -1.0273
 3810TIP3   OH211372   2.233   2.403   5.376 -0.3954  0.1215  0.2225
 3810TIP3    H111373   2.240   2.427   5.469 -1.5466 -1.4692  0.7745
 3810TIP3    H211374   2.302   2.453   5.333  0.6031  0.4110  2.0393
 3811TIP3   OH211375   8.153   2.125   4.971 -0.0323 -0.5178  0.0894
 3811TIP3    H111376   8.096   2.086   5.038  1.4966 -2.4589  0.3568
 3811TIP3    H211377   8.239   2.084   4.986  1.1398  1.3250 -1.1123
 3812TIP3   OH211378   0.709   3.670   5.259 -0.1536  0.0051 -0.7070
 3812TIP3    H111379   0.663   3.634   5.336  0.0732  1.1316 -0.0316
 3812TIP3    H211380   0.648   3.657   5.187 -0.7681 -0.2098 -0.1585
 3813TIP3   OH211381   5.555   5.360   0.863  0.2649 -0.0935  0.0645
 3813TIP3    H111382   5.496   5.406   0.803 -1.2288  1.2932  2.4056
 3813TIP3    H211383   5.546   5.268   0.839 -1.3629  0.2736 -0.9436
 3814TIP3   OH211384   7.870   5.815   4.935  0.0695  0.3737 -0.0560
 3814TIP3    H111385   7.887   5.786   5.024 -0.9796  1.8369  0.6813
 3814TIP3    H211386   7.953   5.851   4.904  0.4817 -0.3032  0.2544
 3815TIP3   OH211387   0.247   1.558   4.424  0.5474 -0.2326  0.2722
 3815TIP3    H111388   0.236   1.639   4.472 -0.9273 -0.1376 -0.1774
 3815TIP3    H211389   0.334   1.566   4.383  0.6882  0.8221  0.7441
 3816TIP3   OH211390   8.229   1.803   5.988  0.1036  0.3281  0.0851
 3816TIP3    H111391   8.181   1.720   5.987  0.3270  0.1959 -0.3943
 3816TIP3    H211392   8.311   1.783   5.942  0.0467  0.8778 -0.2664
 3817TIP3   OH211393   0.048   6.549   1.621  0.0323  0.3048  0.2210
 3817TIP3    H111394   0.084   6.481   1.565 -1.4984  0.6075 -1.1828
 3817TIP3    H211395  -0.045   6.531   1.625  0.1184 -0.0376  3.1948
 3818TIP3   OH211396   2.150   7.484   4.194 -0.0137 -0.2264 -0.2457
 3818TIP3    H111397   2.216   7.552   4.202 -0.9473  0.8372 -1.1141
 3818TIP3    H211398   2.092   7.497   4.269  0.3557 -0.6954  0.1223
 3819TIP3   OH211399   7.942   3.054   2.340  0.2246 -0.1032  0.5437
 3819TIP3    H111400   7.908   3.124   2.284 -1.6164 -2.4828 -1.6133
 3819TIP3    H211401   7.864   3.016   2.380  0.3749 -3.7764 -2.0936
 3820TIP3   OH211402   1.319   5.100   0.792  0.0793  0.0848 -0.0664
 3820TIP3    H111403   1.247   5.120   0.732  1.2287  1.1526 -1.1370
 3820TIP3    H211404   1.275   5.067   0.871 -1.5393  0.0267 -0.9405
 3821TIP3   OH211405   2.416   2.214   1.691 -0.2692  0.3977 -0.1572
 3821TIP3    H111406   2.459   2.131   1.708 -1.0705  0.3653  2.0251
 3821TIP3    H211407   2.327   2.191   1.666 -0.6212  0.5774  0.8798
 3822TIP3   OH211408   3.222   4.723   1.015 -0.1535  0.2477 -0.1240
 3822TIP3    H111409   3.213   4.787   0.945  0.5970 -1.9395 -2.3464
 3822TIP3    H211410   3.157   4.656   0.995  1.8488 -1.7564 -0.3252
 3823TIP3   OH211411   1.109   4.546   2.320 -0.4429  0.1373  0.3079
 3823TIP3    H111412   1.080   4.537   2.229 -0.1905  0.0424  0.2349
 3823TIP3    H211413   1.077   4.632   2.348 -1.0855 -0.1107  0.3403
 3824TIP3   OH211414   4.873   5.681   2.143 -0.0689  0.5110  0.2000
 3824TIP3    H111415   4.858   5.764   2.188 -2.1472  0.0578  0.4459
 3824TIP3    H211416   4.934   5.633   2.199  2.1154  2.2687 -0.5218
 3825TIP3   OH211417   3.517   1.963   1.422  0.2537 -0.1727 -0.5654
 3825TIP3    H111418   3.448   1.980   1.486  1.0176 -1.2685  0.5980
 3825TIP3    H211419   3.570   2.043   1.422 -0.6587  0.4575 -1.0586
 3826TIP3   OH211420   8.177   3.819   3.812 -0.4413 -0.2543  0.2798
 3826TIP3    H111421   8.158   3.728   3.787  0.1823 -0.3708  0.2194
 3826TIP3    H211422   8.091   3.856   3.831 -0.9230 -0.2805 -1.6497
 3827TIP3   OH211423   0.653   2.825   4.365  0.5215 -0.4498 -0.3287
 3827TIP3    H111424   0.660   2.742   4.412  1.9942  0.6562  1.5588
 3827TIP3    H211425   0.736   2.834   4.318  0.7290  0.3100  0.1563
 3828TIP3   OH211426   8.261   5.898   0.900  0.5419  0.1479  0.6014
 3828TIP3    H111427   8.290   5.810   0.923 -1.3011 -0.1382  2.0648
 3828TIP3    H211428   8.337   5.938   0.859  1.5857 -1.9477  0.3418
 3829TIP3   OH211429   1.653   6.980   5.534 -0.4410 -0.5967 -0.3943
 3829TIP3    H111430   1.592   6.959   5.605  0.5470  0.0119  0.6636
 3829TIP3    H211431   1.597   6.993   5.457 -1.6148 -0.2697  0.4925
 3830TIP3   OH211432   2.270   6.042   4.881 -0.0520  0.3689 -0.0920
 3830TIP3    H111433   2.355   6.085   4.868 -0.1206  0.2716 -0.8939
 3830TIP3    H211434   2.292   5.949   4.887 -0.0668  0.3755  0.0677
 3831TIP3   OH211435   7.805   0.558   4.524  0.5700  0.3969  0.5738
 3831TIP3    H111436   7.849   0.583   4.605 -0.7074  1.1067  1.0859
 3831TIP3    H211437   7.838   0.618   4.458  0.4448  0.8677  0.9357
 3832TIP3   OH211438   6.145   2.208   0.942 -0.6157  0.3765 -0.0360
 3832TIP3    H111439   6.158   2.268   1.015  1.0365  0.5477 -0.4279
 3832TIP3    H211440   6.203   2.134   0.960 -0.5891  0.1764 -0.8890
 3833TIP3   OH211441   0.392   7.321   4.464  0.2170 -0.4710  0.0062
 3833TIP3    H111442   0.404   7.414   4.444  1.7550 -1.1256 -2.7582
 3833TIP3    H211443   0.453   7.304   4.535 -2.0089  1.0779  2.4467
 3834TIP3   OH211444   3.704   4.186   1.052  0.3528 -0.5626 -0.1115
 3834TIP3    H111445   3.721   4.253   0.986 -0.8012 -0.6387 -0.4968
 3834TIP3    H211446   3.661   4.115   1.004 -2.0934  0.0713  0.9869
 3835TIP3   OH211447   6.230   6.333   5.585  0.3523  0.7262  0.2566
 3835TIP3    H111448   6.260   6.242   5.582 -0.6189  0.4121 -0.2249
 3835TIP3    H211449   6.238   6.364   5.495  1.9053  1.5519  0.6392
 3836TIP3   OH211450   3.638   5.196   5.664  0.5502  0.5484  0.8550
 3836TIP3    H111451   3.707   5.257   5.688 -0.8167  2.2742  0.5785
 3836TIP3    H211452   3.672   5.110   5.690  2.8906  1.2828  0.4635
 3837TIP3   OH211453   2.042   1.548   4.414 -0.3619 -0.7899 -0.4979
 3837TIP3    H111454   2.095   1.522   4.339 -0.1000 -0.4308 -0.4370
 3837TIP3    H211455   2.099   1.605   4.465 -1.3137  0.9145 -1.2493
 3838TIP3   OH211456   5.642   0.528   5.779 -0.1344 -0.7062 -0.3678
 3838TIP3    H111457   5.728   0.491   5.797 -1.0830 -2.4293  0.9210
 3838TIP3    H211458   5.583   0.484   5.841 -1.8153  1.0046 -0.6521
 3839TIP3   OH211459   4.059   2.107   3.953 -0.0866  0.4752  0.1568
 3839TIP3    H111460   4.121   2.113   4.026 -0.6081  1.5017  0.5460
 3839TIP3    H211461   4.113   2.091   3.876  0.6633  1.2367  0.5086
 3840TIP3   OH211462   2.767   4.704   4.486  0.1354  0.2963  0.1471
 3840TIP3    H111463   2.698   4.641   4.504  1.3757 -0.5600  2.2995
 3840TIP3    H211464   2.767   4.762   4.562  1.0068  1.0089 -0.3729
 3841TIP3   OH211465   0.407   1.779   3.797 -0.0412 -0.6771 -0.0604
 3841TIP3    H111466   0.413   1.850   3.861  1.6623  0.1889 -1.1152
 3841TIP3    H211467   0.379   1.822   3.716  0.9638 -1.1941 -0.7021
 3842TIP3   OH211468   6.793   1.363   2.488 -0.0140 -0.2055  0.0654
 3842TIP3    H111469   6.801   1.458   2.498 -0.3759 -0.2645  0.9629
 3842TIP3    H211470   6.726   1.337   2.551  0.5520 -1.1499  0.2974
 3843TIP3   OH211471   5.694   0.313   2.641  0.1002  0.2383  0.5333
 3843TIP3    H111472   5.727   0.269   2.719  0.0901  0.8007  0.8580
 3843TIP3    H211473   5.626   0.254   2.608 -2.6255  1.6698  3.0823
 3844TIP3   OH211474   2.325   1.201   1.553 -0.0631 -0.2637 -0.4345
 3844TIP3    H111475   2.345   1.169   1.641 -0.0928 -0.5637 -0.5369
 3844TIP3    H211476   2.373   1.143   1.495  0.1606  0.0950 -0.6062
 3845TIP3   OH211477   1.333   5.482   3.769 -0.1534  0.1794 -0.2824
 3845TIP3    H111478   1.385   5.499   3.847 -1.0522  1.5776  0.0537
 3845TIP3    H211479   1.331   5.387   3.762  1.4766  0.0606  0.3279
 3846TIP3   OH211480   5.350   2.473   1.925 -0.2414 -0.3139 -0.3083
 3846TIP3    H111481   5.312   2.477   2.012 -2.0680  0.1566 -1.0724
 3846TIP3    H211482   5.290   2.523   1.870  2.4298  2.0860 -1.3452
 3847TIP3   OH211483   0.659   3.659   0.963  0.0278 -0.4885 -0.3791
 3847TIP3    H111484   0.747   3.627   0.940  0.4028 -0.1511  0.5635
 3847TIP3    H211485   0.629   3.599   1.031 -0.1742 -0.1485 -0.1700
 3848TIP3   OH211486   5.874   5.372   6.187 -0.1021 -0.3084  0.3016
 3848TIP3    H111487   5.969   5.383   6.174 -0.2676 -0.7647 -1.5815
 3848TIP3    H211488   5.854   5.430   6.260  1.8426 -1.2258  1.6645
 3849TIP3   OH211489   0.789   6.825   6.507 -0.4996 -0.0190  0.2888
 3849TIP3    H111490   0.771   6.832   6.601  0.4631 -1.8729  0.6615
 3849TIP3    H211491   0.703   6.826   6.466 -0.9091  1.3631  1.1151
 3850TIP3   OH211492   4.255   6.605   1.945 -0.2819 -0.2362 -0.3964
 3850TIP3    H111493   4.217   6.534   1.894  1.5340 -1.6986  0.1961
 3850TIP3    H211494   4.202   6.607   2.025  0.9306 -2.3996  0.5260
 3851TIP3   OH211495   2.973   0.730   2.394  0.1918  0.3629  0.2240
 3851TIP3    H111496   2.878   0.737   2.387  0.2427 -0.0305 -1.2064
 3851TIP3    H211497   3.001   0.694   2.310  1.5196 -0.4699  0.9776
 3852TIP3   OH211498   4.233   5.818   3.115 -0.9117  0.0002  0.2831
 3852TIP3    H111499   4.203   5.752   3.052  0.2759  1.5725 -2.0865
 3852TIP3    H211500   4.192   5.899   3.086  1.0756  1.1030  0.4079
 3853TIP3   OH211501   2.582   1.243   2.405  0.5332 -0.8241 -0.0778
 3853TIP3    H111502   2.550   1.289   2.482  0.1366 -1.8811  0.4079
 3853TIP3    H211503   2.624   1.310   2.352 -0.4078  0.1662  0.4035
 3854TIP3   OH211504   8.244   3.746   1.970 -0.3974  0.4985  0.0429
 3854TIP3    H111505   8.201   3.759   2.054 -0.4526  2.0703 -0.2046
 3854TIP3    H211506   8.196   3.673   1.930  0.5925 -1.3036  1.9635
 3855TIP3   OH211507   5.452   2.982   5.545  0.8363  0.0358  0.0701
 3855TIP3    H111508   5.473   2.895   5.578 -0.5079 -0.0555  0.7435
 3855TIP3    H211509   5.357   2.987   5.548  0.8942  1.6219  0.2941
 3856TIP3   OH211510   2.078   0.850   1.330  0.1437 -0.7833 -0.3381
 3856TIP3    H111511   1.991   0.813   1.311  0.4313 -3.1953  2.4454
 3856TIP3    H211512   2.133   0.822   1.256 -1.0044 -0.7089 -1.2607
 3857TIP3   OH211513   3.418   0.747   4.785  0.6446  0.3343  0.6730
 3857TIP3    H111514   3.384   0.834   4.807  1.1313  1.1369 -1.5380
 3857TIP3    H211515   3.340   0.695   4.766  0.3985  0.5524  1.0656
 3858TIP3   OH211516   6.135   0.304   0.119  0.2845 -0.8686 -0.0414
 3858TIP3    H111517   6.133   0.292   0.214 -0.3341  0.7847  0.1872
 3858TIP3    H211518   6.059   0.255   0.087 -0.0673 -0.6327  0.4217
 3859TIP3   OH211519   0.560   0.572   5.585 -0.9267 -0.0871  0.3778
 3859TIP3    H111520   0.604   0.642   5.537 -1.5343  0.7936  1.0906
 3859TIP3    H211521   0.603   0.492   5.555 -0.4290  0.5574 -0.6743
 3860TIP3   OH211522   3.922   6.536   1.431  0.0258 -0.4250  0.3260
 3860TIP3    H111523   3.914   6.521   1.525 -1.1298 -2.7245 -0.0570
 3860TIP3    H211524   3.858   6.476   1.392  0.6373  0.2976 -1.9500
 3861TIP3   OH211525   1.744   0.869   1.887 -0.5122 -0.1851 -0.3422
 3861TIP3    H111526   1.655   0.904   1.893 -0.8783 -1.0408 -0.5533
 3861TIP3    H211527   1.732   0.781   1.851  0.5816  0.5016 -2.6115
 3862TIP3   OH211528   5.664   5.210   5.864 -0.1944 -0.1455  0.0618
 3862TIP3    H111529   5.683   5.202   5.957  2.2659  1.5795 -0.1759
 3862TIP3    H211530   5.657   5.304   5.848 -1.0846 -0.4195 -1.4249
 3863TIP3   OH211531   2.827   0.279   1.912 -0.0735  0.0815  0.2006
 3863TIP3    H111532   2.872   0.285   1.828 -0.4679  0.1886 -0.0048
 3863TIP3    H211533   2.893   0.246   1.973  0.0777 -0.4708 -0.2598
 3864TIP3   OH211534   5.761   3.278   5.178 -0.0245 -0.4158  0.0648
 3864TIP3    H111535   5.681   3.330   5.179  0.3228  0.1204  1.0980
 3864TIP3    H211536   5.825   3.331   5.225  1.1415 -0.5436 -1.3248
 3865TIP3   OH211537   4.533   5.819   5.079 -0.3774  0.1086  0.4673
 3865TIP3    H111538   4.536   5.744   5.020  1.1526  0.5549 -0.0868
 3865TIP3    H211539   4.625   5.843   5.091 -0.7806  1.2222  1.4945
 3866TIP3   OH211540   6.975   4.464   5.394  0.0748 -0.3162 -0.1528
 3866TIP3    H111541   7.039   4.535   5.386 -0.5185  0.2257 -0.1378
 3866TIP3    H211542   6.985   4.434   5.484  0.4761 -0.3988 -0.2211
 3867TIP3   OH211543   5.709   4.986   1.318  0.0013 -0.4022  0.1123
 3867TIP3    H111544   5.671   5.059   1.270 -1.1366  0.1560  1.7922
 3867TIP3    H211545   5.785   5.022   1.362  2.3377 -1.3944 -2.8030
 3868TIP3   OH211546   2.838   7.422   6.373  0.3733 -0.2382 -0.0717
 3868TIP3    H111547   2.805   7.368   6.301 -0.4062 -1.2492  0.9960
 3868TIP3    H211548   2.760   7.462   6.411  0.5811 -0.8638  1.0736
 3869TIP3   OH211549   6.571   5.894   3.561 -0.1912  0.5034  0.0362
 3869TIP3    H111550   6.477   5.881   3.572 -0.3367  1.3880 -0.1225
 3869TIP3    H211551   6.604   5.807   3.537 -1.3972  0.7314 -2.8658
 3870TIP3   OH211552   6.794   3.587   0.823  0.2596 -0.3542 -0.2224
 3870TIP3    H111553   6.866   3.571   0.762  0.4334  1.0607 -0.4353
 3870TIP3    H211554   6.782   3.682   0.821 -0.2987 -0.3649  1.3166
 3871TIP3   OH211555   4.011   1.472   2.800 -0.1641  0.3771  0.2423
 3871TIP3    H111556   3.957   1.550   2.784 -1.0529 -0.0597  0.9824
 3871TIP3    H211557   4.101   1.504   2.798 -0.3394  0.9248 -2.2337
 3872TIP3   OH211558   1.594   6.576   3.265 -0.1889  0.4972  0.2234
 3872TIP3    H111559   1.578   6.578   3.359  0.8136  1.2169  0.3945
 3872TIP3    H211560   1.512   6.605   3.226 -0.6772  0.0131  0.8537
 3873TIP3   OH211561   5.484   2.954   5.012  0.3382  0.8368  0.4443
 3873TIP3    H111562   5.532   2.879   4.979 -0.1410 -0.0349  1.6349
 3873TIP3    H211563   5.464   2.932   5.103 -2.4236  1.0597  0.0032
 3874TIP3   OH211564   5.038   6.066   5.496 -0.5298 -0.1381 -0.1565
 3874TIP3    H111565   5.048   6.145   5.550 -0.4714 -0.6253  0.5529
 3874TIP3    H211566   5.117   6.064   5.441 -1.4947  1.4373 -1.7181
 3875TIP3   OH211567   2.417   1.177   4.254  0.5494  0.4553  0.2852
 3875TIP3    H111568   2.502   1.175   4.298  0.6314 -1.0361  0.1192
 3875TIP3    H211569   2.436   1.151   4.164 -0.0756  0.0207  0.2696
 3876TIP3   OH211570   6.752   3.980   5.713 -0.1089 -0.3316 -0.3675
 3876TIP3    H111571   6.842   3.954   5.691 -0.3796 -0.5678 -1.2526
 3876TIP3    H211572   6.752   4.075   5.703  0.0124 -0.3447 -0.4994
 3877TIP3   OH211573   1.358   5.705   4.366 -0.1216 -0.3687 -0.2491
 3877TIP3    H111574   1.320   5.647   4.299  1.4451  0.5399 -2.0333
 3877TIP3    H211575   1.437   5.660   4.394  0.6398  0.4578 -1.0058
 3878TIP3   OH211576   3.956   5.923   3.247 -0.5780  0.4129 -0.3079
 3878TIP3    H111577   3.886   5.890   3.303 -2.1908  0.4464 -2.1915
 3878TIP3    H211578   3.972   5.853   3.183  2.0825 -0.1303  0.8338
 3879TIP3   OH211579   1.858   7.041   5.865 -0.2878  0.5004  0.0135
 3879TIP3    H111580   1.919   7.030   5.938 -1.0711  1.1759  0.7959
 3879TIP3    H211581   1.902   7.103   5.806  0.4372 -0.2070 -0.2031
 3880TIP3   OH211582   3.791   6.286   0.154  0.3045 -0.8193 -0.1840
 3880TIP3    H111583   3.713   6.285   0.097  1.0910  1.6087 -1.4586
 3880TIP3    H211584   3.761   6.329   0.234 -0.2013 -2.0397  0.3107
 3881TIP3   OH211585   6.244   3.930   4.036  0.4421  0.5873  0.1112
 3881TIP3    H111586   6.160   3.888   4.019  0.8480 -0.2606  0.1227
 3881TIP3    H211587   6.239   4.014   3.992 -1.6006  1.9344  2.6723
 3882TIP3   OH211588   2.203   2.638   5.128  0.4137 -0.2811 -0.0999
 3882TIP3    H111589   2.285   2.591   5.115  2.1636  2.1524  1.3713
 3882TIP3    H211590   2.226   2.730   5.119 -1.5995  0.6461  2.7131
 3883TIP3   OH211591   4.348   7.538   2.990 -0.1095  0.4283 -0.1691
 3883TIP3    H111592   4.375   7.586   3.068  0.4182 -1.1103  0.6530
 3883TIP3    H211593   4.355   7.446   3.015  0.1465 -0.1232 -2.0623
 3884TIP3   OH211594   6.408   2.319   6.025  0.1460 -0.3195 -0.6079
 3884TIP3    H111595   6.441   2.389   6.080 -0.5701  0.7672 -1.5125
 3884TIP3    H211596   6.314   2.336   6.018  0.1924 -0.5033 -2.0095
 3885TIP3   OH211597   0.469   2.299   6.180  0.0979 -0.1266  0.3211
 3885TIP3    H111598   0.419   2.227   6.219 -0.5269 -0.4941 -1.0930
 3885TIP3    H211599   0.556   2.263   6.166 -1.3948 -2.7472 -5.3602
 3886TIP3   OH211600   3.669   4.812   2.168 -0.1697 -0.4864 -0.3521
 3886TIP3    H111601   3.756   4.850   2.153  0.1204  0.1751  2.4550
 3886TIP3    H211602   3.613   4.888   2.185 -1.3005 -0.9226 -1.9501
 3887TIP3   OH211603   2.910   0.468   6.219  0.6151 -0.5931  0.7783
 3887TIP3    H111604   2.836   0.423   6.178 -0.3837  1.4322  0.2789
 3887TIP3    H211605   2.984   0.446   6.161 -0.6627  1.7680 -2.0035
 3888TIP3   OH211606   1.253   5.981   0.499 -0.9124 -0.2606  0.0464
 3888TIP3    H111607   1.323   6.045   0.511 -0.3662 -0.8844  0.2173
 3888TIP3    H211608   1.181   6.014   0.554 -0.7341  0.3433 -0.0745
 3889TIP3   OH211609   5.713   0.867   0.078  0.2127  0.0439  0.4133
 3889TIP3    H111610   5.776   0.939   0.079  1.0555 -0.6649 -0.6662
 3889TIP3    H211611   5.633   0.906   0.042  0.8744  0.2810 -0.8257
 3890TIP3   OH211612   4.469   0.873   4.128 -0.1209  0.3580 -0.1115
 3890TIP3    H111613   4.508   0.960   4.137  1.8147 -0.5318  0.5949
 3890TIP3    H211614   4.542   0.818   4.100 -1.5689 -0.8408 -1.7056
 3891TIP3   OH211615   0.369   1.760   2.433  0.2886  0.0342 -0.0547
 3891TIP3    H111616   0.404   1.812   2.505 -1.5853 -0.1900  1.0992
 3891TIP3    H211617   0.294   1.811   2.401  1.4543  0.4275 -2.3122
 3892TIP3   OH211618   7.703   5.751   0.683 -0.7353 -0.1396  0.0669
 3892TIP3    H111619   7.624   5.724   0.730 -1.8802  2.0222 -0.4469
 3892TIP3    H211620   7.715   5.843   0.707  2.0982 -0.5648  0.6681
 3893TIP3   OH211621   2.753   0.211   1.520  0.0455  0.6908  0.0747
 3893TIP3    H111622   2.706   0.143   1.472 -0.1574  0.6743  0.2934
 3893TIP3    H211623   2.720   0.204   1.610  1.2825 -0.0562  0.4879
 3894TIP3   OH211624   6.852   3.547   1.693 -0.2010 -0.6966 -0.0953
 3894TIP3    H111625   6.864   3.502   1.777 -1.4742 -2.6628 -0.8869
 3894TIP3    H211626   6.757   3.557   1.685 -0.0128  1.2077 -0.4892
 3895TIP3   OH211627   1.867   7.485   1.172  0.1261  0.1676  0.6328
 3895TIP3    H111628   1.860   7.564   1.226 -1.7006  0.7665 -0.4135
 3895TIP3    H211629   1.826   7.417   1.225 -2.0790  0.8492 -0.1150
 3896TIP3   OH211630   1.582   6.640   1.448 -0.3173 -0.3094  0.4570
 3896TIP3    H111631   1.597   6.548   1.470 -0.2081 -0.1096  1.2706
 3896TIP3    H211632   1.575   6.641   1.353  0.4731 -1.0435  0.3760
 3897TIP3   OH211633   6.514   4.149   3.197 -0.5432 -0.6869 -0.0896
 3897TIP3    H111634   6.495   4.208   3.124  0.6110 -0.1968 -0.0111
 3897TIP3    H211635   6.600   4.177   3.229 -0.3651 -1.8544  0.5034
 3898TIP3   OH211636   7.100   1.674   6.483 -0.0409  0.2469 -0.5566
 3898TIP3    H111637   7.039   1.626   6.427 -0.4963 -0.8555  0.8187
 3898TIP3    H211638   7.081   1.643   6.572  1.4583  1.0456  0.0909
 3899TIP3   OH211639   6.798   6.899   2.102 -0.6408 -0.0211  0.3686
 3899TIP3    H111640   6.851   6.973   2.134  1.1421 -1.1586  0.1932
 3899TIP3    H211641   6.780   6.847   2.181  0.0319 -0.5415  0.1951
 3900TIP3   OH211642   7.362   0.454   0.025 -0.2894  0.2091  0.3436
 3900TIP3    H111643   7.457   0.462   0.034 -0.3617 -0.3851  1.9719
 3900TIP3    H211644   7.331   0.545   0.019  0.3432  0.4211  0.2368
 3901TIP3   OH211645   6.072   3.017   0.708  0.5336 -0.1006  0.0029
 3901TIP3    H111646   6.124   2.974   0.640  0.5249 -0.8396  0.4552
 3901TIP3    H211647   6.103   3.108   0.707 -0.1925  0.1592 -1.6727
 3902TIP3   OH211648   0.644   5.742   4.097 -0.3563 -0.1751 -0.6863
 3902TIP3    H111649   0.676   5.655   4.073  1.6674  0.6151 -1.1128
 3902TIP3    H211650   0.681   5.800   4.031 -0.3884  1.1942  0.4360
 3903TIP3   OH211651   0.585   3.531   1.192  0.2193 -0.1018 -0.5890
 3903TIP3    H111652   0.545   3.519   1.279 -1.7557  0.7021 -1.3279
 3903TIP3    H211653   0.621   3.445   1.170 -0.4272 -0.6685  0.4762
 3904TIP3   OH211654   5.074   6.837   2.813  0.0094  0.2628 -0.3905
 3904TIP3    H111655   5.038   6.819   2.900 -0.9306 -2.4779 -1.2311
 3904TIP3    H211656   5.007   6.890   2.770 -1.3198 -1.4614 -0.5954
 3905TIP3   OH211657   2.029   0.207   5.586 -0.2846 -0.4554  0.4353
 3905TIP3    H111658   2.099   0.221   5.522 -0.3871  0.7494  0.5630
 3905TIP3    H211659   2.074   0.176   5.665 -0.1370 -1.7609 -0.1328
 3906TIP3   OH211660   1.062   1.117   5.773 -0.0121 -0.2639  0.4157
 3906TIP3    H111661   1.017   1.048   5.723  0.7228 -0.8999  0.6072
 3906TIP3    H211662   1.154   1.105   5.751  0.0768  1.0758 -0.0391
 3907TIP3   OH211663   7.052   2.154   0.221  0.7663  0.7497 -0.3085
 3907TIP3    H111664   6.959   2.134   0.238  0.6927  0.9490 -0.4732
 3907TIP3    H211665   7.084   2.191   0.303  0.7825  0.3862 -0.1494
 3908TIP3   OH211666   1.448   3.721   0.188  0.7122  0.6167 -0.5940
 3908TIP3    H111667   1.529   3.671   0.193  0.1752 -0.1396  1.7723
 3908TIP3    H211668   1.383   3.658   0.155  0.7943  0.8342 -1.1798
 3909TIP3   OH211669   0.974   5.383   6.479  0.4567  0.0448 -0.5934
 3909TIP3    H111670   1.067   5.373   6.459  1.4742  1.0558  2.9974
 3909TIP3    H211671   0.948   5.299   6.516  0.5791  0.4887  0.5204
 3910TIP3   OH211672   3.976   0.825   2.689  0.9375 -0.0359 -0.7000
 3910TIP3    H111673   4.002   0.742   2.728  0.8472  0.5016  0.5585
 3910TIP3    H211674   4.033   0.890   2.730 -1.0122  0.9185  0.6972
 3911TIP3   OH211675   0.236   1.133   5.962  0.1501 -0.0784  0.6855
 3911TIP3    H111676   0.224   1.078   6.040 -2.1220 -0.8773 -0.1467
 3911TIP3    H211677   0.200   1.218   5.986 -0.3356 -0.2569  0.6037
 3912TIP3   OH211678   1.063   5.985   4.027 -0.0673 -0.5374  0.1702
 3912TIP3    H111679   1.120   6.008   3.954  0.6696 -1.0351  0.5734
 3912TIP3    H211680   1.092   5.897   4.053 -1.1846 -0.9047  0.2244
 3913TIP3   OH211681   0.692   2.415   2.026 -0.1996  0.2260  0.2332
 3913TIP3    H111682   0.691   2.335   2.079 -1.4351  0.6814  0.9520
 3913TIP3    H211683   0.778   2.416   1.986  1.7515  0.9366  3.9447
 3914TIP3   OH211684   4.603   3.170   3.822 -0.1564  0.4063  0.4232
 3914TIP3    H111685   4.591   3.079   3.797 -2.2628 -0.0363  2.6922
 3914TIP3    H211686   4.530   3.216   3.780 -0.1442  0.7200  0.7428
 3915TIP3   OH211687   0.657   6.566   5.415 -0.4005  0.4314  0.1043
 3915TIP3    H111688   0.669   6.608   5.330  1.2794  0.3567  0.2646
 3915TIP3    H211689   0.746   6.556   5.449 -1.0404  0.4156  1.8554
 3916TIP3   OH211690   0.114   2.976   0.718 -0.4323 -0.1684 -0.3956
 3916TIP3    H111691   0.062   2.989   0.639  1.0343  2.0075 -1.0863
 3916TIP3    H211692   0.203   2.997   0.692  0.3905 -1.2311  1.4042
 3917TIP3   OH211693   1.048   3.345   2.331 -0.1366  0.4355 -0.5530
 3917TIP3    H111694   1.010   3.282   2.391 -1.5587  0.5717 -1.2701
 3917TIP3    H211695   1.133   3.367   2.370 -0.5617 -0.2614  0.8358
 3918TIP3   OH211696   4.213   5.478   3.073 -0.2967 -0.4919  0.1502
 3918TIP3    H111697   4.178   5.404   3.023  0.8016 -1.2345  0.4370
 3918TIP3    H211698   4.177   5.465   3.161 -0.1231 -0.6756  0.1949
 3919TIP3   OH211699   4.020   6.905   0.771 -0.5002 -0.6567  0.5616
 3919TIP3    H111700   3.949   6.882   0.832 -0.5082  0.5833  1.0327
 3919TIP3    H211701   4.093   6.929   0.828 -0.6577  0.9916  0.1154
 3920TIP3   OH211702   2.671   2.472   2.904  0.7099 -0.2963  0.2114
 3920TIP3    H111703   2.693   2.425   2.984  1.4896 -0.8381 -0.3093
 3920TIP3    H211704   2.753   2.512   2.876  0.5631 -0.5278 -0.5825
 3921TIP3   OH211705   7.211   6.704   3.395  0.4230  0.3527  0.2495
 3921TIP3    H111706   7.122   6.738   3.380  1.2240  1.9906 -1.1947
 3921TIP3    H211707   7.263   6.743   3.325  2.2537 -0.7691  0.9274
 3922TIP3   OH211708   5.200   4.885   4.129  0.2214 -0.5577 -0.1277
 3922TIP3    H111709   5.243   4.908   4.046 -0.5875  0.5711 -0.2535
 3922TIP3    H211710   5.169   4.968   4.164 -1.0464 -1.2385  0.4152
 3923TIP3   OH211711   6.977   5.684   3.854 -0.1212 -0.4796  0.5248
 3923TIP3    H111712   6.953   5.775   3.876 -1.6861 -0.7592  0.1026
 3923TIP3    H211713   6.970   5.637   3.937 -0.6931 -0.4666  0.4941
 3924TIP3   OH211714   2.696   4.030   6.436  0.4319 -0.1829  0.5521
 3924TIP3    H111715   2.636   4.096   6.401  0.6670 -0.7311 -0.9388
 3924TIP3    H211716   2.777   4.078   6.454  0.4163  0.0549  0.0141
 3925TIP3   OH211717   8.065   6.522   2.466 -0.2070 -0.2308 -0.2025
 3925TIP3    H111718   7.976   6.559   2.462 -0.2097 -0.0781  1.0665
 3925TIP3    H211719   8.122   6.594   2.439 -0.4730 -0.4479 -1.4262
 3926TIP3   OH211720   4.719   3.479   6.707  0.1513  0.0762  1.2297
 3926TIP3    H111721   4.808   3.511   6.722 -0.3856  1.8851  0.9055
 3926TIP3    H211722   4.723   3.436   6.622  0.5982  0.7774  0.8821
 3927TIP3   OH211723  -0.025   5.480   3.145  0.4368 -0.0983  1.2787
 3927TIP3    H111724  -0.031   5.574   3.129  0.6238 -0.1367  0.9775
 3927TIP3    H211725   0.066   5.458   3.129 -0.0579 -0.7388 -0.9997
 3928TIP3   OH211726   4.758   3.636   6.145 -0.0472 -0.2935 -0.7242
 3928TIP3    H111727   4.702   3.713   6.157 -0.9882 -0.9516 -0.7804
 3928TIP3    H211728   4.830   3.667   6.090 -0.2843  0.5983 -0.5564
 3929TIP3   OH211729   5.182   7.140   3.759  0.4582 -0.0803 -0.3500
 3929TIP3    H111730   5.248   7.089   3.712 -1.2436 -2.3308 -0.5092
 3929TIP3    H211731   5.178   7.100   3.845 -2.4635 -1.8927 -1.1692
 3930TIP3   OH211732   3.351   0.770   2.692 -0.0007  0.3160 -0.2210
 3930TIP3    H111733   3.260   0.741   2.689  0.4288 -1.1657  0.3376
 3930TIP3    H211734   3.399   0.704   2.642  1.1522 -0.5851  1.9596
 3931TIP3   OH211735   0.058   4.683   5.099 -0.4233 -0.2980 -0.1330
 3931TIP3    H111736   0.125   4.668   5.166  0.0171 -0.7670 -0.6596
 3931TIP3    H211737   0.002   4.751   5.136  2.0748  2.3854 -0.8485
 3932TIP3   OH211738   3.956   6.420   4.758 -0.2640 -0.8343  0.1907
 3932TIP3    H111739   3.886   6.480   4.782 -0.6966 -1.5655  0.8051
 3932TIP3    H211740   4.012   6.415   4.835  0.7503  0.1096 -0.4556
 3933TIP3   OH211741   4.198   2.148   2.800 -0.7525  0.2650 -0.2689
 3933TIP3    H111742   4.176   2.117   2.888 -1.5071  0.1230 -0.4977
 3933TIP3    H211743   4.126   2.118   2.746  0.7674 -1.6197 -1.3704
 3934TIP3   OH211744   3.573   0.532   4.638 -0.0762  1.4314  0.1172
 3934TIP3    H111745   3.527   0.615   4.650 -0.9742  1.0691 -0.7081
 3934TIP3    H211746   3.657   0.544   4.683 -1.4750  1.6241  2.9005
 3935TIP3   OH211747   3.789  -0.021   5.964 -0.2640  0.0665  0.4822
 3935TIP3    H111748   3.781   0.050   5.900  0.2741 -0.1397  0.1810
 3935TIP3    H211749   3.855   0.011   6.026 -0.6598  0.1935  0.8421
 3936TIP3   OH211750   2.265   4.381   0.139  1.0944  0.3964 -0.6854
 3936TIP3    H111751   2.183   4.347   0.176  1.3859  1.2290  0.8085
 3936TIP3    H211752   2.299   4.308   0.087 -0.0030 -0.3784 -0.3732
 3937TIP3   OH211753   3.811   7.577   5.154 -0.1370  0.1900  0.1574
 3937TIP3    H111754   3.812   7.567   5.249 -0.5635  0.1013  0.1550
 3937TIP3    H211755   3.730   7.625   5.136 -0.3056 -0.2227 -0.1979
 3938TIP3   OH211756   6.370   3.504   3.146  0.5687 -0.2180  0.0708
 3938TIP3    H111757   6.292   3.450   3.155  0.5483 -0.1169  0.5164
 3938TIP3    H211758   6.423   3.483   3.223  0.7198  0.1331  0.0638
 3939TIP3   OH211759   3.538   1.674   4.461 -0.5732 -0.3484  0.1797
 3939TIP3    H111760   3.618   1.726   4.452 -0.2642 -0.7808  0.3674
 3939TIP3    H211761   3.470   1.725   4.417 -0.3270  0.3245  0.5600
 3940TIP3   OH211762   2.679   7.106   6.114 -1.3181 -0.2820 -0.1542
 3940TIP3    H111763   2.767   7.142   6.105 -0.5332 -1.9680  0.3586
 3940TIP3    H211764   2.673   7.078   6.205 -2.7797  0.7195  0.0890
 3941TIP3   OH211765   0.852   3.881   5.019  0.0533  0.1882 -0.6268
 3941TIP3    H111766   0.920   3.864   5.085  0.7852  1.0055 -1.1564
 3941TIP3    H211767   0.770   3.860   5.064  0.3799  2.2688  1.1250
 3942TIP3   OH211768   0.326   4.124   1.559  0.0287  0.7466 -0.5742
 3942TIP3    H111769   0.337   4.131   1.464  0.7209 -0.5791 -0.6184
 3942TIP3    H211770   0.240   4.082   1.570 -0.7477  2.2764 -0.5397
 3943TIP3   OH211771   0.179   5.475   3.886  0.0024 -0.5412  0.3363
 3943TIP3    H111772   0.106   5.483   3.825  1.5374  1.1777 -1.4409
 3943TIP3    H211773   0.244   5.423   3.838  1.6255  1.6641  0.0072
 3944TIP3   OH211774   5.849   2.632   5.504  0.0823  0.1158 -0.3762
 3944TIP3    H111775   5.927   2.598   5.459 -0.2062 -2.8066  1.0742
 3944TIP3    H211776   5.776   2.604   5.449 -0.1368 -1.3879  0.6201
 3945TIP3   OH211777   3.014   7.163   2.295  0.2683  0.3379  0.1178
 3945TIP3    H111778   2.954   7.145   2.368  2.7211 -2.9162  1.6111
 3945TIP3    H211779   3.087   7.210   2.335  1.0023 -0.2390 -0.5106
 3946TIP3   OH211780   1.227   0.842   1.164 -0.0689 -0.4671  0.1721
 3946TIP3    H111781   1.255   0.752   1.180 -0.7271 -0.6546  0.3298
 3946TIP3    H211782   1.211   0.846   1.069  2.5066  0.2542 -0.3116
 3947TIP3   OH211783   5.185   5.167   6.270  0.0170 -0.4067  0.2240
 3947TIP3    H111784   5.277   5.183   6.292 -0.1216 -0.3411  0.7663
 3947TIP3    H211785   5.143   5.252   6.281  0.3354  0.1813 -2.4398
 3948TIP3   OH211786   1.230   0.441   6.786 -0.0792 -0.3524  0.7039
 3948TIP3    H111787   1.191   0.421   6.701  3.1159 -1.5089 -0.6555
 3948TIP3    H211788   1.288   0.366   6.803  2.7764  1.9077  1.6327
 3949TIP3   OH211789   5.417   7.823   0.481 -0.1138 -0.1424  0.7040
 3949TIP3    H111790   5.409   7.727   0.480  2.8188 -0.4925  1.6664
 3949TIP3    H211791   5.379   7.849   0.564 -1.8021 -0.3034  0.0301
 3950TIP3   OH211792   0.254   1.540   6.449 -0.7011 -0.1785  0.6362
 3950TIP3    H111793   0.237   1.481   6.523  0.8736 -0.7674  0.5666
 3950TIP3    H211794   0.338   1.580   6.470  0.3461 -1.1980 -1.3281
 3951TIP3   OH211795   4.279   6.768   5.924 -0.5114 -0.7596 -0.4345
 3951TIP3    H111796   4.216   6.818   5.978  1.6717  0.1978  1.4122
 3951TIP3    H211797   4.259   6.677   5.942  0.6117 -0.4938  2.8003
 3952TIP3   OH211798   0.130   0.933   2.368  0.1895 -0.4288  0.0228
 3952TIP3    H111799   0.174   0.960   2.287  1.9625 -1.2244  0.6757
 3952TIP3    H211800   0.140   1.008   2.427 -0.4305 -0.1459 -0.2182
 3953TIP3   OH211801   1.557   5.605   0.508  0.1513  0.0883  0.9438
 3953TIP3    H111802   1.611   5.526   0.514  0.5888  0.4188  1.4656
 3953TIP3    H211803   1.481   5.578   0.456  0.3702 -0.6326  0.9843
 3954TIP3   OH211804   3.709   6.220   3.107 -0.1922 -0.2997 -0.2704
 3954TIP3    H111805   3.669   6.140   3.141  0.0912 -0.0565  0.6702
 3954TIP3    H211806   3.661   6.291   3.150 -0.4794  0.0527 -1.1375
 3955TIP3   OH211807   3.079   5.496   4.896 -0.3793  0.4389 -0.0729
 3955TIP3    H111808   3.148   5.480   4.961 -0.5873  1.0987  0.3158
 3955TIP3    H211809   3.111   5.453   4.817  0.1039  0.0404  0.3325
 3956TIP3   OH211810   2.427   4.891   0.087 -0.2060 -0.3032  0.2635
 3956TIP3    H111811   2.371   4.967   0.105 -0.8842 -0.4984 -0.8734
 3956TIP3    H211812   2.515   4.919   0.113 -0.6779  0.3411  1.2357
 3957TIP3   OH211813   1.484   7.586   5.308 -0.0111 -0.0743 -0.0644
 3957TIP3    H111814   1.398   7.564   5.342 -0.0180 -0.8198 -0.5441
 3957TIP3    H211815   1.537   7.603   5.386 -0.0222 -1.7801  0.3440
 3958TIP3   OH211816   0.322   6.614   2.054 -0.4820 -0.0556 -0.3211
 3958TIP3    H111817   0.370   6.666   1.990 -0.9220 -0.3178 -0.8768
 3958TIP3    H211818   0.240   6.592   2.010 -0.8015 -0.2245  0.3421
 3959TIP3   OH211819   0.779   1.509   2.371  0.1379  0.0570 -0.1089
 3959TIP3    H111820   0.696   1.544   2.338 -0.6265 -0.5623  1.0979
 3959TIP3    H211821   0.755   1.454   2.445  1.6639  0.1504  0.5065
 3960TIP3   OH211822   8.119   5.844   1.471  0.1657  0.4359  0.1618
 3960TIP3    H111823   8.025   5.860   1.462  0.1352  0.9413  1.2242
 3960TIP3    H211824   8.160   5.929   1.454  0.3180  0.5814  1.1998
 3961TIP3   OH211825   8.213   7.528   6.622 -0.5490  0.3907 -0.0709
 3961TIP3    H111826   8.221   7.561   6.532 -0.6912 -0.9967 -0.6100
 3961TIP3    H211827   8.124   7.495   6.628 -0.2112 -0.4844  0.2408
 3962TIP3   OH211828   0.049   2.279   0.377  0.1627 -0.4873  0.3307
 3962TIP3    H111829   0.103   2.206   0.347  0.0133 -0.8235  0.8646
 3962TIP3    H211830   0.001   2.244   0.453  0.1862  0.2054  0.6740
 3963TIP3   OH211831   7.249   6.418   3.316  0.1268  0.0235 -0.2107
 3963TIP3    H111832   7.249   6.511   3.292  1.4350  0.4437  1.2777
 3963TIP3    H211833   7.208   6.375   3.241 -0.3872  1.7701 -1.0102
 3964TIP3   OH211834   4.399   7.638   3.725  0.0193 -0.2114 -0.4935
 3964TIP3    H111835   4.423   7.669   3.637  1.0771  2.0922  0.5198
 3964TIP3    H211836   4.475   7.658   3.779 -0.3515 -2.2257  0.8590
 3965TIP3   OH211837   7.301   4.317   4.419  0.3590  0.3476  0.0737
 3965TIP3    H111838   7.339   4.233   4.445 -1.0512  0.6089  3.4109
 3965TIP3    H211839   7.258   4.298   4.335  0.8687 -2.0174  0.2642
 3966TIP3   OH211840   7.893   7.111   0.824 -0.0817  0.2057  0.2838
 3966TIP3    H111841   7.861   7.197   0.794 -1.1041 -0.3537 -0.2797
 3966TIP3    H211842   7.817   7.071   0.867  0.0789 -0.8363 -0.3773
 3967TIP3   OH211843   2.648   5.612   1.898 -0.1084 -0.0772  0.1905
 3967TIP3    H111844   2.574   5.563   1.861  0.2887  0.6513 -1.6995
 3967TIP3    H211845   2.725   5.576   1.855  0.4839  0.2114  0.9910
 3968TIP3   OH211846   3.094   6.877   3.895 -1.0013  0.1485 -0.0969
 3968TIP3    H111847   3.186   6.853   3.896 -0.9148  0.3493 -1.4783
 3968TIP3    H211848   3.088   6.953   3.953 -0.3111  0.1009  0.0426
 3969TIP3   OH211849   6.183   5.285   1.410  0.0038  0.7106 -0.0091
 3969TIP3    H111850   6.263   5.316   1.367  0.4904  1.3983  1.3491
 3969TIP3    H211851   6.122   5.359   1.402 -0.6093  0.1143 -1.2272
 3970TIP3   OH211852   2.052   4.940   0.500  0.2739 -0.0262 -0.1089
 3970TIP3    H111853   2.103   5.006   0.547 -0.9357  0.4360  0.6012
 3970TIP3    H211854   2.009   4.889   0.570  0.0965 -0.6720 -0.6770
 3971TIP3   OH211855   1.120   1.354   4.996  0.3171 -0.2507 -0.1284
 3971TIP3    H111856   1.178   1.360   5.072  1.6591 -1.6803 -0.9814
 3971TIP3    H211857   1.138   1.267   4.959 -3.2099 -1.2729  0.1970
 3972TIP3   OH211858   5.844   5.575   4.770  0.2653  0.1182 -0.1177
 3972TIP3    H111859   5.791   5.603   4.845  0.1667  1.1894 -0.5697
 3972TIP3    H211860   5.898   5.651   4.749  0.3642 -0.2034 -1.0664
 3973TIP3   OH211861   4.585   0.022   6.731  0.4954 -0.0270  0.0823
 3973TIP3    H111862   4.545   0.106   6.752  0.8363  0.1195  0.1639
 3973TIP3    H211863   4.527  -0.044   6.769  0.7827  0.2089  0.9587
 3974TIP3   OH211864   6.860   1.924   2.721 -0.1789 -0.0672 -0.5393
 3974TIP3    H111865   6.874   2.014   2.751 -0.1410  0.5585 -2.2925
 3974TIP3    H211866   6.781   1.929   2.668 -1.6859 -1.6342  1.4022
 3975TIP3   OH211867   1.455   7.471   3.496  0.1617  0.2287  0.0021
 3975TIP3    H111868   1.379   7.514   3.456  1.2762  1.5158 -0.8239
 3975TIP3    H211869   1.470   7.395   3.440  0.9341  1.3210 -1.3677
 3976TIP3   OH211870   1.396   2.706   5.418  0.0627 -0.0099 -0.5383
 3976TIP3    H111871   1.435   2.774   5.472 -0.9755  0.2137 -0.0348
 3976TIP3    H211872   1.385   2.748   5.332  0.1358  0.2040 -0.4452
 3977TIP3   OH211873   2.850   0.805   2.773  0.0520  0.2714  0.9068
 3977TIP3    H111874   2.889   0.804   2.861 -0.7236  0.5596  1.2674
 3977TIP3    H211875   2.760   0.777   2.787  0.2304 -0.8187  0.0270
 3978TIP3   OH211876   2.576   2.836   1.908  0.5509  0.4015  0.5330
 3978TIP3    H111877   2.492   2.803   1.939  0.6507 -0.8163 -0.4105
 3978TIP3    H211878   2.617   2.761   1.865  2.3009  0.8625  1.3008
 3979TIP3   OH211879   7.289   3.996   1.891  0.6016 -0.1815 -0.1541
 3979TIP3    H111880   7.269   3.905   1.916  1.6239 -0.3597  0.0833
 3979TIP3    H211881   7.342   3.988   1.811  0.5955  0.2082 -0.1986
 3980TIP3   OH211882   0.241   0.732   1.251  0.0007 -0.1164  0.7806
 3980TIP3    H111883   0.159   0.701   1.289  0.0704 -1.4769 -0.1203
 3980TIP3    H211884   0.215   0.802   1.191 -0.8128 -2.0715 -1.2576
 3981TIP3   OH211885   6.630   0.755   2.465  0.1628 -0.1143  0.2000
 3981TIP3    H111886   6.620   0.691   2.394 -1.1379  1.1869 -0.8602
 3981TIP3    H211887   6.571   0.723   2.534 -0.7286  0.0828 -0.4476
 3982TIP3   OH211888   6.924   5.139   0.811 -0.0019 -0.3778  0.2507
 3982TIP3    H111889   6.919   5.044   0.821  0.9892 -0.4114  0.5727
 3982TIP3    H211890   6.843   5.164   0.767 -0.1993 -1.3919  0.0306
 3983TIP3   OH211891   6.990   0.096   3.379 -0.0738 -0.0312  0.0825
 3983TIP3    H111892   7.025   0.035   3.314  1.1170 -0.1037  0.7681
 3983TIP3    H211893   7.067   0.140   3.415 -0.8047  0.8310  0.6359
 3984TIP3   OH211894   0.935   2.666   3.664  0.4205  0.2940  0.3738
 3984TIP3    H111895   0.978   2.611   3.599  1.0644 -0.9797  1.8163
 3984TIP3    H211896   0.869   2.609   3.704  0.0849  1.0175  0.8785
 3985TIP3   OH211897   2.600   0.637   0.611 -1.1816  0.2806  0.1076
 3985TIP3    H111898   2.535   0.593   0.665 -1.3194 -0.3428 -0.5458
 3985TIP3    H211899   2.614   0.577   0.537 -1.3223  1.2957 -0.7663
 3986TIP3   OH211900   1.738   6.969   3.185 -0.2114  0.2133 -0.1022
 3986TIP3    H111901   1.825   6.941   3.155 -0.1070  1.1173 -0.6730
 3986TIP3    H211902   1.745   6.966   3.281 -0.6554 -3.0180 -0.0499
 3987TIP3   OH211903   0.722   4.887   3.274 -0.2850 -0.0314 -0.4010
 3987TIP3    H111904   0.802   4.912   3.227  0.5201 -1.4682  0.1290
 3987TIP3    H211905   0.717   4.948   3.347  2.0222 -1.6749  1.2868
 3988TIP3   OH211906   4.175   5.468   6.084  0.1803  0.8725  0.3358
 3988TIP3    H111907   4.249   5.526   6.104  1.0928  0.3693 -1.4008
 3988TIP3    H211908   4.126   5.464   6.166  0.5947  3.3274  0.7983
 3989TIP3   OH211909   6.262   5.543   2.665  0.0805  0.2032  0.0373
 3989TIP3    H111910   6.237   5.460   2.704 -0.7539  0.1004 -0.6701
 3989TIP3    H211911   6.187   5.600   2.681  0.2338  0.5179 -0.3375
 3990TIP3   OH211912   1.893   3.179   3.769  0.2153 -0.5749  0.0882
 3990TIP3    H111913   1.840   3.132   3.705 -0.1945  0.1555 -0.1264
 3990TIP3    H211914   1.849   3.165   3.852 -2.1680  2.4959 -0.4785
 3991TIP3   OH211915   3.486   3.864   2.071  0.0514 -0.0519 -0.1815
 3991TIP3    H111916   3.564   3.815   2.044  0.5649  0.5213  0.2258
 3991TIP3    H211917   3.508   3.955   2.053  0.1158  0.2754  1.4616
 3992TIP3   OH211918   3.279   0.843   3.290 -0.0867  0.6311  0.1235
 3992TIP3    H111919   3.332   0.830   3.212 -1.8518  0.0802 -1.0623
 3992TIP3    H211920   3.294   0.765   3.343  0.6802  0.7325  0.0554
 3993TIP3   OH211921   7.434   0.515   3.537 -0.6515 -0.2262 -0.4177
 3993TIP3    H111922   7.406   0.559   3.456 -1.9171  0.4619  0.3511
 3993TIP3    H211923   7.364   0.535   3.600  0.3278 -0.7023  0.8646
 3994TIP3   OH211924   3.050   4.982   1.922  0.2257  0.0089  0.1734
 3994TIP3    H111925   2.957   4.987   1.944  0.3062  0.5860  0.4063
 3994TIP3    H211926   3.087   4.922   1.987  0.1897  0.5390  0.6897
 3995TIP3   OH211927   3.063   5.791   3.974  0.4625  0.4016  0.7662
 3995TIP3    H111928   3.145   5.805   4.022  2.0533  0.4644 -1.7664
 3995TIP3    H211929   3.091   5.758   3.889 -2.2407 -0.3432  0.0794
 3996TIP3   OH211930   0.541   1.373   4.361 -0.2942  0.2167  0.1850
 3996TIP3    H111931   0.636   1.364   4.365 -0.2328  0.2603 -0.9049
 3996TIP3    H211932   0.527   1.466   4.339 -0.5640  0.0302 -0.4375
 3997TIP3   OH211933   4.771   1.131   4.024 -0.2594 -0.4463  0.0930
 3997TIP3    H111934   4.679   1.153   4.009 -0.2076  0.3576  0.8825
 3997TIP3    H211935   4.804   1.106   3.938 -1.4682 -1.7740 -0.0286
 3998TIP3   OH211936   2.290   4.670   1.306 -0.0198  0.2155 -0.3374
 3998TIP3    H111937   2.209   4.716   1.328  0.5483  0.7863  0.6390
 3998TIP3    H211938   2.294   4.673   1.210 -1.2233  0.0350 -0.4054
 3999TIP3   OH211939   4.800   3.996   3.281  0.6967 -0.2390  0.6900
 3999TIP3    H111940   4.734   3.998   3.350  0.3118  0.3849  0.3117
 3999TIP3    H211941   4.801   4.085   3.245 -0.5801 -1.0065 -1.4777
 4000TIP3   OH211942   0.932   2.177   0.264  0.3630  0.6434 -0.0053
 4000TIP3    H111943   0.897   2.245   0.206  1.1905  1.3321  0.2807
 4000TIP3    H211944   0.953   2.223   0.345 -0.1394 -0.1792  0.6127
 4001TIP3   OH211945   7.779   3.222   0.365  0.1309 -0.0463 -0.0555
 4001TIP3    H111946   7.728   3.223   0.446 -0.5061  0.3449 -0.4464
 4001TIP3    H211947   7.870   3.226   0.393 -0.0602 -0.5705  0.6572
 4002TIP3   OH211948   8.313   1.316   3.872  0.2661 -0.4595 -0.1090
 4002TIP3    H111949   8.222   1.325   3.841  0.5382 -0.3449 -0.9054
 4002TIP3    H211950   8.346   1.239   3.825  0.1307 -1.4123  1.3135
 4003TIP3   OH211951   1.663   3.870   2.388  0.2327 -0.0087 -0.2206
 4003TIP3    H111952   1.651   3.775   2.383 -1.8916  0.0872  1.4775
 4003TIP3    H211953   1.671   3.898   2.297  0.4529 -1.7492 -0.7819
 4004TIP3   OH211954   2.345   0.635   0.245 -0.7594 -0.2955  0.6234
 4004TIP3    H111955   2.258   0.671   0.229 -0.9795 -1.1884 -0.2681
 4004TIP3    H211956   2.402   0.682   0.183 -1.1414 -1.8085 -0.9405
 4005TIP3   OH211957   0.293   7.467   4.093  0.4128 -0.2138  0.1211
 4005TIP3    H111958   0.257   7.538   4.039 -1.0975 -1.1459 -0.1610
 4005TIP3    H211959   0.384   7.492   4.108 -0.1126  1.8629  0.1661
 4006TIP3   OH211960   5.588   6.526   2.699  0.1218  0.2647  0.2347
 4006TIP3    H111961   5.494   6.539   2.685  0.0816 -0.4931 -0.2333
 4006TIP3    H211962   5.611   6.590   2.766 -0.5280  1.1403 -0.3480
 4007TIP3   OH211963   4.716   7.505   3.812 -0.2537 -0.1204  0.5149
 4007TIP3    H111964   4.696   7.597   3.794 -1.9293 -0.4355  0.6010
 4007TIP3    H211965   4.810   7.498   3.796 -0.2824  1.3569 -0.5672
 4008TIP3   OH211966   4.366   2.558   1.346 -0.4214 -0.0427  0.2622
 4008TIP3    H111967   4.318   2.495   1.400  0.0237  0.1152  0.8497
 4008TIP3    H211968   4.315   2.564   1.265 -0.6603 -0.8884  0.3429
 4009TIP3   OH211969   1.314   5.730   4.637  0.1078  0.4711  0.6535
 4009TIP3    H111970   1.237   5.706   4.689 -0.5623  1.6167  0.2229
 4009TIP3    H211971   1.304   5.681   4.555 -0.4365  0.9755  0.4060
 4010TIP3   OH211972   7.056   2.399   1.844  0.5625  0.3132 -0.2513
 4010TIP3    H111973   6.978   2.389   1.788  1.4616 -0.1534 -1.4776
 4010TIP3    H211974   7.046   2.484   1.885 -0.7142  0.1519 -0.1989
 4011TIP3   OH211975   2.737   7.696   0.228 -0.3310  0.3679 -0.3393
 4011TIP3    H111976   2.718   7.706   0.322 -0.3753  0.9931 -0.4094
 4011TIP3    H211977   2.718   7.604   0.210  0.7247 -0.0368  0.4976
 4012TIP3   OH211978   5.413   5.708   2.492  0.3041  0.3529  0.7770
 4012TIP3    H111979   5.337   5.756   2.524  1.2037  1.3904  1.4387
 4012TIP3    H211980   5.384   5.669   2.410 -0.6328  1.5929  0.4836
 4013TIP3   OH211981   5.132   4.216   5.880 -0.7739  1.0881 -0.0810
 4013TIP3    H111982   5.156   4.303   5.847  0.5614  1.2596  1.2179
 4013TIP3    H211983   5.178   4.210   5.964 -2.7605  0.0620  0.9883
 4014TIP3   OH211984   6.695   4.556   1.800  0.2564  0.3687 -0.4347
 4014TIP3    H111985   6.781   4.596   1.815  0.8168 -0.6998 -0.7290
 4014TIP3    H211986   6.714   4.479   1.746 -0.8996  0.1597 -0.5545
 4015TIP3   OH211987   1.697   1.961   4.634  0.1001  0.1124 -0.6825
 4015TIP3    H111988   1.784   1.994   4.656 -0.1908 -0.5366  1.7454
 4015TIP3    H211989   1.638   2.033   4.655 -0.1971 -0.5531  0.8791
 4016TIP3   OH211990   6.408   5.881   6.306  0.0323 -0.1128 -0.1204
 4016TIP3    H111991   6.467   5.853   6.375  0.8364  1.5102 -0.1014
 4016TIP3    H211992   6.464   5.892   6.229 -0.2400  1.2288 -0.1622
 4017TIP3   OH211993   7.732   1.176   1.841 -0.1644 -0.6013  0.4252
 4017TIP3    H111994   7.723   1.235   1.766  0.2955  1.9226  2.2577
 4017TIP3    H211995   7.769   1.096   1.803 -1.3383  0.0055 -2.2559
 4018TIP3   OH211996   4.457   4.345   5.456 -0.0970 -0.7949  0.3397
 4018TIP3    H111997   4.499   4.345   5.370 -0.4003 -2.4707  0.1609
 4018TIP3    H211998   4.515   4.396   5.512  0.5383 -0.4101 -0.6538
 4019TIP3   OH211999   4.949   1.571   0.448 -0.1051  0.0357 -0.0533
 4019TIP3    H112000   4.938   1.495   0.505 -1.0276  0.9159  0.9951
 4019TIP3    H212001   4.864   1.616   0.450 -0.3926 -0.2332 -2.6849
 4020TIP3   OH212002   1.873   0.343   5.780 -0.0520  0.1337  0.8560
 4020TIP3    H112003   1.917   0.299   5.706 -0.7827  1.3981 -0.3799
 4020TIP3    H212004   1.945   0.374   5.835  0.5347 -0.0990  0.2437
 4021TIP3   OH212005   6.441   1.163   6.567 -0.0158  0.4046  0.6831
 4021TIP3    H112006   6.401   1.124   6.490  1.1876  0.4985 -0.0161
 4021TIP3    H212007   6.452   1.089   6.628 -2.1117  0.5480  1.3123
 4022TIP3   OH212008   7.601   6.838   3.120  0.1196  0.0328  0.9334
 4022TIP3    H112009   7.614   6.928   3.090 -0.4954  0.7981  2.7699
 4022TIP3    H212010   7.683   6.817   3.165  0.9997 -1.0642 -1.0627
 4023TIP3   OH212011   3.794   4.597   5.030 -0.3164  0.5026 -0.0611
 4023TIP3    H112012   3.878   4.601   5.076 -0.4822 -0.1561  0.3047
 4023TIP3    H212013   3.814   4.631   4.942  1.0874 -2.5935 -1.0643
 4024TIP3   OH212014   4.249   0.124   4.116 -0.3041  0.2885 -0.2674
 4024TIP3    H112015   4.219   0.055   4.176  0.4742  0.3266  0.1829
 4024TIP3    H212016   4.337   0.096   4.091 -0.4226  0.5439 -0.9914
 4025TIP3   OH212017   1.600   5.273   3.850  0.5059 -0.1193 -0.0539
 4025TIP3    H112018   1.669   5.210   3.833  1.3517  0.9980 -0.9670
 4025TIP3    H212019   1.564   5.293   3.763  0.8500  1.2681  0.0986
 4026TIP3   OH212020   6.263   1.594   1.738 -0.3471 -0.1660 -0.1634
 4026TIP3    H112021   6.171   1.613   1.756 -0.1412 -0.2010  0.9590
 4026TIP3    H212022   6.288   1.659   1.672 -1.1768 -0.1871 -0.5202
 4027TIP3   OH212023   6.064   5.822   2.245  0.4714  0.0817 -0.1284
 4027TIP3    H112024   6.040   5.730   2.259 -0.3857 -0.0366 -2.1005
 4027TIP3    H212025   6.138   5.818   2.183  0.3207  0.7254 -0.3536
 4028TIP3   OH212026   6.161   6.166   2.428  0.1504 -0.0963  0.1120
 4028TIP3    H112027   6.242   6.164   2.377 -0.1117 -3.6219 -0.4522
 4028TIP3    H212028   6.095   6.127   2.370 -1.1458 -0.3797  1.6881
 4029TIP3   OH212029   3.249   0.604   3.934 -0.1269 -0.1049 -0.3518
 4029TIP3    H112030   3.229   0.524   3.885  0.4617 -1.0437  0.8601
 4029TIP3    H212031   3.178   0.612   3.998 -0.2173  0.3865 -0.5104
 4030TIP3   OH212032   1.470   5.044   5.770  0.3837 -0.4068  0.4910
 4030TIP3    H112033   1.547   5.101   5.765  0.5745 -0.6083  1.1106
 4030TIP3    H212034   1.480   4.997   5.852  1.3941 -3.0238 -0.9960
 4031TIP3   OH212035   2.849   2.591   1.445 -0.2019  0.2025 -0.4063
 4031TIP3    H112036   2.793   2.542   1.506  0.5111 -0.8647 -0.5752
 4031TIP3    H212037   2.843   2.682   1.474 -0.7406 -0.1306  0.5764
 4032TIP3   OH212038   6.543   2.750   0.839  0.2635  0.2542  0.1062
 4032TIP3    H112039   6.570   2.834   0.804  0.4162  1.5540  3.0442
 4032TIP3    H212040   6.450   2.762   0.861  0.9842  0.8478  3.3599
 4033TIP3   OH212041   2.418   3.526   1.932 -0.1385 -0.0066 -0.8874
 4033TIP3    H112042   2.344   3.482   1.889  0.0203 -0.6415 -0.5361
 4033TIP3    H212043   2.424   3.611   1.889 -1.4139  0.2720 -0.5696
 4034TIP3   OH212044   5.181   3.542   6.532 -0.2794  0.1931  0.3069
 4034TIP3    H112045   5.178   3.509   6.442  0.3231 -0.3753  0.4882
 4034TIP3    H212046   5.181   3.637   6.522 -2.0907  0.1897 -0.2262
 4035TIP3   OH212047   4.626   2.393   6.437 -0.0382  0.0680 -0.2009
 4035TIP3    H112048   4.587   2.425   6.356  1.4851  1.0171 -0.6065
 4035TIP3    H212049   4.573   2.317   6.462 -1.0104  0.2463 -1.6442
 4036TIP3   OH212050   1.681   0.107   3.333 -0.3432  0.3219 -0.4598
 4036TIP3    H112051   1.735   0.028   3.347 -0.2592  0.4184 -0.2286
 4036TIP3    H212052   1.614   0.101   3.401  0.0386  0.7726 -0.0327
 4037TIP3   OH212053   0.876   0.201   0.475 -0.1883  0.0821 -0.2015
 4037TIP3    H112054   0.864   0.294   0.454 -1.9693  0.0628  0.5321
 4037TIP3    H212055   0.893   0.160   0.390 -1.0142  0.8611 -0.7667
 4038TIP3   OH212056   7.556   2.534   0.049  0.2774  0.0256  0.2304
 4038TIP3    H112057   7.494   2.606   0.038  1.1625  0.8922  0.8514
 4038TIP3    H212058   7.529   2.491   0.130 -1.1256 -1.2597 -0.8529
 4039TIP3   OH212059   2.534   0.677   5.401 -0.2600 -0.1646  0.5824
 4039TIP3    H112060   2.601   0.622   5.360 -0.2715 -0.8800  1.4951
 4039TIP3    H212061   2.551   0.670   5.495 -1.5676 -0.3030  0.8272
 4040TIP3   OH212062   0.606   2.189   5.928 -0.5920  0.0563 -0.1620
 4040TIP3    H112063   0.665   2.253   5.969  0.0342  0.1778 -1.2159
 4040TIP3    H212064   0.592   2.222   5.839 -0.4433 -1.1476 -0.6582
 4041TIP3   OH212065   0.715   2.551   2.351  0.0294  0.2193 -0.0827
 4041TIP3    H112066   0.703   2.640   2.319 -0.5652  0.0924 -0.2270
 4041TIP3    H212067   0.783   2.514   2.294 -1.0106 -0.0045 -1.2345
 4042TIP3   OH212068   6.157   5.229   1.091 -0.1149 -0.0516  0.8280
 4042TIP3    H112069   6.231   5.251   1.034  0.5690 -0.3984  1.5588
 4042TIP3    H212070   6.184   5.260   1.178 -1.1246  0.4402  0.9762
 4043TIP3   OH212071   1.930   3.560   2.156 -0.2751 -0.2103  0.6277
 4043TIP3    H112072   2.021   3.571   2.130 -0.7790  1.9619 -0.5041
 4043TIP3    H212073   1.896   3.494   2.096 -0.1188  1.0571 -0.9354
 4044TIP3   OH212074   4.881   0.685   6.071  0.0743  0.4325 -0.5202
 4044TIP3    H112075   4.818   0.728   6.129  0.6154  0.4719  0.0506
 4044TIP3    H212076   4.954   0.746   6.067 -0.0745  0.5542 -1.4789
 4045TIP3   OH212077   7.279   4.872   6.717  0.3799  0.5225 -0.0515
 4045TIP3    H112078   7.245   4.832   6.798  1.8798 -0.1797  0.2662
 4045TIP3    H212079   7.354   4.924   6.746 -0.2202  1.8295 -0.7692
 4046TIP3   OH212080   6.537   2.359   3.242  0.0789 -0.1063  0.4281
 4046TIP3    H112081   6.533   2.350   3.147  0.7195 -0.9083  0.4703
 4046TIP3    H212082   6.567   2.274   3.274 -2.5524 -0.6880  1.5616
 4047TIP3   OH212083   6.976   1.064   2.635 -0.1598  0.1838 -0.5325
 4047TIP3    H112084   6.894   1.020   2.611 -0.8105  1.4715 -0.7589
 4047TIP3    H212085   6.985   1.048   2.729  0.7886 -2.2708 -0.9535
 4048TIP3   OH212086   3.570   6.848   6.104  0.0020 -0.5070  0.1348
 4048TIP3    H112087   3.575   6.807   6.018 -0.5952  0.1695 -0.2332
 4048TIP3    H212088   3.479   6.839   6.130  0.0330 -0.1010  0.3971
 4049TIP3   OH212089   7.930   7.513   6.636 -0.0153 -0.2905  0.1744
 4049TIP3    H112090   7.931   7.594   6.687  0.9802  1.0516 -1.8164
 4049TIP3    H212091   7.837   7.492   6.628 -0.2901  0.5513  0.8924
 4050TIP3   OH212092   7.674   4.746   4.465  0.0499  0.3473  0.0449
 4050TIP3    H112093   7.659   4.838   4.445  3.7230  1.3683  1.3735
 4050TIP3    H212094   7.592   4.717   4.506 -1.5790  2.6333 -1.3538
 4051TIP3   OH212095   3.240   3.307   3.589 -0.0680 -0.0947 -0.0217
 4051TIP3    H112096   3.270   3.216   3.597  0.7206  0.1415 -0.1812
 4051TIP3    H212097   3.314   3.353   3.548  0.4557  1.0834  2.0760
 4052TIP3   OH212098   6.209   6.760   2.662  0.0351  0.1033 -0.3977
 4052TIP3    H112099   6.250   6.847   2.661 -2.4292  1.3665 -0.7089
 4052TIP3    H212100   6.220   6.728   2.573  0.3981  0.4034 -0.4635
 4053TIP3   OH212101   4.849   0.477   1.408 -0.0943 -0.0059  0.2649
 4053TIP3    H112102   4.872   0.461   1.500 -2.9733  1.8325  1.4230
 4053TIP3    H212103   4.764   0.435   1.396  0.2726 -0.3251 -1.6782
 4054TIP3   OH212104   7.588   4.639   1.887 -0.2844  0.5237  0.2261
 4054TIP3    H112105   7.542   4.647   1.970  0.7327 -0.6595  0.9309
 4054TIP3    H212106   7.666   4.588   1.907  0.3899  0.8848 -1.3048
 4055TIP3   OH212107   3.280   1.094   0.950  0.1910 -0.2155 -0.5260
 4055TIP3    H112108   3.270   1.186   0.976 -0.3613 -0.0512 -1.2956
 4055TIP3    H212109   3.284   1.046   1.033  0.6532  0.5154 -0.1157
 4056TIP3   OH212110   6.832   6.636   5.720 -0.0500  0.2211  0.3075
 4056TIP3    H112111   6.863   6.564   5.665  0.8862  0.6410  0.2529
 4056TIP3    H212112   6.803   6.594   5.801  2.0968 -0.1167  0.9646
 4057TIP3   OH212113   3.524   7.488   0.764  0.3027 -0.2139 -0.0881
 4057TIP3    H112114   3.578   7.413   0.787  0.3135 -0.1649  0.0429
 4057TIP3    H212115   3.558   7.517   0.679  1.9392  1.1735  0.9840
 4058TIP3   OH212116   5.000   6.976   0.339 -0.2867  0.3560 -0.4194
 4058TIP3    H112117   4.915   6.958   0.381  0.1081 -0.0742  0.2065
 4058TIP3    H212118   5.017   6.899   0.285  0.5286 -0.3873  0.8325
 4059TIP3   OH212119   4.563   6.891   1.744 -0.4810 -1.0039  0.1679
 4059TIP3    H112120   4.552   6.915   1.652 -3.8548  1.8253  1.0526
 4059TIP3    H212121   4.648   6.927   1.769  0.7567 -2.3271 -1.8701
 4060TIP3   OH212122   4.278   2.374   3.750 -0.2984  0.0851 -0.0703
 4060TIP3    H112123   4.330   2.358   3.829 -2.1884 -0.7333  1.0666
 4060TIP3    H212124   4.277   2.469   3.740  3.6498  0.1636 -1.7710
 4061TIP3   OH212125   5.290   3.411   2.335 -0.7103 -0.3552 -0.0799
 4061TIP3    H112126   5.336   3.340   2.380 -0.0207  1.2751  1.9471
 4061TIP3    H212127   5.342   3.427   2.257  0.3713 -0.6753  0.5458
 4062TIP3   OH212128   3.164   1.512   4.091  0.0416 -0.0004 -0.1826
 4062TIP3    H112129   3.123   1.570   4.028 -1.2198 -1.9077 -1.2045
 4062TIP3    H212130   3.145   1.551   4.176 -0.8317  1.0250 -0.8348
 4063TIP3   OH212131   2.690   2.316   2.670  0.5071 -0.3079 -0.1077
 4063TIP3    H112132   2.728   2.236   2.707  0.6893 -0.1540  0.0334
 4063TIP3    H212133   2.638   2.352   2.742  0.2342 -0.4225 -0.2439
 4064TIP3   OH212134   2.816   3.220   3.932  0.1491 -0.2909  0.1388
 4064TIP3    H112135   2.757   3.147   3.910 -1.3713  0.8426  0.2747
 4064TIP3    H212136   2.803   3.283   3.862 -0.1984  0.7691  1.1339
 4065TIP3   OH212137   2.890   2.854   1.559  0.2271  0.0638  0.5554
 4065TIP3    H112138   2.885   2.880   1.651  1.9134 -0.4223  0.8209
 4065TIP3    H212139   2.960   2.909   1.523 -0.3533  0.1753 -0.4201
 4066TIP3   OH212140   4.631   1.213   0.191 -0.2583  1.0065 -0.0153
 4066TIP3    H112141   4.536   1.203   0.201 -0.1241  0.1990  0.4893
 4066TIP3    H212142   4.645   1.308   0.196 -1.0084  1.1169  0.1806
 4067TIP3   OH212143   0.123   3.241   2.938  0.2148 -0.6622  0.2785
 4067TIP3    H112144   0.078   3.258   3.020 -0.4683 -0.8760 -0.0434
 4067TIP3    H212145   0.156   3.327   2.911 -0.6447 -0.3609  0.1513
 4068TIP3   OH212146   5.976   4.682   0.056 -0.0957 -0.2710 -0.0871
 4068TIP3    H112147   6.045   4.728   0.103 -1.1052 -0.2833  1.4967
 4068TIP3    H212148   5.984   4.591   0.084 -1.2835 -0.1156  0.8165
 4069TIP3   OH212149   6.799   1.477   0.658 -0.6460  0.0778 -0.3315
 4069TIP3    H112150   6.800   1.510   0.568  1.2516 -0.0833 -0.4263
 4069TIP3    H212151   6.799   1.382   0.648  3.0261 -0.0837 -0.3698
 4070TIP3   OH212152   4.911   4.828   5.670  0.4819  0.1227  0.2882
 4070TIP3    H112153   4.916   4.738   5.639  0.9931  1.1394 -2.9812
 4070TIP3    H212154   4.826   4.833   5.715 -0.5918 -1.4608 -1.4204
 4071TIP3   OH212155   5.589   6.192   4.208 -0.6624 -0.1457 -0.4732
 4071TIP3    H112156   5.640   6.185   4.288 -0.6524  1.5108 -0.2911
 4071TIP3    H212157   5.528   6.264   4.224 -0.4612  0.4268 -2.0271
 4072TIP3   OH212158   2.323   1.985   2.475 -0.1382 -0.3005 -0.2142
 4072TIP3    H112159   2.365   2.067   2.449  0.8644 -1.1653 -1.4611
 4072TIP3    H212160   2.246   1.978   2.418 -0.1025 -0.3443 -0.2563
 4073TIP3   OH212161   0.378   3.851   1.193 -0.1944  0.3908 -0.1325
 4073TIP3    H112162   0.393   3.922   1.131  0.5236  2.6369  2.3991
 4073TIP3    H212163   0.344   3.779   1.140 -0.3037  2.3632 -2.9564
 4074TIP3   OH212164   5.489   1.498   2.528 -0.1102 -0.6509 -0.6482
 4074TIP3    H112165   5.502   1.414   2.571 -3.4350 -0.6492  0.7032
 4074TIP3    H212166   5.571   1.546   2.542  0.4063 -2.1494  2.2216
 4075TIP3   OH212167   3.012   0.137   3.161 -0.8379 -0.0150  0.2246
 4075TIP3    H112168   3.012   0.047   3.130  0.1600 -0.1716  0.6103
 4075TIP3    H212169   2.994   0.190   3.083  0.8748 -0.4365 -0.5054
 4076TIP3   OH212170   4.876   4.519   5.300 -0.0263 -0.1140  0.4185
 4076TIP3    H112171   4.968   4.495   5.294 -0.1970 -0.4475 -1.4550
 4076TIP3    H212172   4.850   4.540   5.210 -1.2679  1.9711  1.1833
 4077TIP3   OH212173   1.754   2.764   3.180 -0.4728 -0.1704 -0.0430
 4077TIP3    H112174   1.696   2.748   3.106  0.4621 -0.6534 -0.6934
 4077TIP3    H212175   1.842   2.766   3.142 -0.0158  0.1047  0.9794
 4078TIP3   OH212176   5.029   0.532   1.972 -0.5227  0.0734 -0.4084
 4078TIP3    H112177   4.964   0.595   2.003  0.3526  0.7699  0.0913
 4078TIP3    H212178   5.077   0.579   1.905  1.4142  0.7027  1.2971
 4079TIP3   OH212179   7.268   6.438   0.756  0.5121 -0.9880  0.0263
 4079TIP3    H112180   7.359   6.414   0.773  0.4644 -1.4100 -0.2955
 4079TIP3    H212181   7.253   6.412   0.665 -0.2419 -1.9045  0.4003
 4080TIP3   OH212182   5.963   0.813   3.961 -0.1042 -0.7839 -0.4953
 4080TIP3    H112183   6.048   0.794   3.921 -0.1238 -1.6358 -0.1374
 4080TIP3    H212184   5.902   0.815   3.887 -0.0024 -1.5595 -0.6061
 4081TIP3   OH212185   5.097   7.182   2.478  0.2573 -0.4922  0.5497
 4081TIP3    H112186   5.164   7.173   2.545  0.4875  2.9017  0.9012
 4081TIP3    H212187   5.137   7.234   2.408 -1.3719 -0.0871 -0.1465
 4082TIP3   OH212188   1.634   5.441   1.480  0.6103  0.0453  0.2368
 4082TIP3    H112189   1.578   5.427   1.556 -0.7600 -0.3480 -0.7919
 4082TIP3    H212190   1.573   5.461   1.409  1.6153 -1.9560 -1.3057
 4083TIP3   OH212191   4.445   0.700   0.460 -0.0610 -1.1587  0.3269
 4083TIP3    H112192   4.494   0.759   0.404 -0.8122 -0.7938  0.0429
 4083TIP3    H212193   4.361   0.744   0.474 -0.7358 -2.2743 -0.1102
 4084TIP3   OH212194   1.716   1.131   3.394 -0.4472  0.1357  0.6124
 4084TIP3    H112195   1.751   1.105   3.479  0.9245  1.0922  0.3812
 4084TIP3    H212196   1.740   1.059   3.335 -0.8568 -0.2417  0.8991
 4085TIP3   OH212197   7.750   6.358   5.558 -0.0813 -0.1652  0.2807
 4085TIP3    H112198   7.786   6.306   5.486 -0.0790 -1.6329  1.2885
 4085TIP3    H212199   7.743   6.446   5.523 -0.8241 -0.9824 -1.7691
 4086TIP3   OH212200   5.818   0.253   5.223 -0.3780  0.3791 -0.1810
 4086TIP3    H112201   5.871   0.293   5.154  0.9258  1.7394  1.5313
 4086TIP3    H212202   5.876   0.188   5.264 -1.6581 -1.5659 -1.3097
 4087TIP3   OH212203   0.588   5.350   2.912  0.0865  0.5334  0.3840
 4087TIP3    H112204   0.563   5.294   2.985 -0.3029  0.6084  0.3151
 4087TIP3    H212205   0.534   5.428   2.922 -0.2473  0.3889 -0.1861
 4088TIP3   OH212206   7.767   0.909   5.053 -0.1650  0.5538  0.1944
 4088TIP3    H112207   7.857   0.926   5.079 -0.6254  0.2646  2.1276
 4088TIP3    H212208   7.763   0.814   5.038 -0.3350  0.4476  0.9061
 4089TIP3   OH212209   7.390   1.175   2.595 -0.6304 -0.4327 -0.0206
 4089TIP3    H112210   7.310   1.226   2.612 -1.0762 -1.1156 -0.0113
 4089TIP3    H212211   7.418   1.203   2.508 -0.7016  0.0389  0.1048
 4090TIP3   OH212212   0.763   5.224   0.442  0.1929 -0.4391 -0.1637
 4090TIP3    H112213   0.701   5.224   0.369 -0.2770  0.4027  0.2244
 4090TIP3    H212214   0.709   5.214   0.520  0.5998 -0.3106  0.1392
 4091TIP3   OH212215   0.355   2.210   6.613 -0.4202 -0.1888  0.0659
 4091TIP3    H112216   0.403   2.277   6.662  0.1958 -0.3798 -0.2655
 4091TIP3    H212217   0.278   2.256   6.579  0.0615  0.3910 -0.2693
 4092TIP3   OH212218   3.588   4.714   5.149  0.1332  0.1001  0.0302
 4092TIP3    H112219   3.641   4.794   5.153  0.0882  0.1648 -0.6596
 4092TIP3    H212220   3.645   4.648   5.111  0.4722 -0.4649  1.4350
 4093TIP3   OH212221   6.942   2.864   3.840  0.1283  0.4765 -0.0065
 4093TIP3    H112222   6.882   2.795   3.811 -0.0709  0.8560 -0.5012
 4093TIP3    H212223   6.992   2.887   3.762  0.4364  0.6535  0.2395
 4094TIP3   OH212224   0.515   7.423   3.273 -0.6183 -0.1734 -0.5018
 4094TIP3    H112225   0.574   7.363   3.227 -0.7689  0.6386 -1.7856
 4094TIP3    H212226   0.448   7.366   3.311  0.0560 -0.9453 -0.4410
 4095TIP3   OH212227   3.359   7.727   2.667 -0.2608 -0.0789 -0.5054
 4095TIP3    H112228   3.437   7.765   2.708 -1.0117  0.2116  0.7256
 4095TIP3    H212229   3.370   7.633   2.678 -0.9942  0.0067  1.5673
 4096TIP3   OH212230   3.081   0.152   5.959 -0.4397  0.1103 -0.5134
 4096TIP3    H112231   3.173   0.161   5.937 -0.4123  0.0892 -0.4087
 4096TIP3    H212232   3.039   0.126   5.877 -0.4281  0.6106 -0.6791
 4097TIP3   OH212233   1.322   6.247   3.728 -0.3727  0.2193 -0.3043
 4097TIP3    H112234   1.326   6.242   3.632  0.1407  0.1345 -0.2815
 4097TIP3    H212235   1.410   6.224   3.757 -0.7474 -0.6111  0.2285
 4098TIP3   OH212236   3.680   3.075   3.116 -0.0676  0.3676 -0.7802
 4098TIP3    H112237   3.728   3.030   3.047 -0.4395 -1.1104 -0.1229
 4098TIP3    H212238   3.594   3.033   3.118 -0.9956  2.1564 -1.1322
 4099TIP3   OH212239   2.924   1.352   6.562  0.0110  0.4537  0.4892
 4099TIP3    H112240   3.013   1.376   6.587 -0.0642  0.3835  0.8230
 4099TIP3    H212241   2.930   1.333   6.468 -0.0190  2.1882  0.1071
 4100TIP3   OH212242   1.648   0.527   2.226 -0.1585 -0.4863 -0.2561
 4100TIP3    H112243   1.690   0.498   2.145  1.4624  2.0897 -0.4545
 4100TIP3    H212244   1.707   0.496   2.295  0.4581  0.4623 -0.3378
 4101TIP3   OH212245   0.744   2.780   4.924  0.0276 -0.0969 -0.3593
 4101TIP3    H112246   0.812   2.805   4.862  0.3882 -2.2810 -0.9427
 4101TIP3    H212247   0.710   2.863   4.958  1.1616  1.1054 -2.0126
 4102TIP3   OH212248   3.090   7.608   4.692 -0.1379 -0.1876 -0.6888
 4102TIP3    H112249   3.169   7.583   4.740  0.7189  0.4127 -1.7226
 4102TIP3    H212250   3.103   7.572   4.604 -0.4376  0.9471 -1.2247
 4103TIP3   OH212251   0.387   1.495   5.354 -0.1102  0.0126  0.1579
 4103TIP3    H112252   0.336   1.555   5.299 -0.6079  0.5942  1.2107
 4103TIP3    H212253   0.441   1.553   5.409  0.0839 -0.5331  0.5545
 4104TIP3   OH212254   0.917   4.416   1.177  0.2564 -0.1136 -0.3067
 4104TIP3    H112255   0.911   4.428   1.272  0.0623  0.9590 -0.4417
 4104TIP3    H212256   0.918   4.321   1.165  0.0499 -0.2651  0.7522
 4105TIP3   OH212257   1.927   6.062   6.366  0.2485 -0.0274 -0.1184
 4105TIP3    H112258   1.887   6.140   6.404  1.5828  0.2362  0.7929
 4105TIP3    H212259   2.016   6.061   6.400  0.8779 -0.8847 -1.6827
 4106TIP3   OH212260   7.435   4.691   0.972 -0.0262 -0.2441 -0.2940
 4106TIP3    H112261   7.509   4.637   0.946  0.6187  0.1426  0.6900
 4106TIP3    H212262   7.421   4.670   1.064 -1.6580 -0.8936 -0.6489
 4107TIP3   OH212263   3.408   3.776   0.044 -0.2867 -0.7674  0.0582
 4107TIP3    H112264   3.364   3.861   0.038  2.3872  0.8514  1.4630
 4107TIP3    H212265   3.427   3.753  -0.047 -2.0595 -0.5197 -0.4270
 4108TIP3   OH212266   5.607   1.532   2.131 -0.3501 -0.2148 -0.1894
 4108TIP3    H112267   5.526   1.484   2.153 -1.0982  1.9567  2.2058
 4108TIP3    H212268   5.577   1.619   2.106  1.2573  1.1324  2.2316
 4109TIP3   OH212269   1.470   6.026   3.958 -0.7516 -0.5747 -0.0918
 4109TIP3    H112270   1.533   6.065   3.897 -0.0761  1.7570  1.9059
 4109TIP3    H212271   1.412   6.099   3.980 -0.5730 -1.1489  2.4937
 4110TIP3   OH212272   4.071   3.821   0.017 -0.5384 -0.6072 -0.1670
 4110TIP3    H112273   4.016   3.899   0.010 -1.2741 -1.0786  0.2513
 4110TIP3    H212274   4.109   3.825   0.104  0.8940  0.2176 -0.7890
 4111TIP3   OH212275   4.666   4.948   0.956  0.0314 -0.2622 -0.1998
 4111TIP3    H112276   4.654   4.884   1.026  1.4836  0.5741  0.8544
 4111TIP3    H212277   4.739   4.914   0.905  0.6719  0.4263  0.2419
 4112TIP3   OH212278   2.338   6.704   1.978 -0.1706  0.5641  0.7551
 4112TIP3    H112279   2.298   6.745   2.055 -0.4055 -0.3374  1.1194
 4112TIP3    H212280   2.386   6.629   2.012 -1.7838 -0.9514 -0.1410
 4113TIP3   OH212281   6.177   1.383   3.494 -0.1832 -0.1115  0.0190
 4113TIP3    H112282   6.196   1.306   3.441  1.6115 -0.6279  1.3099
 4113TIP3    H212283   6.230   1.453   3.455 -1.3129  0.3396 -0.7576
 4114TIP3   OH212284   3.401   4.435   4.104  0.8975  0.3538  0.7176
 4114TIP3    H112285   3.450   4.401   4.179  0.7328  0.3535  0.8248
 4114TIP3    H212286   3.467   4.444   4.035  0.7886 -1.0683  0.3999
 4115TIP3   OH212287   2.844   7.600   3.775 -0.2324 -0.1525  0.3197
 4115TIP3    H112288   2.868   7.679   3.726 -1.5421  0.6406  0.9067
 4115TIP3    H212289   2.781   7.555   3.719  0.9859 -1.1578 -0.3027
 4116TIP3   OH212290   6.122   2.312   6.365  0.4604  0.1033  0.0636
 4116TIP3    H112291   6.175   2.334   6.441  0.0961 -1.8045  0.9387
 4116TIP3    H212292   6.032   2.331   6.391  0.3844  0.0058 -0.1218
 4117TIP3   OH212293   3.113   3.248   4.910 -0.5650  0.1507 -0.0278
 4117TIP3    H112294   3.057   3.224   4.984  0.0617 -2.3345 -0.2525
 4117TIP3    H212295   3.196   3.274   4.949 -0.8414  0.6903  0.2010
 4118TIP3   OH212296   2.095   3.477   4.105 -0.1793 -0.3960 -0.4287
 4118TIP3    H112297   2.128   3.560   4.137 -0.9922  0.6475 -2.1386
 4118TIP3    H212298   2.005   3.495   4.077  0.1260 -1.4075 -2.2696
 4119TIP3   OH212299   3.445   5.969   0.311 -0.6309 -0.7524  0.0275
 4119TIP3    H112300   3.428   6.060   0.286 -1.1118 -0.9738 -0.4532
 4119TIP3    H212301   3.530   5.972   0.355 -0.0141 -0.2721 -1.1584
 4120TIP3   OH212302   3.435   1.087   4.571 -0.2025 -0.2379 -0.7772
 4120TIP3    H112303   3.498   1.128   4.630  0.1011 -0.0010 -1.2634
 4120TIP3    H212304   3.358   1.070   4.626 -0.4988  1.3622 -0.6554
 4121TIP3   OH212305   1.517   6.780   3.000  0.3612  0.3993 -0.2285
 4121TIP3    H112306   1.604   6.810   3.024  0.0045  0.2842  1.2936
 4121TIP3    H212307   1.525   6.685   2.995  0.3751  0.4063 -0.3503
 4122TIP3   OH212308   5.488   4.149   1.003  0.2134 -0.3643  0.3654
 4122TIP3    H112309   5.518   4.183   0.919 -0.7325 -2.7353 -1.0297
 4122TIP3    H212310   5.534   4.065   1.013 -2.0318 -1.6368  0.6359
 4123TIP3   OH212311   7.313   4.623   4.237 -0.3960  0.5272  0.1832
 4123TIP3    H112312   7.325   4.531   4.213 -0.6574  0.6026 -0.2678
 4123TIP3    H212313   7.387   4.644   4.292 -0.4047  0.0055  0.3979
 4124TIP3   OH212314   5.493   0.889   6.330 -0.0326 -0.0112  0.1284
 4124TIP3    H112315   5.449   0.897   6.245 -0.4506 -0.8202  0.2584
 4124TIP3    H212316   5.578   0.932   6.317 -0.5245  0.8259 -0.3757
 4125TIP3   OH212317   6.785   6.114   1.233  0.2077  1.0651  0.0782
 4125TIP3    H112318   6.825   6.027   1.229  0.2083  1.0485  0.3928
 4125TIP3    H212319   6.716   6.113   1.167  1.0082  1.2361 -0.7825
 4126TIP3   OH212320   4.873   2.351   5.283  0.2266  0.1898  0.4983
 4126TIP3    H112321   4.923   2.318   5.208 -0.6050  0.1811 -0.0701
 4126TIP3    H212322   4.936   2.400   5.335  0.8366  0.1243 -0.1684
 4127TIP3   OH212323   6.071   1.288   4.427  0.0715 -0.0098 -0.0496
 4127TIP3    H112324   6.165   1.291   4.444 -0.1544  0.7789  1.1745
 4127TIP3    H212325   6.045   1.380   4.420 -0.4987 -0.2308 -1.1171
 4128TIP3   OH212326   4.611   5.592   0.780  0.7079 -0.1086 -0.4112
 4128TIP3    H112327   4.705   5.581   0.798  0.2429 -0.2519  2.2340
 4128TIP3    H212328   4.585   5.670   0.829 -0.5625  0.0234 -1.2347
 4129TIP3   OH212329   0.392   2.889   0.628 -0.2282  0.1947  0.6085
 4129TIP3    H112330   0.423   2.969   0.671  0.6350 -0.4677  1.2607
 4129TIP3    H212331   0.377   2.828   0.700 -2.6650  0.3076  0.2994
 4130TIP3   OH212332   4.763   3.082   0.174  0.5627 -0.6290  0.2243
 4130TIP3    H112333   4.724   2.999   0.201  0.5051 -1.4695 -2.2106
 4130TIP3    H212334   4.698   3.148   0.198  0.5655 -1.2720  2.0869
 4131TIP3   OH212335   3.947   4.249   2.953  0.0275 -0.0331 -0.4606
 4131TIP3    H112336   3.913   4.163   2.980 -1.8215  0.5875 -0.7049
 4131TIP3    H212337   3.905   4.267   2.869  0.3735  1.1239 -0.4045
 4132TIP3   OH212338   2.849   3.302   6.588 -0.0543  0.3812 -0.3635
 4132TIP3    H112339   2.823   3.363   6.520 -1.8805 -0.5875 -0.5886
 4132TIP3    H212340   2.942   3.286   6.572 -0.2775  0.7073 -2.2104
 4133TIP3   OH212341   0.462   3.470   0.183  0.2787 -0.3723 -0.3579
 4133TIP3    H112342   0.458   3.535   0.113 -0.6180 -1.2733 -1.1763
 4133TIP3    H212343   0.395   3.500   0.246  2.3461  1.4725  1.1123
 4134TIP3   OH212344   4.165   2.058   3.712  0.5215  0.3593 -0.1100
 4134TIP3    H112345   4.138   1.991   3.648 -2.7981  2.1189 -0.7482
 4134TIP3    H212346   4.191   2.132   3.658 -1.1383  1.4417  0.5150
 4135TIP3   OH212347   4.902   4.967   2.939  0.4177 -0.0337 -0.3326
 4135TIP3    H112348   4.934   5.012   3.018 -1.4002  4.4636 -1.8003
 4135TIP3    H212349   4.809   4.955   2.954  0.4060 -0.9810 -1.0806
 4136TIP3   OH212350   4.127   2.176   5.078 -0.2396  0.7123  0.4573
 4136TIP3    H112351   4.088   2.263   5.090  0.1411  0.7694  1.2846
 4136TIP3    H212352   4.198   2.191   5.015 -1.8561  0.5083 -1.5276
 4137TIP3   OH212353   6.361   5.772   1.604 -0.0614 -0.2783 -0.2488
 4137TIP3    H112354   6.408   5.736   1.679  1.5742  0.7593 -0.7241
 4137TIP3    H212355   6.411   5.850   1.580  0.1552 -1.1829 -3.1068
 4138TIP3   OH212356   7.313   5.989   3.554  0.7852  1.0404  0.2013
 4138TIP3    H112357   7.256   5.914   3.572  1.8724  0.1943  0.2467
 4138TIP3    H212358   7.262   6.065   3.580 -0.2488  0.2971  0.4107
 4139TIP3   OH212359   5.864   1.619   2.150 -0.4748  0.3937 -0.0822
 4139TIP3    H112360   5.913   1.547   2.110  1.3164  1.1828  0.6019
 4139TIP3    H212361   5.773   1.590   2.147 -0.0262 -1.0382 -1.6076
 4140TIP3   OH212362   2.008   1.614   1.753  0.7162 -0.0791  0.4220
 4140TIP3    H112363   2.068   1.599   1.681  2.1695 -1.8625  1.9013
 4140TIP3    H212364   1.940   1.547   1.742 -0.8273  1.6135 -0.9615
 4141TIP3   OH212365   5.847   1.154   0.122 -0.2663 -0.4907 -0.3131
 4141TIP3    H112366   5.926   1.148   0.176 -0.2723 -1.2032 -0.3743
 4141TIP3    H212367   5.801   1.232   0.154 -0.4401 -1.0949  0.9451
 4142TIP3   OH212368   4.733   5.203   4.744  0.0997  0.2879  0.3396
 4142TIP3    H112369   4.739   5.215   4.649  0.5919  0.1797  0.3563
 4142TIP3    H212370   4.773   5.282   4.780 -2.4889  1.6503  0.4898
 4143TIP3   OH212371   5.533   7.149   5.001 -0.2976 -0.4995  0.5440
 4143TIP3    H112372   5.624   7.159   5.029 -0.2427 -0.8673  0.5062
 4143TIP3    H212373   5.485   7.218   5.048  0.3571  1.2413 -1.1963
 4144TIP3   OH212374   5.438   6.027   2.372 -0.4238 -0.3782 -0.2562
 4144TIP3    H112375   5.515   6.026   2.430 -0.5315  0.0845 -0.0962
 4144TIP3    H212376   5.405   6.117   2.379 -0.2315 -0.2143 -1.3147
 4145TIP3   OH212377   7.565   2.108   1.204 -0.2140 -0.3709 -0.1961
 4145TIP3    H112378   7.477   2.114   1.169 -0.5133 -0.2188  0.5682
 4145TIP3    H212379   7.592   2.199   1.218  0.1607 -0.4066 -0.6548
 4146TIP3   OH212380   3.524   0.561   1.920  0.3947  0.0267  0.2813
 4146TIP3    H112381   3.470   0.639   1.909  3.1119  1.6663 -2.9782
 4146TIP3    H212382   3.607   0.593   1.953  1.4511 -1.4758 -0.7836
 4147TIP3   OH212383   5.921   2.862   2.573  0.1304 -0.0657 -0.4446
 4147TIP3    H112384   5.833   2.858   2.536  0.2957 -0.0520 -0.8425
 4147TIP3    H212385   5.979   2.844   2.499  0.4336 -0.7820 -0.0453
 4148TIP3   OH212386   5.714   5.727   5.472  0.0014 -0.6146  0.4930
 4148TIP3    H112387   5.723   5.801   5.531 -1.3836  0.7595 -0.9397
 4148TIP3    H212388   5.643   5.751   5.413  0.9307 -2.1513 -1.3795
 4149TIP3   OH212389   6.329   0.566   2.310  0.1818  0.3120  0.8454
 4149TIP3    H112390   6.424   0.577   2.305  0.1345  0.2659 -0.4480
 4149TIP3    H212391   6.296   0.609   2.232 -0.6884 -1.4376  0.1901
 4150TIP3   OH212392   1.431   4.103   5.059 -0.3342 -0.0903  0.1156
 4150TIP3    H112393   1.447   4.113   5.153  0.3755  0.4968 -0.0610
 4150TIP3    H212394   1.413   4.010   5.048  2.1604 -0.6873  0.4787
 4151TIP3   OH212395   1.029   5.333   1.585 -0.2057  0.2603 -0.0179
 4151TIP3    H112396   0.973   5.300   1.515  1.9748 -1.9291 -0.8683
 4151TIP3    H212397   1.118   5.313   1.556  0.8693  0.8475  2.6103
 4152TIP3   OH212398   7.230   4.384   5.258 -0.1220 -0.1549  0.2408
 4152TIP3    H112399   7.208   4.477   5.267 -0.8358 -0.0432 -2.0557
 4152TIP3    H212400   7.164   4.339   5.311  0.8575  0.6361  2.2331
 4153TIP3   OH212401   0.799   3.371   1.381  0.0602  0.4117  0.2756
 4153TIP3    H112402   0.834   3.314   1.313 -2.7318  0.9594 -1.8050
 4153TIP3    H212403   0.739   3.315   1.431 -0.7049  0.8422 -0.1296
 4154TIP3   OH212404   3.709   4.247   3.237 -0.5662 -0.7497 -0.1511
 4154TIP3    H112405   3.800   4.216   3.237 -0.2983 -0.1264  2.0084
 4154TIP3    H212406   3.706   4.314   3.169  1.1579  0.6490  1.0687
 4155TIP3   OH212407   5.018   1.561   6.019  0.1284 -0.3583  0.0114
 4155TIP3    H112408   5.025   1.475   5.977 -0.8928 -0.6441  0.3999
 4155TIP3    H212409   4.942   1.602   5.977  0.5327  0.3125 -0.0832
 4156TIP3   OH212410   0.928   4.951   6.740 -0.1068 -0.2043  0.0064
 4156TIP3    H112411   1.012   4.957   6.784  0.2540 -1.2616 -0.5075
 4156TIP3    H212412   0.863   4.969   6.808  0.5349  1.5441  0.2153
 4157TIP3   OH212413   2.406   6.671   2.723 -0.2366 -0.0099  0.4344
 4157TIP3    H112414   2.318   6.685   2.688 -0.2414  0.4917  0.6396
 4157TIP3    H212415   2.464   6.696   2.651 -0.2545  0.0917  0.4560
 4158TIP3   OH212416   0.407   7.720   0.061  0.2653 -0.4725  0.4608
 4158TIP3    H112417   0.407   7.651   0.128 -1.5079 -1.1684 -0.1940
 4158TIP3    H212418   0.434   7.798   0.108  0.1608 -1.1728  1.7476
 4159TIP3   OH212419   5.425   0.200   0.242 -0.6805 -0.2808 -0.2442
 4159TIP3    H112420   5.506   0.172   0.200 -1.6683  0.1562 -2.5771
 4159TIP3    H212421   5.432   0.296   0.245 -0.8726 -0.2757  0.0709
 4160TIP3   OH212422   3.533   7.385   1.339 -0.5111  0.0158 -0.0714
 4160TIP3    H112423   3.616   7.344   1.312  0.2581  2.3729 -1.6367
 4160TIP3    H212424   3.559   7.452   1.403 -1.4133 -0.2434  0.5782
 4161TIP3   OH212425   1.239   1.716   2.293 -0.5110 -0.2405 -0.5485
 4161TIP3    H112426   1.234   1.784   2.226 -0.8063  0.8948  0.5981
 4161TIP3    H212427   1.148   1.700   2.318 -0.4111 -0.7754 -0.5131
 4162TIP3   OH212428   1.370   1.112   5.127 -0.8304 -0.4565 -0.4327
 4162TIP3    H112429   1.429   1.113   5.052 -0.3862 -1.1377 -0.1102
 4162TIP3    H212430   1.307   1.043   5.107 -0.3927 -1.0119  0.0362
 4163TIP3   OH212431   6.829   1.005   2.234  0.0192  0.2984 -1.2892
 4163TIP3    H112432   6.763   1.040   2.294  0.1831 -2.2058  0.5262
 4163TIP3    H212433   6.778   0.966   2.162 -0.3142  1.0290 -1.4532
 4164TIP3   OH212434   7.668   5.772   2.411 -0.0238  0.3521  0.0845
 4164TIP3    H112435   7.616   5.729   2.342  1.0201  2.3222 -2.0414
 4164TIP3    H212436   7.753   5.729   2.407 -0.4103 -0.5817  1.2737
 4165TIP3   OH212437   7.342   7.100  -0.012 -0.1382  0.0455  0.2031
 4165TIP3    H112438   7.370   7.030   0.047  1.8035 -1.0020 -1.8245
 4165TIP3    H212439   7.395   7.176   0.013  1.9776 -0.8827 -1.1921
 4166TIP3   OH212440   7.279   1.145   1.745  0.1563  0.0423  0.2367
 4166TIP3    H112441   7.359   1.157   1.795 -0.2501 -2.5239  1.6542
 4166TIP3    H212442   7.220   1.099   1.804 -1.7589  0.3180 -1.3489
 4167TIP3   OH212443   5.890   4.866   2.178 -0.3056  0.6013  0.4166
 4167TIP3    H112444   5.952   4.843   2.109  1.9209  1.0851  2.1070
 4167TIP3    H212445   5.813   4.811   2.162  0.7815 -0.4714 -1.4571
 4168TIP3   OH212446   7.374   2.723   0.971  0.1037  0.4921  0.4958
 4168TIP3    H112447   7.458   2.703   0.929 -0.5329 -0.3045 -0.4327
 4168TIP3    H212448   7.392   2.799   1.025  1.3598  0.5147  0.0752
 4169TIP3   OH212449   4.125   6.382   1.863 -0.6107  0.3362 -0.0673
 4169TIP3    H112450   4.093   6.411   1.778  0.0743 -0.5561 -0.6376
 4169TIP3    H212451   4.076   6.301   1.881  1.3669 -1.1657 -1.0463
 4170TIP3   OH212452   3.047   7.598   1.267 -0.2220  1.0113 -0.0425
 4170TIP3    H112453   2.952   7.589   1.256 -0.4423  0.8656  1.7386
 4170TIP3    H212454   3.084   7.520   1.227 -1.0848 -0.4412  1.8631
 4171TIP3   OH212455   7.354   7.651   2.146 -0.0634  0.0212  0.5956
 4171TIP3    H112456   7.287   7.711   2.112  1.5112  0.6906 -1.5916
 4171TIP3    H212457   7.391   7.697   2.222 -1.3776  0.0833  1.2216
 4172TIP3   OH212458   2.137   0.512   5.078  0.1672  0.5282  0.4287
 4172TIP3    H112459   2.169   0.602   5.079  0.2724  0.4894  0.6582
 4172TIP3    H212460   2.123   0.490   5.170  0.2045  0.2891  0.3796
 4173TIP3   OH212461   2.208   7.520   5.394  0.4079 -0.3395  0.6081
 4173TIP3    H112462   2.119   7.536   5.425  0.6865 -0.0439  1.2799
 4173TIP3    H212463   2.198   7.456   5.324 -0.4093  0.2797  0.1356
 4174TIP3   OH212464   3.130   7.138   4.037 -0.4128  0.1571 -0.1943
 4174TIP3    H112465   3.056   7.111   4.092 -0.0838  0.8914  0.6266
 4174TIP3    H212466   3.202   7.153   4.099  0.4653 -0.6285 -0.9835
 4175TIP3   OH212467   0.160   2.382   5.449 -0.0929 -0.0830  0.0465
 4175TIP3    H112468   0.083   2.431   5.478 -0.5293 -0.0651 -1.0967
 4175TIP3    H212469   0.129   2.293   5.434 -0.6065  0.4753 -2.9846
 4176TIP3   OH212470   5.021   2.522   5.423 -0.0398 -0.2462  0.4369
 4176TIP3    H112471   5.052   2.558   5.506  1.5499 -0.6063  0.0347
 4176TIP3    H212472   5.063   2.576   5.357 -0.3384 -0.7143 -0.1451
 4177TIP3   OH212473   1.503   1.859   4.101 -0.1163  0.2741  0.2035
 4177TIP3    H112474   1.598   1.860   4.101 -0.0923  1.5097 -1.2890
 4177TIP3    H212475   1.480   1.768   4.122  1.3860 -0.2483 -0.2810
 4178TIP3   OH212476   6.473   5.593   5.224  0.4723 -0.0941  0.1799
 4178TIP3    H112477   6.450   5.501   5.212 -2.5249  0.7218 -1.1369
 4178TIP3    H212478   6.411   5.626   5.289  1.1072  1.1573  0.1866
 4179TIP3   OH212479   4.108   1.135   4.566  0.1983 -0.1355  0.1313
 4179TIP3    H112480   4.141   1.064   4.510 -0.1583 -0.0978 -0.1295
 4179TIP3    H212481   4.015   1.116   4.576  0.4734 -0.8030  1.6941
 4180TIP3   OH212482   1.544   4.570   3.302  0.3399 -0.5301  0.1243
 4180TIP3    H112483   1.547   4.663   3.282 -0.7192 -0.9374 -2.3515
 4180TIP3    H212484   1.635   4.542   3.304  0.6155  0.2977 -0.5827
 4181TIP3   OH212485   3.695   1.797   2.237 -0.0011 -0.2637 -0.2462
 4181TIP3    H112486   3.656   1.721   2.193  0.1028  0.8023 -2.3282
 4181TIP3    H212487   3.624   1.836   2.287 -0.0041 -1.8035  1.0100
 4182TIP3   OH212488   3.631   2.229   3.185  0.2249 -0.7823 -0.2827
 4182TIP3    H112489   3.724   2.213   3.205  0.0598 -3.7064 -1.2850
 4182TIP3    H212490   3.625   2.218   3.090 -1.2898 -1.6903 -0.1148
 4183TIP3   OH212491   4.142   2.566   2.292  0.1097 -0.1527 -0.0831
 4183TIP3    H112492   4.224   2.518   2.293 -1.5216 -3.3201 -2.3415
 4183TIP3    H212493   4.122   2.580   2.385  2.3789 -0.6877  0.5520
 4184TIP3   OH212494   6.102   4.647   2.375 -0.3706  0.6496 -0.2885
 4184TIP3    H112495   6.132   4.727   2.333 -0.0888  0.6520 -0.0813
 4184TIP3    H212496   6.025   4.673   2.426  0.6699  1.1322  1.1085
 4185TIP3   OH212497   3.549   6.835   4.781 -0.1125 -0.5892 -0.2054
 4185TIP3    H112498   3.552   6.884   4.863  0.6840 -0.9976  0.0191
 4185TIP3    H212499   3.613   6.880   4.724 -1.4984  0.4115 -1.0244
 4186TIP3   OH212500   4.864   7.583   4.686  0.5262 -0.2511  0.0279
 4186TIP3    H112501   4.910   7.600   4.603  1.7078 -0.8572  0.5325
 4186TIP3    H212502   4.777   7.553   4.660  0.6605  0.1843 -0.9770
 4187TIP3   OH212503   3.333   1.196   2.219  0.5374  0.1729  0.0395
 4187TIP3    H112504   3.263   1.136   2.242 -0.0579  1.1196  0.7819
 4187TIP3    H212505   3.383   1.151   2.151  1.2657 -1.9690  1.8765
 4188TIP3   OH212506   1.515   5.517   3.963 -0.2141  0.2829  0.2350
 4188TIP3    H112507   1.559   5.600   3.979 -0.9629  0.5661  0.8466
 4188TIP3    H212508   1.586   5.452   3.962  0.5601  1.0581 -1.5644
 4189TIP3   OH212509   5.247   1.959   2.528 -0.1684  0.2905 -0.5760
 4189TIP3    H112510   5.283   1.874   2.501 -1.5942 -0.1756 -1.0931
 4189TIP3    H212511   5.285   1.974   2.615  1.4350 -0.0422 -1.1852
 4190TIP3   OH212512   5.194   1.707   1.893  0.1004 -0.1506  0.6011
 4190TIP3    H112513   5.153   1.773   1.838 -0.2041 -0.0499  0.9397
 4190TIP3    H212514   5.278   1.745   1.919 -0.2551  0.2869  1.1351
 4191TIP3   OH212515   5.283   1.004   0.507 -1.0375  0.0685  0.1229
 4191TIP3    H112516   5.295   0.913   0.533  0.3690  0.1048 -0.3247
 4191TIP3    H212517   5.221   1.000   0.434 -2.2176 -0.3600  1.1141
 4192TIP3   OH212518   5.361   3.238   6.381 -0.2243 -0.1084 -0.2157
 4192TIP3    H112519   5.270   3.240   6.408 -0.0543 -3.2349  0.9831
 4192TIP3    H212520   5.410   3.212   6.459  1.7570  1.5692 -0.7951
 4193TIP3   OH212521   3.233   6.907   5.789 -0.5439 -0.3356 -0.0969
 4193TIP3    H112522   3.295   6.971   5.825 -0.1621  1.0789 -2.9745
 4193TIP3    H212523   3.159   6.960   5.759 -1.3126 -1.5562 -0.4048
 4194TIP3   OH212524   0.386   1.501   1.445  0.0157 -0.0923 -0.5670
 4194TIP3    H112525   0.447   1.520   1.517 -0.4273  0.2924 -0.2872
 4194TIP3    H212526   0.299   1.518   1.482 -0.2697 -0.6832 -0.9464
 4195TIP3   OH212527   1.216   7.603   1.513  0.5311 -0.5396 -0.2213
 4195TIP3    H112528   1.169   7.630   1.434  1.9208 -2.9437 -2.0344
 4195TIP3    H212529   1.147   7.576   1.574 -0.5844  1.7374 -0.3938
 4196TIP3   OH212530   5.420   0.760   3.693 -0.3955 -0.3682 -0.1972
 4196TIP3    H112531   5.336   0.806   3.703 -0.4855 -0.6625  0.4537
 4196TIP3    H212532   5.395   0.668   3.685 -0.1306 -0.4802  0.2159
 4197TIP3   OH212533   4.704   0.089   0.446 -1.1172  0.0931  0.0121
 4197TIP3    H112534   4.760   0.046   0.509 -1.6243  0.1641  0.5198
 4197TIP3    H212535   4.764   0.123   0.379 -0.6907 -1.2186 -0.3042
 4198TIP3   OH212536   2.057   1.367   6.771 -0.5799  0.0193 -0.3222
 4198TIP3    H112537   2.007   1.323   6.840  0.1630  1.2939  1.0897
 4198TIP3    H212538   2.008   1.348   6.690 -1.6453 -1.2595  0.5694
 4199TIP3   OH212539   2.703   0.862   0.733 -0.3748  0.3088  0.1966
 4199TIP3    H112540   2.795   0.838   0.728 -0.7505 -1.7708  1.6772
 4199TIP3    H212541   2.657   0.789   0.692 -1.4773 -0.3683  2.4548
 4200TIP3   OH212542   6.325   4.270   5.493  0.0816  0.3138 -0.0086
 4200TIP3    H112543   6.350   4.223   5.573 -0.7188  1.2034  0.8052
 4200TIP3    H212544   6.346   4.362   5.513 -0.2917  0.5671 -0.7567
 4201TIP3   OH212545   7.882   4.578   6.155  0.2283  0.3797  0.1169
 4201TIP3    H112546   7.916   4.582   6.065 -0.3306  1.3501 -0.0675
 4201TIP3    H212547   7.953   4.613   6.209  0.5032 -0.0525  0.0433
 4202TIP3   OH212548   0.004   5.716   5.431  0.1084 -0.3804  0.1254
 4202TIP3    H112549   0.082   5.681   5.389  0.3770  0.3603 -0.0018
 4202TIP3    H212550   0.028   5.723   5.524  0.3026  0.1333  0.0393
 4203TIP3   OH212551   5.656   2.808   2.919  0.4326 -0.0241 -0.2299
 4203TIP3    H112552   5.655   2.719   2.884 -0.6484  0.9564 -2.9178
 4203TIP3    H212553   5.708   2.859   2.856 -0.3900  1.5874  0.3240
 4204TIP3   OH212554   1.478   7.306   5.011  0.0348 -0.0702 -0.0043
 4204TIP3    H112555   1.495   7.309   5.106 -0.2712  0.0880  0.0451
 4204TIP3    H212556   1.408   7.369   4.997  0.6402  0.5177 -0.4635
 4205TIP3   OH212557   1.712   6.305   0.303 -0.1632  1.1118  0.0131
 4205TIP3    H112558   1.649   6.377   0.293  0.1407  1.5249  0.9151
 4205TIP3    H212559   1.756   6.324   0.386 -0.2482 -0.2638  0.3830
 4206TIP3   OH212560   1.014   0.675   0.058 -0.7234 -0.0235 -0.4370
 4206TIP3    H112561   1.065   0.604   0.019  0.1455  0.1516  0.3544
 4206TIP3    H212562   1.071   0.752   0.050 -1.1275  0.3079 -0.1181
 4207TIP3   OH212563   6.637   4.279   4.450  0.2667 -0.7078 -0.2583
 4207TIP3    H112564   6.574   4.209   4.429 -0.0006 -0.7637  0.6480
 4207TIP3    H212565   6.674   4.304   4.366 -1.7060  0.0351 -0.9683
 4208TIP3   OH212566   7.000   0.314   5.235 -0.2131  0.1340 -0.0684
 4208TIP3    H112567   7.030   0.283   5.150  0.9662  1.9826 -0.3652
 4208TIP3    H212568   7.033   0.249   5.297 -0.1961 -0.6807 -0.9082
 4209TIP3   OH212569   6.486   6.627   0.229  0.0002 -0.4624 -0.7294
 4209TIP3    H112570   6.440   6.551   0.194 -0.2819  0.2924 -2.0646
 4209TIP3    H212571   6.473   6.695   0.163 -1.4965  1.3963  1.3120
 4210TIP3   OH212572   4.368   2.415   2.311  0.4084 -0.0049 -0.2126
 4210TIP3    H112573   4.424   2.492   2.318 -0.4519  0.6144 -0.0082
 4210TIP3    H212574   4.409   2.350   2.369  0.0135  0.9914  1.2256
 4211TIP3   OH212575   6.965   7.293   5.554  0.0106  0.5418  0.0851
 4211TIP3    H112576   6.870   7.288   5.543  0.1814 -1.2767 -1.0160
 4211TIP3    H212577   6.999   7.300   5.465  0.9298  0.5594  0.4339
 4212TIP3   OH212578   6.677   6.072   5.043  0.2919  0.1766 -0.0937
 4212TIP3    H112579   6.760   6.059   5.089 -0.4450  0.8174  1.4702
 4212TIP3    H212580   6.625   5.994   5.063  0.3377 -0.0094 -0.6871
 4213TIP3   OH212581   4.156   1.892   4.783  0.0907 -0.1036  0.4592
 4213TIP3    H112582   4.160   1.811   4.733  0.3720 -0.6355  1.3253
 4213TIP3    H212583   4.165   1.865   4.874  0.3341  0.9114  0.7549
 4214TIP3   OH212584   6.873   1.802   0.142 -0.1524  0.5562 -0.4297
 4214TIP3    H112585   6.830   1.728   0.184 -0.4900  0.2463 -1.2841
 4214TIP3    H212586   6.827   1.879   0.177  0.2372  0.3707  0.4991
 4215TIP3   OH212587   6.517   1.301   6.794  0.2971 -1.1570  0.2505
 4215TIP3    H112588   6.515   1.236   6.724 -1.5029 -0.8862 -0.0131
 4215TIP3    H212589   6.435   1.349   6.784 -0.6384 -1.8776  3.2756
 4216TIP3   OH212590   1.538   1.806   6.187 -0.2139 -0.1260  0.1359
 4216TIP3    H112591   1.488   1.757   6.252 -0.0161  0.0650  0.4326
 4216TIP3    H212592   1.566   1.740   6.123 -2.1693 -0.0213 -0.9060
 4217TIP3   OH212593   3.041   4.411   2.986  0.2898  0.4781  0.0983
 4217TIP3    H112594   2.952   4.378   2.979  0.2973  0.4217  0.2704
 4217TIP3    H212595   3.058   4.452   2.901  0.2619  0.0852 -0.1022
 4218TIP3   OH212596   0.417   2.121   5.616 -0.5205  0.2164 -0.1425
 4218TIP3    H112597   0.491   2.061   5.606 -0.0507  0.8093 -0.3342
 4218TIP3    H212598   0.344   2.077   5.572  0.0870  0.2474 -1.2233
 4219TIP3   OH212599   6.771   2.075   5.589 -0.1469  0.1221 -0.3335
 4219TIP3    H112600   6.732   2.114   5.510 -0.5613  0.0672 -0.1599
 4219TIP3    H212601   6.711   2.100   5.659  0.3170  0.3249 -0.0058
 4220TIP3   OH212602   4.806   3.703   3.560 -0.4715  0.9095 -0.1071
 4220TIP3    H112603   4.761   3.779   3.598  2.2387  2.3049  0.5253
 4220TIP3    H212604   4.857   3.739   3.487  2.4743  0.1641  1.4388
 4221TIP3   OH212605   4.917   1.262   4.740  0.0790  0.0879  0.0328
 4221TIP3    H112606   4.879   1.336   4.787  0.2254 -1.1619  2.2593
 4221TIP3    H212607   5.002   1.294   4.709  0.0267  0.9367  0.7158
 4222TIP3   OH212608   1.656   7.494   4.856  0.6793  0.5735  0.1782
 4222TIP3    H112609   1.683   7.532   4.939  1.6346 -0.9934  0.6125
 4222TIP3    H212610   1.569   7.532   4.840  0.3396  0.6724  2.0284
 4223TIP3   OH212611   2.307   6.944   0.279 -0.2452  0.2840 -0.5577
 4223TIP3    H112612   2.213   6.959   0.273 -0.4157 -0.6309 -0.2563
 4223TIP3    H212613   2.336   6.935   0.189 -0.8220 -1.6182 -0.5829
 4224TIP3   OH212614   3.341   3.339   3.843  0.4330  0.3724 -0.2545
 4224TIP3    H112615   3.433   3.361   3.836  0.6973 -0.9612 -1.4553
 4224TIP3    H212616   3.306   3.352   3.755 -0.7904  1.8618  0.4112
 4225TIP3   OH212617   4.019   3.215   6.406  0.2756 -0.3671 -0.7274
 4225TIP3    H112618   3.975   3.293   6.374  1.2976  0.6626  0.2591
 4225TIP3    H212619   4.108   3.244   6.425  0.9054 -1.9695 -1.0740
 4226TIP3   OH212620   6.507   4.883   0.449  0.0062 -0.1195  0.2827
 4226TIP3    H112621   6.600   4.891   0.468 -0.4264  0.2704  2.5175
 4226TIP3    H212622   6.502   4.813   0.383  1.7856 -0.9725  0.9900
 4227TIP3   OH212623   1.122   7.690   6.271  0.6462 -0.2731 -0.3206
 4227TIP3    H112624   1.056   7.654   6.211  0.3276  1.1632 -0.8899
 4227TIP3    H212625   1.089   7.670   6.358  0.5615 -1.4472 -0.6072
 4228TIP3   OH212626   7.485   0.036   2.538 -0.2365  0.3195  0.4514
 4228TIP3    H112627   7.543   0.097   2.584 -0.4883  0.8925  0.0301
 4228TIP3    H212628   7.457   0.085   2.460  1.9400 -1.3867 -1.5358
 4229TIP3   OH212629   1.523   5.270   5.495 -0.4633 -0.5395  0.6663
 4229TIP3    H112630   1.558   5.181   5.492  0.8700 -0.0301  0.1065
 4229TIP3    H212631   1.567   5.315   5.422 -1.7658  0.3507  0.3934
 4230TIP3   OH212632   6.679   2.369   2.818 -0.3783 -0.0215 -0.3700
 4230TIP3    H112633   6.770   2.341   2.828 -0.9114 -1.6734  0.1471
 4230TIP3    H212634   6.676   2.454   2.863  0.3737 -1.1137  1.9489
 4231TIP3   OH212635   1.511   0.401   1.188  0.0304  0.4476  0.2292
 4231TIP3    H112636   1.519   0.373   1.096  1.1226 -0.1164  0.4773
 4231TIP3    H212637   1.418   0.420   1.199  0.2717  3.4346 -1.8001
 4232TIP3   OH212638   0.937   3.165   5.201  0.0270  0.2872 -0.3168
 4232TIP3    H112639   0.879   3.232   5.165 -0.1101  0.0555 -0.5279
 4232TIP3    H212640   1.019   3.211   5.217 -0.4188  0.7851  0.6377
 4233TIP3   OH212641   2.227   3.588   2.405 -0.6895  0.6873 -0.4469
 4233TIP3    H112642   2.244   3.658   2.342  0.9182 -0.5879 -1.5209
 4233TIP3    H212643   2.135   3.566   2.391 -0.3909  0.4435 -2.4350
 4234TIP3   OH212644   0.953   2.386   4.017 -0.0222 -0.1706 -0.2910
 4234TIP3    H112645   0.962   2.452   4.086  0.8730 -1.3398  0.7316
 4234TIP3    H212646   0.878   2.333   4.045 -1.6460  1.1550 -1.8051
 4235TIP3   OH212647   5.152   1.036   0.905 -0.5631  0.4686 -0.3095
 4235TIP3    H112648   5.099   1.054   0.827 -0.0069 -1.4984 -1.1811
 4235TIP3    H212649   5.242   1.039   0.874 -0.2220  1.5124  0.6961
 4236TIP3   OH212650   4.738   2.830   3.699 -0.0507 -0.3199 -0.6177
 4236TIP3    H112651   4.766   2.875   3.618  1.4523  0.9811  0.5527
 4236TIP3    H212652   4.820   2.816   3.747 -0.9385 -0.9665  0.7472
 4237TIP3   OH212653   1.222   3.279   2.069  0.4269  0.3748  0.0946
 4237TIP3    H112654   1.150   3.259   2.130 -0.0208  0.5127 -0.3879
 4237TIP3    H212655   1.184   3.265   1.982  0.5209  1.9666 -0.2205
 4238TIP3   OH212656   1.562   4.052   4.464  0.7495 -0.1085 -0.1729
 4238TIP3    H112657   1.584   4.019   4.377 -0.2557  0.9730 -0.8658
 4238TIP3    H212658   1.467   4.048   4.468  0.7198  0.8987  0.4442
 4239TIP3   OH212659   2.820   3.687   6.580  0.1795  0.5326  0.2366
 4239TIP3    H112660   2.874   3.659   6.655 -1.0232 -0.7939  0.6559
 4239TIP3    H212661   2.746   3.626   6.580 -0.5915  1.4195 -1.1805
 4240TIP3   OH212662   7.181   1.648   2.659 -0.2976 -0.1438 -0.2447
 4240TIP3    H112663   7.236   1.599   2.720  1.1157  0.4953 -0.9354
 4240TIP3    H212664   7.124   1.583   2.619  1.8850 -1.3928 -1.5351
 4241TIP3   OH212665   2.538   4.827   3.501 -0.1434 -0.4116  0.0894
 4241TIP3    H112666   2.552   4.855   3.410 -1.2426 -0.8895 -0.2405
 4241TIP3    H212667   2.532   4.908   3.550  0.3652 -0.1467 -0.2728
 4242TIP3   OH212668   6.978   3.094   0.313  0.3780 -0.1773  0.2121
 4242TIP3    H112669   7.048   3.106   0.249 -0.0014  2.0016  0.1166
 4242TIP3    H212670   6.900   3.128   0.269 -0.1058  0.3265  1.4215
 4243TIP3   OH212671   5.601   3.901   5.030  0.0502 -0.1183 -0.0254
 4243TIP3    H112672   5.547   3.884   5.107 -0.0029  0.6104  0.1114
 4243TIP3    H212673   5.684   3.935   5.065  0.5456 -1.0832 -0.2424
 4244TIP3   OH212674   0.100   6.817   4.249 -0.0580 -0.4126 -0.5755
 4244TIP3    H112675   0.004   6.820   4.244 -0.1122 -0.8281  0.0472
 4244TIP3    H212676   0.118   6.785   4.338  0.6935  1.8946  0.1775
 4245TIP3   OH212677   0.276   1.717   6.065 -0.4318 -0.2326 -0.4516
 4245TIP3    H112678   0.352   1.674   6.104 -0.5356  0.1679  0.2178
 4245TIP3    H212679   0.312   1.791   6.016 -0.2627 -0.9936 -1.5122
 4246TIP3   OH212680   3.580   2.516   6.461 -0.2445  0.3569  0.8761
 4246TIP3    H112681   3.550   2.446   6.518 -0.7047 -1.4814 -1.4780
 4246TIP3    H212682   3.570   2.596   6.514 -1.1736 -1.1413  3.1069
 4247TIP3   OH212683   5.758   6.987   4.323  0.1928  0.6517 -0.0629
 4247TIP3    H112684   5.754   7.082   4.325 -0.3931  0.6378  2.1778
 4247TIP3    H212685   5.693   6.959   4.387  2.5115 -1.1408  1.7149
 4248TIP3   OH212686   2.363   1.409   5.718  0.2488 -0.0455 -0.0714
 4248TIP3    H112687   2.374   1.504   5.727  3.0151 -0.4358  1.7912
 4248TIP3    H212688   2.452   1.375   5.718 -0.6700 -2.8591  2.5585
 4249TIP3   OH212689   2.293   6.033   5.954 -0.1997  0.8054 -0.1045
 4249TIP3    H112690   2.230   5.995   5.893  0.1786 -0.4558  0.2690
 4249TIP3    H212691   2.289   5.977   6.031  1.0168  1.0057  0.1180
 4250TIP3   OH212692   1.631   5.491   0.991 -0.2337 -0.7471 -0.4286
 4250TIP3    H112693   1.539   5.504   1.014 -0.0666  1.9733 -0.9330
 4250TIP3    H212694   1.669   5.451   1.068 -1.2293  1.0715  1.0898
 4251TIP3   OH212695   7.906   2.189   2.807  0.0278  0.0717 -0.2554
 4251TIP3    H112696   7.857   2.114   2.841 -0.4280  0.4318 -0.0966
 4251TIP3    H212697   7.997   2.171   2.829 -0.0755 -0.4403 -0.2333
 4252TIP3   OH212698   5.622   7.295   2.432  0.1094  0.1092 -0.0822
 4252TIP3    H112699   5.531   7.270   2.421  0.2479  0.0317 -1.1060
 4252TIP3    H212700   5.649   7.253   2.514 -0.1334 -1.7773 -0.9054
 4253TIP3   OH212701   0.051   6.246   4.141  0.8697  0.3915 -0.1426
 4253TIP3    H112702  -0.019   6.188   4.171  0.3885  1.0538  0.0465
 4253TIP3    H212703   0.085   6.286   4.221  0.5087  1.1273 -0.3440
 4254TIP3   OH212704   2.256   2.371   1.446 -0.3104 -0.2904  0.0293
 4254TIP3    H112705   2.338   2.321   1.441 -0.2176 -0.4239  2.0516
 4254TIP3    H212706   2.267   2.425   1.524 -1.2363  1.4203 -0.9753
 4255TIP3   OH212707   5.332   2.236   6.673  0.3196  0.3582  0.3773
 4255TIP3    H112708   5.265   2.208   6.735  0.6714  2.4398  1.8210
 4255TIP3    H212709   5.407   2.179   6.690 -0.5713 -1.0695 -0.2928
 4256TIP3   OH212710   7.782   6.211   4.948  0.4327  0.0095 -0.0178
 4256TIP3    H112711   7.787   6.185   4.857 -0.8387  1.6570 -0.6036
 4256TIP3    H212712   7.873   6.225   4.974  0.7439  0.8512 -1.4614
 4257TIP3   OH212713   5.382   5.278   0.193 -0.4275 -0.2150 -0.0818
 4257TIP3    H112714   5.320   5.347   0.214  0.4840  0.3748  0.8071
 4257TIP3    H212715   5.358   5.249   0.105 -3.1987 -1.4162  0.9584
 4258TIP3   OH212716   2.481   1.777   2.607  0.0938 -0.2884 -0.5008
 4258TIP3    H112717   2.473   1.849   2.545 -0.1102  0.7520  0.6866
 4258TIP3    H212718   2.572   1.747   2.597  0.9992  1.8404  0.7380
 4259TIP3   OH212719   7.081   0.953   1.801  0.3554  0.2220 -0.8789
 4259TIP3    H112720   7.015   0.891   1.833  0.5839  0.5432  0.2457
 4259TIP3    H212721   7.036   1.038   1.803  1.2063  0.6841  1.3067
 4260TIP3   OH212722   7.432   4.011   1.664  0.1364  0.3631 -0.4319
 4260TIP3    H112723   7.494   4.009   1.590  0.5813  1.3803 -0.0998
 4260TIP3    H212724   7.356   4.058   1.631 -0.8361 -1.5801 -1.0953
 4261TIP3   OH212725   7.159   1.486   4.701  0.0944  0.2642 -0.2159
 4261TIP3    H112726   7.097   1.460   4.769 -0.6184  2.9678  0.2859
 4261TIP3    H212727   7.105   1.500   4.623  0.4896 -0.1121 -0.5580
 4262TIP3   OH212728   3.320   7.115   2.645  0.3133 -0.5469 -0.0335
 4262TIP3    H112729   3.409   7.099   2.675  0.2956 -1.3324 -0.3813
 4262TIP3    H212730   3.271   7.036   2.670 -0.6143  0.4206  1.3744
 4263TIP3   OH212731   2.633   6.435   6.346  0.3992  0.2941  0.2640
 4263TIP3    H112732   2.652   6.358   6.399 -1.7358 -0.2271  0.3630
 4263TIP3    H212733   2.545   6.462   6.374 -0.9960 -0.1930 -3.1808
 4264TIP3   OH212734   0.125   1.664   1.261 -0.2471  0.2346  0.1495
 4264TIP3    H112735   0.125   1.603   1.334 -0.4709 -1.5487 -1.2554
 4264TIP3    H212736   0.120   1.608   1.183  1.2219  1.9754 -1.3008
 4265TIP3   OH212737   2.722   0.493   4.858 -0.5770  0.5181 -0.4842
 4265TIP3    H112738   2.769   0.574   4.879  0.6967 -0.0804 -0.9363
 4265TIP3    H212739   2.675   0.471   4.938  0.9523  0.4514  0.4366
 4266TIP3   OH212740   7.873   2.575   3.581 -0.4672 -0.1814  0.2344
 4266TIP3    H112741   7.945   2.636   3.566 -0.6663 -0.1699 -0.7777
 4266TIP3    H212742   7.891   2.537   3.667  0.0372  0.7767  0.5690
 4267TIP3   OH212743   6.808   4.828   6.347  0.2692 -0.1240  0.1396
 4267TIP3    H112744   6.816   4.734   6.329  1.9282 -0.0317  0.2519
 4267TIP3    H212745   6.808   4.835   6.442 -0.3550 -0.0335  0.1374
 4268TIP3   OH212746   6.141   4.424   3.111  0.0354 -0.0009 -0.1781
 4268TIP3    H112747   6.066   4.471   3.073 -1.2527 -1.7266  0.0993
 4268TIP3    H212748   6.113   4.332   3.113  1.1147 -0.3565  2.4431
 4269TIP3   OH212749   8.093   0.565   6.228 -0.3264  0.1932 -0.0573
 4269TIP3    H112750   8.185   0.561   6.254 -0.2051 -0.1901 -0.5315
 4269TIP3    H212751   8.049   0.607   6.302  0.2382  0.4427  0.1451
 4270TIP3   OH212752   1.244   6.265   6.093  0.0513 -0.2727  0.6076
 4270TIP3    H112753   1.282   6.177   6.089  0.8670  0.1010 -0.0654
 4270TIP3    H212754   1.214   6.282   6.004  1.3419  0.7531  0.3408
 4271TIP3   OH212755   8.008   4.028   3.455  0.1578  0.4359  0.2091
 4271TIP3    H112756   7.932   4.067   3.411  1.5541  0.5759 -2.1989
 4271TIP3    H212757   7.972   3.950   3.498 -1.2466  0.1098 -1.4365
 4272TIP3   OH212758   2.140   2.128   1.078 -0.0091  0.3898 -0.3558
 4272TIP3    H112759   2.101   2.070   1.144 -0.4475  0.7649 -0.2719
 4272TIP3    H212760   2.064   2.165   1.032  0.2292  1.2900 -0.0587
 4273TIP3   OH212761   0.338   0.717   5.116 -0.0810  0.1381  0.1399
 4273TIP3    H112762   0.348   0.702   5.210 -0.7015 -0.1987  0.1604
 4273TIP3    H212763   0.379   0.802   5.101  1.6868 -0.6288  0.3753
 4274TIP3   OH212764   4.091   0.468   6.064 -0.4886 -0.2930 -0.2047
 4274TIP3    H112765   4.010   0.418   6.069  0.1549 -1.2665  2.0255
 4274TIP3    H212766   4.147   0.416   6.006 -0.5271 -1.1226  0.4817
 4275TIP3   OH212767   4.444   6.684   4.327  0.1164 -0.5268 -0.1673
 4275TIP3    H112768   4.481   6.732   4.253 -0.5468  0.0082 -0.1684
 4275TIP3    H212769   4.357   6.658   4.298 -0.2078 -0.1897  0.4563
 4276TIP3   OH212770   6.644   4.402   3.790  0.3574  0.1339 -0.2092
 4276TIP3    H112771   6.634   4.448   3.873  1.5173 -0.4095  0.2479
 4276TIP3    H212772   6.654   4.472   3.725 -2.0998  0.6203 -0.1745
 4277TIP3   OH212773   5.740   1.677   2.956 -0.0009 -0.0592  0.8288
 4277TIP3    H112774   5.650   1.655   2.932  0.7371 -1.5528 -0.8086
 4277TIP3    H212775   5.731   1.732   3.034 -2.3280  0.1422  0.5018
 4278TIP3   OH212776   7.327   0.573   5.327  0.4618  0.1769  0.0140
 4278TIP3    H112777   7.344   0.624   5.406  0.1166  1.6645 -0.8495
 4278TIP3    H212778   7.240   0.600   5.299  1.4105  1.3001 -2.0518
 4279TIP3   OH212779   6.434   6.695   4.757  0.1593  0.2641 -0.0504
 4279TIP3    H112780   6.440   6.623   4.820  3.9717 -0.1173 -0.5835
 4279TIP3    H212781   6.450   6.774   4.808 -1.3866  0.4953  0.1161
 4280TIP3   OH212782   4.853   6.243   5.340 -0.1190  0.1167  0.2412
 4280TIP3    H112783   4.914   6.175   5.369  1.2386  1.7652  1.4479
 4280TIP3    H212784   4.837   6.222   5.248  1.2215 -1.1400  0.2532
 4281TIP3   OH212785   4.447   2.111   2.643 -0.0077 -0.2772  0.0972
 4281TIP3    H112786   4.440   2.207   2.643  1.2982 -0.1023 -2.2400
 4281TIP3    H212787   4.365   2.082   2.683 -0.8559  1.8095  0.0348
 4282TIP3   OH212788   2.431   0.280   4.685  0.1224  0.0424 -0.0373
 4282TIP3    H112789   2.410   0.188   4.668  1.8578 -0.8837  2.1649
 4282TIP3    H212790   2.525   0.286   4.664  0.1604  1.1327  0.4136
 4283TIP3   OH212791   4.915   6.897   4.590 -0.1412 -0.1887  0.1049
 4283TIP3    H112792   5.003   6.905   4.553  0.0859  0.7050  0.8000
 4283TIP3    H212793   4.859   6.945   4.530 -0.4270 -2.0013 -1.1487
 4284TIP3   OH212794   3.151   1.240   1.339 -0.1187  0.1030  0.1144
 4284TIP3    H112795   3.112   1.163   1.380 -0.1502 -0.5955 -1.1841
 4284TIP3    H212796   3.233   1.254   1.386  0.7358 -1.7813 -0.7322
 4285TIP3   OH212797   6.985   1.315   5.676 -0.4761 -0.0001  0.8457
 4285TIP3    H112798   7.007   1.360   5.595 -1.4096 -0.4145  0.3494
 4285TIP3    H212799   7.021   1.371   5.745 -0.3519  0.7551  0.1792
 4286TIP3   OH212800   1.025   1.986   6.714 -0.2728 -0.6395 -0.4375
 4286TIP3    H112801   1.088   2.053   6.740 -0.2321 -0.8429 -0.0085
 4286TIP3    H212802   1.013   2.000   6.620  1.3043 -1.3153 -0.7707
 4287TIP3   OH212803   0.930   7.200   4.562  0.5884  0.0517  0.0215
 4287TIP3    H112804   0.911   7.160   4.477  2.0281  0.9792 -0.7843
 4287TIP3    H212805   0.844   7.223   4.598 -0.0209  0.6949 -1.7251
 4288TIP3   OH212806   4.304   1.788   4.140  0.3508  0.1310 -0.4766
 4288TIP3    H112807   4.370   1.839   4.187 -0.3435  0.1753  0.4657
 4288TIP3    H212808   4.220   1.828   4.163 -0.4202 -2.3733  1.6795
 4289TIP3   OH212809   2.047   2.518   4.923  0.3623  0.6653  0.5480
 4289TIP3    H112810   2.084   2.549   5.005  0.7962  0.3575  0.4716
 4289TIP3    H212811   2.050   2.594   4.865 -1.6716  1.4286  1.3637
 4290TIP3   OH212812   4.433   7.813   4.717  0.3557 -0.1875  0.2130
 4290TIP3    H112813   4.520   7.783   4.743 -0.7367 -2.5197  1.4816
 4290TIP3    H212814   4.423   7.785   4.626  1.9629  2.7526 -0.9979
 4291TIP3   OH212815   5.552   5.038   4.030 -0.2039  0.0235 -0.0444
 4291TIP3    H112816   5.543   5.112   4.090  2.4231  1.8300 -1.6549
 4291TIP3    H212817   5.462   5.015   4.008 -1.1825  0.9620  2.5220
 4292TIP3   OH212818   5.268   0.978   5.754 -0.3440  0.0827 -0.2484
 4292TIP3    H112819   5.209   0.905   5.773 -0.9722  0.0733 -1.9767
 4292TIP3    H212820   5.210   1.054   5.747  0.2769  0.7338  1.3207
 4293TIP3   OH212821   6.970   1.759   0.923 -0.6736 -0.0395 -0.2931
 4293TIP3    H112822   7.048   1.807   0.894  0.1031 -1.5498 -0.8037
 4293TIP3    H212823   6.929   1.817   0.987  1.0246  0.6881  0.1938
 4294TIP3   OH212824   6.578   6.629   0.725  0.0685 -0.3155  0.1566
 4294TIP3    H112825   6.516   6.663   0.790 -0.4035  1.3404 -1.1034
 4294TIP3    H212826   6.530   6.631   0.643  0.7581 -2.1057 -0.3290
 4295TIP3   OH212827   0.325   1.961   5.250 -0.1749  0.3160 -0.4141
 4295TIP3    H112828   0.356   2.050   5.266 -1.7040  1.0113 -1.0609
 4295TIP3    H212829   0.383   1.927   5.181  0.4343  0.7993 -0.1476
 4296TIP3   OH212830   3.806   1.876   0.701  0.1130  0.6105 -0.0001
 4296TIP3    H112831   3.877   1.890   0.764  1.3153 -0.2591 -1.1305
 4296TIP3    H212832   3.845   1.825   0.631 -1.2612  1.3478 -1.3587
 4297TIP3   OH212833   1.813   3.359   3.264 -0.5481  0.1043 -0.1394
 4297TIP3    H112834   1.751   3.288   3.251  1.0684 -1.5844  0.9089
 4297TIP3    H212835   1.765   3.423   3.317 -1.1187 -1.6129  1.5285
 4298TIP3   OH212836   5.808   4.184   4.174  0.0574 -0.3574  0.2460
 4298TIP3    H112837   5.873   4.187   4.245 -2.3616  0.1038  2.6086
 4298TIP3    H212838   5.802   4.274   4.143  0.3530 -0.3496  0.2082
 4299TIP3   OH212839   3.395   4.494   6.580 -0.6893  0.8042  0.1835
 4299TIP3    H112840   3.456   4.566   6.598 -0.1712  0.7369 -1.1719
 4299TIP3    H212841   3.337   4.492   6.656 -0.0629  1.9819  0.7199
 4300TIP3   OH212842   0.370   5.889   0.414 -0.0521 -0.9812 -0.4161
 4300TIP3    H112843   0.428   5.931   0.350 -0.4701 -0.3061 -0.3641
 4300TIP3    H212844   0.338   5.811   0.370 -1.3967  0.1639 -1.6006
 4301TIP3   OH212845   7.227   4.194   2.756  0.1431  0.5320  0.2527
 4301TIP3    H112846   7.239   4.221   2.665  1.6757  2.8486  1.0309
 4301TIP3    H212847   7.222   4.098   2.753 -0.2756  0.5809 -2.2771
 4302TIP3   OH212848   0.060   3.609   1.115  0.2150 -0.4689  0.0982
 4302TIP3    H112849   0.099   3.679   1.062  1.1278 -0.8068  0.3067
 4302TIP3    H212850   0.103   3.529   1.084  0.7541 -0.6712  1.3312
 4303TIP3   OH212851   0.324   2.819   5.990 -0.0111 -0.1086  0.3700
 4303TIP3    H112852   0.300   2.748   5.931 -0.5208  0.5286 -0.2081
 4303TIP3    H212853   0.241   2.857   6.018  0.2354 -0.1496  1.1968
 4304TIP3   OH212854   5.466   3.204   2.207 -0.2114 -0.8700  0.1295
 4304TIP3    H112855   5.432   3.241   2.125  0.3659 -3.7058 -1.5155
 4304TIP3    H212856   5.557   3.234   2.210 -0.2429 -0.7211 -0.2723
 4305TIP3   OH212857   6.797   6.582   4.275 -0.2805 -0.0163 -0.8128
 4305TIP3    H112858   6.750   6.663   4.254 -0.0019 -0.2898 -2.6225
 4305TIP3    H212859   6.831   6.552   4.191  2.1730 -0.4364  0.2501
 4306TIP3   OH212860   4.566   3.216   5.657  0.6179 -0.3010  0.5368
 4306TIP3    H112861   4.562   3.300   5.704  0.4541 -1.1099  2.0431
 4306TIP3    H212862   4.503   3.226   5.585 -1.0618  0.1427  1.9908
 4307TIP3   OH212863   5.033   4.385   1.669 -0.2623 -0.3644 -0.1242
 4307TIP3    H112864   5.004   4.316   1.728 -1.5883  0.6653  0.4634
 4307TIP3    H212865   5.011   4.351   1.582  1.8299 -1.9483 -0.1221
 4308TIP3   OH212866   6.044   5.909   3.538 -0.1181  0.4161 -0.6371
 4308TIP3    H112867   5.956   5.945   3.548 -1.7490 -3.1490 -0.6183
 4308TIP3    H212868   6.031   5.823   3.497  3.4402 -0.0190 -1.2173
 4309TIP3   OH212869   4.155   5.739   2.815 -0.1092 -0.2028 -0.0113
 4309TIP3    H112870   4.224   5.729   2.751  0.8057  0.2231  0.8763
 4309TIP3    H212871   4.076   5.708   2.771  1.0694 -3.3181 -0.1599
 4310TIP3   OH212872   5.478   0.890   1.146 -0.2155 -0.6279  0.2146
 4310TIP3    H112873   5.454   0.982   1.142  2.3425  0.0753 -1.8559
 4310TIP3    H212874   5.476   0.860   1.055  2.3586 -1.5781  0.3836
 4311TIP3   OH212875   3.292   0.247   1.634 -0.1744  0.3442  0.5195
 4311TIP3    H112876   3.198   0.227   1.635 -0.1149  0.0350 -0.0219
 4311TIP3    H212877   3.324   0.215   1.719 -0.1908 -1.3633 -0.0793
 4312TIP3   OH212878   7.863   0.101   2.963 -0.4273  0.5196 -0.0122
 4312TIP3    H112879   7.915   0.037   2.915  1.8091  2.0571  0.1969
 4312TIP3    H212880   7.872   0.182   2.912 -1.1954  1.2377  0.9603
 4313TIP3   OH212881   6.168   6.841   4.640 -0.0291  0.2680 -0.8256
 4313TIP3    H112882   6.231   6.780   4.601 -0.0551 -0.8183  0.7622
 4313TIP3    H212883   6.107   6.860   4.569 -0.9555 -2.8323 -1.0149
 4314TIP3   OH212884   4.185   1.045   4.187  0.1304  0.5117 -0.0835
 4314TIP3    H112885   4.162   0.965   4.234  2.2952 -0.2380 -0.1752
 4314TIP3    H212886   4.173   1.023   4.094 -1.9847  1.2704 -0.0502
 4315TIP3   OH212887   3.967   3.267   0.512  0.2019 -0.2370 -0.0104
 4315TIP3    H112888   3.939   3.312   0.592  0.1947 -0.7701  0.2868
 4315TIP3    H212889   4.023   3.196   0.543 -0.4206 -0.9220 -0.4270
 4316TIP3   OH212890   3.514   2.001   3.014  0.2621  0.4677 -0.5184
 4316TIP3    H112891   3.564   1.996   3.096 -0.5924 -0.2424 -0.0182
 4316TIP3    H212892   3.451   2.071   3.029 -0.1416  0.0898 -0.4106
 4317TIP3   OH212893   1.715   5.231   4.641 -0.4209 -0.2834  0.2377
 4317TIP3    H112894   1.671   5.180   4.573  0.2479 -0.3032 -0.1947
 4317TIP3    H212895   1.759   5.166   4.695  0.3902 -0.1846 -0.2831
 4318TIP3   OH212896   5.701   3.325   0.079 -0.6264 -0.1393 -0.0865
 4318TIP3    H112897   5.677   3.387   0.010 -0.5699  1.4678  1.2956
 4318TIP3    H212898   5.713   3.242   0.032 -0.8415  0.8287 -1.9662
 4319TIP3   OH212899   1.448   2.950   2.220  0.4697 -0.0114  0.4230
 4319TIP3    H112900   1.484   3.005   2.290  1.5693 -0.5725  0.3327
 4319TIP3    H212901   1.354   2.950   2.235  0.5952  0.7096  1.2921
 4320TIP3   OH212902   2.349   5.258   1.747  0.3374 -0.4588 -0.2155
 4320TIP3    H112903   2.393   5.262   1.661 -1.0345 -2.6851 -1.1231
 4320TIP3    H212904   2.256   5.252   1.726  0.0142 -1.7444  1.3928
 4321TIP3   OH212905   2.699   2.436   4.384 -0.4704  0.2651 -0.0219
 4321TIP3    H112906   2.623   2.490   4.366 -0.1661  0.6044 -0.3198
 4321TIP3    H212907   2.705   2.432   4.480 -0.6565  0.5297 -0.0003
 4322TIP3   OH212908   4.307   5.693   2.594 -0.5451  0.3935  0.3438
 4322TIP3    H112909   4.363   5.728   2.525 -0.3167  0.7650  0.7082
 4322TIP3    H212910   4.224   5.673   2.550 -0.0019 -0.5435 -0.2800
 4323TIP3   OH212911   5.143   3.830   2.716  0.2559 -0.6219  0.3411
 4323TIP3    H112912   5.191   3.830   2.634 -0.5298 -0.5970 -0.1293
 4323TIP3    H212913   5.067   3.775   2.700 -1.1821  1.2895  0.2570
 4324TIP3   OH212914   7.105   3.828   0.935 -0.5037 -0.1172  0.2079
 4324TIP3    H112915   7.034   3.839   0.999 -0.9525 -1.3124 -0.0617
 4324TIP3    H212916   7.092   3.898   0.872  0.2338  1.4081  1.6508
 4325TIP3   OH212917   0.491   7.526   2.810 -0.2316 -0.0126 -0.1973
 4325TIP3    H112918   0.456   7.441   2.838  0.7472 -0.2276  0.4211
 4325TIP3    H212919   0.551   7.505   2.739 -0.5847  0.2566 -0.5813
 4326TIP3   OH212920   6.985   2.084   6.263 -0.5346  0.2652  0.1773
 4326TIP3    H112921   7.005   2.163   6.313  3.8034 -1.6903  2.0639
 4326TIP3    H212922   6.953   2.022   6.329  1.3866 -1.1209 -0.1206
 4327TIP3   OH212923   0.355   7.486   5.289  0.0736 -0.6824  0.0680
 4327TIP3    H112924   0.265   7.487   5.256  0.9330  0.0241 -2.5104
 4327TIP3    H212925   0.378   7.579   5.296 -0.1044 -0.7568  3.1351
 4328TIP3   OH212926   3.699   0.912   2.150  0.2661 -0.3414  0.1629
 4328TIP3    H112927   3.617   0.879   2.188  0.9398 -1.0742  1.0109
 4328TIP3    H212928   3.707   0.865   2.067 -1.1247  1.1402 -0.8807
 4329TIP3   OH212929   2.880   2.565   5.414 -0.6416  0.5932  0.2907
 4329TIP3    H112930   2.811   2.605   5.468 -0.9390 -1.6515  1.6879
 4329TIP3    H212931   2.839   2.556   5.328 -0.8987  2.3075  0.1941
 4330TIP3   OH212932   7.629   2.213   3.712  0.2618 -0.2982 -0.0900
 4330TIP3    H112933   7.704   2.240   3.659  0.2695 -0.9695 -0.4343
 4330TIP3    H212934   7.586   2.146   3.659  0.7447 -1.5933  1.1027
 4331TIP3   OH212935   1.432   4.823   0.685 -0.0298 -0.3761 -0.3112
 4331TIP3    H112936   1.425   4.826   0.590 -0.6215 -0.7964 -0.2889
 4331TIP3    H212937   1.379   4.897   0.715  2.1034  1.2666 -0.3571
 4332TIP3   OH212938   5.932   2.349   3.501 -0.2094  0.1143 -0.0383
 4332TIP3    H112939   5.977   2.300   3.432  0.3777 -1.3334  1.3026
 4332TIP3    H212940   5.868   2.402   3.454 -1.7491 -2.8291 -1.5741
 4333TIP3   OH212941   3.217   6.526   3.715 -0.0139  0.3039  0.0512
 4333TIP3    H112942   3.216   6.441   3.671  2.3033  0.0406  0.3507
 4333TIP3    H212943   3.266   6.511   3.795 -0.6282  1.6704  0.7200
 4334TIP3   OH212944   6.394   4.945   5.820 -0.3037  0.4085 -0.0776
 4334TIP3    H112945   6.411   4.883   5.891  2.0762  0.0097 -0.8999
 4334TIP3    H212946   6.300   4.961   5.824 -0.4700 -0.7544  2.1973
 4335TIP3   OH212947   3.966   0.189   5.580  0.1994 -0.1405 -0.3529
 4335TIP3    H112948   3.931   0.213   5.666 -1.5228  0.3373 -1.1423
 4335TIP3    H212949   3.950   0.266   5.525  0.6102 -0.7078 -1.2895
 4336TIP3   OH212950   7.888   5.686   3.063  0.2983  0.0601 -0.0044
 4336TIP3    H112951   7.803   5.645   3.079  0.7436 -0.7357  0.3511
 4336TIP3    H212952   7.948   5.643   3.124  0.7171  1.4712  0.6266
 4337TIP3   OH212953   4.834   3.244   2.449  0.2958 -0.3022 -0.3121
 4337TIP3    H112954   4.881   3.229   2.531  1.6031 -0.7543 -1.1062
 4337TIP3    H212955   4.748   3.205   2.463  0.2723  0.1908  1.0569
 4338TIP3   OH212956   2.186   7.131   1.133 -0.3286  0.3855  0.5599
 4338TIP3    H112957   2.216   7.097   1.049 -1.0631 -1.9656  1.1822
 4338TIP3    H212958   2.200   7.225   1.127  0.4227  0.1807 -1.8622
 4339TIP3   OH212959   7.167   4.214   6.386 -0.4386 -0.0468  0.8793
 4339TIP3    H112960   7.262   4.205   6.392 -0.1738  2.5436  1.7586
 4339TIP3    H212961   7.136   4.204   6.476 -0.6336  1.7636  1.0613
 4340TIP3   OH212962   2.299   5.371   3.212  0.8136 -0.0259 -0.0002
 4340TIP3    H112963   2.368   5.412   3.264  2.0275 -0.2979 -1.3298
 4340TIP3    H212964   2.226   5.433   3.215  2.0076  1.4830 -0.5969
 4341TIP3   OH212965   4.131   5.446   3.334  0.5560 -0.1730 -0.2910
 4341TIP3    H112966   4.221   5.416   3.347  0.6956  0.4893  0.3081
 4341TIP3    H212967   4.132   5.538   3.361 -0.5758 -0.5039  0.9835
 4342TIP3   OH212968   4.723   1.844   4.749 -0.5535  0.4536  0.0280
 4342TIP3    H112969   4.771   1.815   4.672  1.5353 -0.5546  1.6118
 4342TIP3    H212970   4.632   1.827   4.729  0.0670 -1.1444 -1.6529
 4343TIP3   OH212971   7.988   2.512   2.713 -0.1602 -0.5408 -0.5988
 4343TIP3    H112972   7.979   2.511   2.809  0.4936  2.5433 -0.4137
 4343TIP3    H212973   8.073   2.552   2.698 -0.8674  0.3497 -2.4672
 4344TIP3   OH212974   3.161   5.434   6.732  0.0279  0.2931  0.0984
 4344TIP3    H112975   3.105   5.356   6.741  0.2136  0.2597  1.0103
 4344TIP3    H212976   3.241   5.400   6.693  1.0157 -0.4345  2.5673
 4345TIP3   OH212977   7.448   1.340   0.115 -0.4657  0.1802 -0.5680
 4345TIP3    H112978   7.421   1.427   0.146 -0.6234  0.6730 -2.0289
 4345TIP3    H212979   7.533   1.354   0.074 -0.1642 -0.5043 -0.2003
 4346TIP3   OH212980   3.545   5.545   6.658  0.1828 -0.4739 -0.4507
 4346TIP3    H112981   3.473   5.515   6.603  0.2638 -1.2560 -0.1398
 4346TIP3    H212982   3.559   5.636   6.631 -1.9210  0.2099  0.5356
 4347TIP3   OH212983   4.897   3.026   4.553 -0.1450  0.2011 -0.3874
 4347TIP3    H112984   4.982   3.057   4.522  0.5152 -0.4762  0.6742
 4347TIP3    H212985   4.874   2.955   4.493  0.1396  0.2418 -0.5452
 4348TIP3   OH212986   7.139   2.469   6.538  0.4039  0.3802  0.0572
 4348TIP3    H112987   7.225   2.495   6.506  1.1062 -1.3560  0.4628
 4348TIP3    H212988   7.133   2.507   6.626  0.8246  0.3647  0.0913
 4349TIP3   OH212989   1.795   4.210   5.638 -0.6174  0.2633  0.1560
 4349TIP3    H112990   1.764   4.134   5.687  0.2754 -0.0242  0.3016
 4349TIP3    H212991   1.890   4.208   5.648 -0.4066  0.2590 -1.5129
 4350TIP3   OH212992   0.094   6.602   4.853  0.0754  0.3408  0.4392
 4350TIP3    H112993   0.017   6.547   4.869  0.7235 -0.8745 -0.4195
 4350TIP3    H212994   0.082   6.633   4.763 -0.3577  1.7612  0.9691
 4351TIP3   OH212995   2.282   2.582   6.611 -0.6999  0.7257 -0.2884
 4351TIP3    H112996   2.233   2.599   6.531 -0.3199  0.9038 -0.4897
 4351TIP3    H212997   2.300   2.488   6.609 -2.0847  0.4207  0.4062
 4352TIP3   OH212998   2.783   4.915   0.898  0.4532  0.0930  0.6036
 4352TIP3    H112999   2.779   4.870   0.814 -4.5697 -1.9114  1.5576
 4352TIP3    H213000   2.833   4.857   0.955 -0.3943 -1.1078  0.1625
 4353TIP3   OH213001   5.305   0.604   6.449  0.4746  0.5068 -0.0430
 4353TIP3    H113002   5.395   0.575   6.432  0.2451 -0.0506 -0.3315
 4353TIP3    H213003   5.309   0.644   6.536  0.8165 -0.3711  0.3633
 4354TIP3   OH213004   3.461   7.317   6.563 -0.0882 -0.0379  0.2903
 4354TIP3    H113005   3.532   7.380   6.548 -0.5683  0.5568  0.4940
 4354TIP3    H213006   3.506   7.233   6.576  0.6859  0.5936  2.0353
 4355TIP3   OH213007   7.680   0.683   3.152  0.1501  0.2034 -0.4220
 4355TIP3    H113008   7.620   0.648   3.087  0.1420 -1.1815  0.3002
 4355TIP3    H213009   7.659   0.777   3.156 -0.8105  0.0430 -1.3611
 4356TIP3   OH213010   5.150   3.749   3.722  0.0343  0.3168  0.4091
 4356TIP3    H113011   5.074   3.758   3.779  0.3480  0.8774  0.7415
 4356TIP3    H213012   5.190   3.836   3.720  0.9911 -0.1070  0.6990
 4357TIP3   OH213013   7.792   3.506   4.940  0.5982 -0.1598 -0.4630
 4357TIP3    H113014   7.768   3.414   4.933 -1.1338  0.2130  0.1666
 4357TIP3    H213015   7.852   3.521   4.866 -0.9926 -1.2054 -2.0291
 4358TIP3   OH213016   1.885   2.408   4.745 -0.5204 -0.0560  0.2283
 4358TIP3    H113017   1.899   2.448   4.659  0.8864 -1.0118 -0.0287
 4358TIP3    H213018   1.961   2.435   4.796 -1.0053 -0.0603  0.9666
 4359TIP3   OH213019   7.896   2.446   3.837  0.5003  0.5209  0.0016
 4359TIP3    H113020   7.926   2.363   3.876  1.0365  1.1157  0.8823
 4359TIP3    H213021   7.804   2.452   3.862  0.8383  0.9022  1.2280
 4360TIP3   OH213022   6.507   4.535   5.850  0.2162 -0.1674  0.2912
 4360TIP3    H113023   6.513   4.558   5.943  1.6018  0.4960  0.0600
 4360TIP3    H213024   6.598   4.525   5.822 -0.1975 -2.4997 -0.5018
 4361TIP3   OH213025   3.458   2.164   5.451 -0.0973 -0.3595  0.0702
 4361TIP3    H113026   3.397   2.141   5.381  0.9579 -1.4586 -0.5130
 4361TIP3    H213027   3.521   2.224   5.410 -1.0626  1.2283  0.8129
 4362TIP3   OH213028   5.511   2.016   2.877 -0.1662  0.0050  0.2556
 4362TIP3    H113029   5.478   1.962   2.949 -0.0530 -1.2321 -0.5942
 4362TIP3    H213030   5.579   2.070   2.917  0.4005 -1.1736  0.9611
 4363TIP3   OH213031   6.701   1.980   0.263  0.4780 -0.1845  0.3379
 4363TIP3    H113032   6.724   2.054   0.319 -1.0340 -0.7285  1.7705
 4363TIP3    H213033   6.641   2.016   0.198 -0.7152 -0.2022  1.3835
 4364TIP3   OH213034   0.933   3.570   1.054  0.6875  0.5261 -0.3220
 4364TIP3    H113035   1.010   3.602   1.006  1.2245 -0.7460 -0.3432
 4364TIP3    H213036   0.968   3.504   1.114 -0.2747  0.5764  0.3164
 4365TIP3   OH213037   6.162   4.364   6.025 -0.4037  0.4001 -0.1536
 4365TIP3    H113038   6.128   4.440   5.978 -1.5234 -1.7395 -3.0890
 4365TIP3    H213039   6.090   4.302   6.026 -0.1428 -0.0909  3.7997
 4366TIP3   OH213040   2.969   4.806   5.755 -0.1223 -0.3817  0.4805
 4366TIP3    H113041   2.883   4.830   5.791  0.2022  3.5587 -0.8759
 4366TIP3    H213042   2.960   4.821   5.661  1.6565 -1.3325  0.1285
 4367TIP3   OH213043   2.530   4.004   2.541  0.1244 -0.1822  0.2623
 4367TIP3    H113044   2.586   4.000   2.619  1.3693  2.1813 -0.3888
 4367TIP3    H213045   2.589   3.985   2.468 -1.0213 -2.3432 -0.1831
 4368TIP3   OH213046   1.496   2.857   1.465  0.4500 -0.5808 -0.3469
 4368TIP3    H113047   1.499   2.951   1.446 -0.0144 -0.8479 -1.8829
 4368TIP3    H213048   1.585   2.826   1.446  0.3475 -0.6100 -0.7912
 4369TIP3   OH213049   6.209   2.651   1.558  0.5734  0.3007 -0.1211
 4369TIP3    H113050   6.118   2.629   1.537  1.4066 -1.9974 -1.7840
 4369TIP3    H213051   6.215   2.643   1.653 -0.8156 -0.1627 -0.0528
 4370TIP3   OH213052   7.881   4.457   0.211 -0.2784  0.1470  0.0385
 4370TIP3    H113053   7.972   4.446   0.182 -0.5187 -1.0317 -0.3348
 4370TIP3    H213054   7.882   4.539   0.261  0.9596  0.2269 -0.0659
 4371TIP3   OH213055   2.751   6.017   0.531  0.1778 -0.5468 -0.4288
 4371TIP3    H113056   2.801   6.017   0.612 -1.6881  0.9184  0.7990
 4371TIP3    H213057   2.698   5.937   0.536 -1.4503  0.5624  0.8445
 4372TIP3   OH213058   2.618   3.405   4.099 -0.6752  0.0647 -0.0929
 4372TIP3    H113059   2.530   3.378   4.125 -0.2318 -1.0172  0.3212
 4372TIP3    H213060   2.636   3.355   4.019 -1.2439  1.8742 -1.4148
 4373TIP3   OH213061   3.723   6.892   3.955  0.1946  0.3852 -0.4312
 4373TIP3    H113062   3.738   6.802   3.927  3.3702  0.6720 -0.0132
 4373TIP3    H213063   3.733   6.944   3.875 -1.8075  0.4512 -0.7082
 4374TIP3   OH213064   4.730   0.620   3.041 -0.3996  0.0809  0.2824
 4374TIP3    H113065   4.774   0.699   3.010  1.8535 -1.1576  0.0477
 4374TIP3    H213066   4.745   0.619   3.135 -0.8498  0.1925  0.3532
 4375TIP3   OH213067   3.034   6.897   2.052 -0.1773 -0.2986 -0.5073
 4375TIP3    H113068   2.994   6.977   2.018  0.5368 -0.4358 -1.7020
 4375TIP3    H213069   3.057   6.919   2.142 -0.7217  0.5686 -0.5614
 4376TIP3   OH213070   1.601   7.157   0.645  0.0251  0.9931  0.0410
 4376TIP3    H113071   1.670   7.216   0.616  0.8182 -0.6207 -1.6004
 4376TIP3    H213072   1.531   7.169   0.581  0.3630 -0.0972 -0.5573
 4377TIP3   OH213073   7.486   3.388   3.737 -0.5628 -0.2248  0.2354
 4377TIP3    H113074   7.453   3.339   3.662  0.7630 -0.0762 -0.4799
 4377TIP3    H213075   7.569   3.345   3.759 -0.5961  0.1664  1.1824
 4378TIP3   OH213076   3.642   7.802   2.693 -0.1562 -0.2349  0.7219
 4378TIP3    H113077   3.710   7.787   2.627  0.6471  2.7439  0.7508
 4378TIP3    H213078   3.676   7.872   2.747 -2.8633  0.7211  1.3373
 4379TIP3   OH213079   7.517   1.430   0.548  0.5075  0.1836  0.0356
 4379TIP3    H113080   7.577   1.370   0.592 -2.1470 -1.8470  1.1892
 4379TIP3    H213081   7.516   1.400   0.457 -0.9175 -1.7842  0.6282
 4380TIP3   OH213082   2.106   2.861   1.344 -0.1152 -0.1733  0.0856
 4380TIP3    H113083   2.116   2.821   1.430 -1.2125 -1.5669 -0.3807
 4380TIP3    H213084   2.192   2.853   1.303  0.9177  2.1404  1.6686
 4381TIP3   OH213085   0.431   2.981   2.689  0.1030  0.2555 -0.0048
 4381TIP3    H113086   0.469   2.911   2.636 -1.5014  0.3018 -1.2998
 4381TIP3    H213087   0.382   2.935   2.757 -0.6752  0.0988 -0.6551
 4382TIP3   OH213088   5.532   4.284   3.898 -0.4000 -0.0200  0.6471
 4382TIP3    H113089   5.489   4.355   3.945 -1.0356  1.2805 -1.7229
 4382TIP3    H213090   5.467   4.215   3.891 -1.5311  1.1426 -1.1718
 4383TIP3   OH213091   1.278   7.381   2.559  0.3437 -0.0214 -0.1719
 4383TIP3    H113092   1.194   7.420   2.585  0.6443  0.3723  0.1977
 4383TIP3    H213093   1.270   7.371   2.464  0.6827  1.9550 -0.4404
 4384TIP3   OH213094   3.172   5.846   3.334  0.1532  0.8632  0.2214
 4384TIP3    H113095   3.173   5.812   3.244 -1.8310  2.9938 -0.7111
 4384TIP3    H213096   3.120   5.783   3.383  0.2964  0.2537 -0.3962
 4385TIP3   OH213097   2.014   1.271   3.312  0.1599  0.3737  0.0542
 4385TIP3    H113098   1.995   1.196   3.255 -1.5224  1.0859 -0.3847
 4385TIP3    H213099   2.103   1.255   3.343 -0.5132 -2.4121  0.8839
 4386TIP3   OH213100   4.203   4.284   2.488 -0.1625  0.5311 -0.4993
 4386TIP3    H113101   4.185   4.194   2.459  1.3471  0.2823 -0.7352
 4386TIP3    H213102   4.238   4.327   2.411 -1.3228  1.4995 -0.5216
 4387TIP3   OH213103   6.967   0.144   6.312 -0.2901 -0.6971  0.0761
 4387TIP3    H113104   6.923   0.214   6.360  1.0830  2.7933 -3.2316
 4387TIP3    H213105   6.906   0.122   6.241  1.4370  1.3550 -2.2017
 4388TIP3   OH213106   7.763   2.028   6.270  0.2022 -0.1741 -0.3389
 4388TIP3    H113107   7.789   2.021   6.362  0.7832 -0.7990 -0.5432
 4388TIP3    H213108   7.794   1.946   6.230 -1.5963 -0.7077 -0.7231
 4389TIP3   OH213109   4.993   2.971   0.297 -0.2185 -0.0695  0.8092
 4389TIP3    H113110   4.952   2.943   0.379 -1.2914  0.9955  0.6624
 4389TIP3    H213111   4.919   2.989   0.239  0.5339 -0.8214 -0.4067
 4390TIP3   OH213112   6.427   5.966   4.744  0.3195  0.4398  0.1280
 4390TIP3    H113113   6.448   6.057   4.725 -0.1276  0.7469  1.0509
 4390TIP3    H213114   6.347   5.970   4.797  0.6467 -0.4461  0.7103
 4391TIP3   OH213115   0.350   3.158   4.546  0.6303 -0.0680 -1.2606
 4391TIP3    H113116   0.262   3.163   4.509 -0.2249  2.2101  0.8393
 4391TIP3    H213117   0.398   3.228   4.504  1.0899 -0.5076 -1.4797
 4392TIP3   OH213118   6.101   2.268   2.152 -0.1930  0.2576  0.5928
 4392TIP3    H113119   6.066   2.190   2.110 -0.3368 -0.4006  1.8833
 4392TIP3    H213120   6.070   2.263   2.242  3.0334 -0.2917  1.8050
 4393TIP3   OH213121   6.402   7.511   1.072 -0.2104  0.5087  0.2992
 4393TIP3    H113122   6.482   7.564   1.080 -0.1966  0.4305  0.7017
 4393TIP3    H213123   6.429   7.422   1.094 -0.0496  0.1516 -1.2025
 4394TIP3   OH213124   1.352   6.350   2.270 -0.4537 -0.1261 -0.0315
 4394TIP3    H113125   1.315   6.272   2.312 -1.1958 -0.2178 -0.8283
 4394TIP3    H213126   1.277   6.393   2.229  0.2192  0.0306 -1.1464
 4395TIP3   OH213127   3.940   3.315   6.013  0.3201  0.0094  1.0053
 4395TIP3    H113128   3.870   3.341   6.072  0.2180  0.3684  0.7259
 4395TIP3    H213129   3.905   3.239   5.967  0.0821  0.2436  0.8021
 4396TIP3   OH213130   2.923   2.869   6.084  0.0495 -0.2298  0.0569
 4396TIP3    H113131   2.920   2.892   5.991 -0.3703 -1.5585 -0.2869
 4396TIP3    H213132   3.016   2.854   6.102  0.0837 -0.4239 -0.2721
 4397TIP3   OH213133   0.655   7.478   6.436 -0.2180  0.2007  0.4514
 4397TIP3    H113134   0.652   7.384   6.418  0.2201  0.2553  0.0760
 4397TIP3    H213135   0.566   7.509   6.417  0.2495  0.2888 -1.9191
 4398TIP3   OH213136   6.360   3.607   0.302  0.2530  0.0838 -0.2852
 4398TIP3    H113137   6.387   3.684   0.253 -2.3414  1.3359  0.0578
 4398TIP3    H213138   6.318   3.642   0.381 -1.6425 -1.5820 -0.4573
 4399TIP3   OH213139   7.445   1.410   3.747 -0.8178  1.1927  0.6577
 4399TIP3    H113140   7.389   1.347   3.792  0.5394 -0.3066  0.3833
 4399TIP3    H213141   7.437   1.491   3.797 -2.8337  0.8984  0.8614
 4400TIP3   OH213142   1.666   2.786   4.787 -0.4140 -0.3087  0.2181
 4400TIP3    H113143   1.634   2.767   4.876  0.4135 -1.4547  0.2959
 4400TIP3    H213144   1.592   2.766   4.730 -0.8243  0.0475  0.6220
 4401TIP3   OH213145   3.360   0.738   5.701 -0.3647 -0.0910 -0.0931
 4401TIP3    H113146   3.315   0.712   5.621  3.4460 -0.5302 -2.3728
 4401TIP3    H213147   3.397   0.824   5.679  0.6561 -0.1691  1.2500
 4402TIP3   OH213148   1.818   4.876   6.183  0.0563  0.8773  0.4265
 4402TIP3    H113149   1.732   4.898   6.216 -0.5236  0.5494 -0.8028
 4402TIP3    H213150   1.841   4.794   6.228 -0.1736  1.0806  0.9152
 4403TIP3   OH213151   6.393   6.812   0.040 -0.2050 -0.0910  0.5450
 4403TIP3    H113152   6.363   6.782  -0.045 -0.4661 -0.7541  0.8614
 4403TIP3    H213153   6.324   6.871   0.071 -0.4800 -0.4466  0.6217
 4404TIP3   OH213154   3.684   2.340   6.679 -0.1960  0.2692 -0.2193
 4404TIP3    H113155   3.640   2.281   6.740 -1.1168  1.2343  0.0739
 4404TIP3    H213156   3.757   2.288   6.644 -1.4037 -1.3008 -0.5361
 4405TIP3   OH213157   8.089   6.435   2.063 -0.2272  0.3410  0.6166
 4405TIP3    H113158   8.156   6.430   2.131  0.7367  0.5743 -0.2806
 4405TIP3    H213159   8.101   6.521   2.023  0.3419 -0.4050 -0.9176
 4406TIP3   OH213160   4.532   5.240   5.395 -0.2863  0.8487  0.0785
 4406TIP3    H113161   4.447   5.197   5.390 -0.2776  0.8445 -0.0321
 4406TIP3    H213162   4.591   5.173   5.430  0.2090  0.0616 -2.1230
 4407TIP3   OH213163   1.922   2.098   0.313 -0.6601 -0.4170 -0.1851
 4407TIP3    H113164   1.997   2.050   0.277 -0.1689  0.1355  0.0800
 4407TIP3    H213165   1.861   2.104   0.240  0.4743  0.9900 -1.0888
 4408TIP3   OH213166   3.429   2.491   1.581 -0.2364  0.0892 -0.0659
 4408TIP3    H113167   3.478   2.449   1.510 -1.7002 -1.0056 -0.4832
 4408TIP3    H213168   3.337   2.488   1.552 -0.7973  0.1518  1.5982
 4409TIP3   OH213169   2.181   6.735   6.213  0.1493  0.1285 -0.4740
 4409TIP3    H113170   2.237   6.786   6.154  0.3383  2.2439  1.3788
 4409TIP3    H213171   2.221   6.746   6.299 -0.5193 -2.2441  0.2132
 4410TIP3   OH213172   1.963   1.814   4.123 -0.0419  0.2261 -0.0348
 4410TIP3    H113173   2.017   1.859   4.188  0.0630 -1.1410  0.8640
 4410TIP3    H213174   2.024   1.788   4.054  0.0435  0.7091 -0.1391
 4411TIP3   OH213175   1.353   5.818   5.044  0.5042  0.5992 -0.0615
 4411TIP3    H113176   1.360   5.723   5.040 -1.7783  0.2894  1.2519
 4411TIP3    H213177   1.401   5.843   5.122  1.3734  0.5896 -0.5797
 4412TIP3   OH213178   7.207   5.794   6.508  0.1185  0.1056 -0.3494
 4412TIP3    H113179   7.183   5.834   6.592  0.4029 -1.8816  0.7172
 4412TIP3    H213180   7.184   5.861   6.443  0.1494  1.8124  1.3038
 4413TIP3   OH213181   2.783   2.099   4.849  0.0271 -0.1525 -0.5082
 4413TIP3    H113182   2.834   2.033   4.895 -0.4697 -0.6648 -0.6691
 4413TIP3    H213183   2.724   2.134   4.916  1.4185  1.3269 -0.0248
 4414TIP3   OH213184   5.142   2.591   4.721  0.3947  0.3873  0.5018
 4414TIP3    H113185   5.120   2.598   4.814  2.4594  1.9709  0.9471
 4414TIP3    H213186   5.152   2.682   4.692 -1.1842 -0.0260 -1.5640
 4415TIP3   OH213187   7.118   0.242   0.744 -0.2289  0.7337  0.2960
 4415TIP3    H113188   7.163   0.187   0.807 -0.6568 -0.3789 -0.3452
 4415TIP3    H213189   7.181   0.311   0.723  0.1002  0.8345  1.5381
 4416TIP3   OH213190   0.147   3.609   5.539 -0.0529  0.3929  0.2768
 4416TIP3    H113191   0.227   3.557   5.530  0.4013  1.0238  0.5727
 4416TIP3    H213192   0.100   3.596   5.456  0.4720  0.2086  0.0037
 4417TIP3   OH213193   1.168   7.625   5.814  0.5323  0.0191  0.1610
 4417TIP3    H113194   1.117   7.684   5.870  0.3621  0.8522 -0.8385
 4417TIP3    H213195   1.257   7.659   5.819  0.3128  0.8147 -0.9539
 4418TIP3   OH213196   5.673   7.593   6.398  0.2197 -0.0353 -0.1752
 4418TIP3    H113197   5.735   7.570   6.467  0.1842 -1.4500 -0.5878
 4418TIP3    H213198   5.726   7.609   6.321  0.0749 -1.9445 -0.7140
 4419TIP3   OH213199   3.220   4.543   3.125  0.1119 -0.0449  0.4652
 4419TIP3    H113200   3.161   4.481   3.082  0.5552 -0.1272 -0.0442
 4419TIP3    H213201   3.208   4.625   3.076 -0.3839  0.2413  1.0583
 4420TIP3   OH213202   5.108   1.440   2.908  0.1968 -0.5967 -0.5174
 4420TIP3    H113203   5.027   1.475   2.873 -0.8240 -0.8202  1.4678
 4420TIP3    H213204   5.115   1.352   2.870 -0.1626 -0.3453 -1.1683
 4421TIP3   OH213205   5.495   5.014   3.650 -0.2900 -0.5625 -0.0441
 4421TIP3    H113206   5.555   5.089   3.644 -1.2367  0.2719  0.5774
 4421TIP3    H213207   5.463   5.002   3.561  2.0704 -2.1417 -0.7642
 4422TIP3   OH213208   6.908   5.893   1.170 -0.2783  0.0662 -0.0363
 4422TIP3    H113209   6.868   5.874   1.085 -1.9733 -0.6318  0.8728
 4422TIP3    H213210   6.992   5.934   1.148 -1.1707  0.9556 -2.0416
 4423TIP3   OH213211   2.299   1.740   1.680 -0.0490 -0.1797  0.0595
 4423TIP3    H113212   2.345   1.656   1.683  0.1885 -0.0724 -0.4325
 4423TIP3    H213213   2.280   1.753   1.587  0.5001  0.6200  0.0548
 4424TIP3   OH213214   5.625   0.985   3.755  0.0520  0.0822 -0.0391
 4424TIP3    H113215   5.689   0.916   3.776  0.6913  0.9707  1.0146
 4424TIP3    H213216   5.540   0.944   3.771  0.1903 -1.5649 -2.7251
 4425TIP3   OH213217   5.013   5.721   5.820  0.1726 -0.4079  0.4015
 4425TIP3    H113218   5.050   5.657   5.760  1.6931  0.7867 -0.0048
 4425TIP3    H213219   5.058   5.705   5.903 -0.0856 -0.4355  0.5366
 4426TIP3   OH213220   7.299   7.193   1.681 -0.4067  0.5165 -0.1624
 4426TIP3    H113221   7.341   7.126   1.627 -0.9176  0.1167 -0.0734
 4426TIP3    H213222   7.229   7.146   1.727 -2.0241  1.4824 -1.5307
 4427TIP3   OH213223   6.535   3.628   2.472  0.5492 -0.1678  0.1647
 4427TIP3    H113224   6.528   3.722   2.458 -3.9344  0.0559  2.0071
 4427TIP3    H213225   6.490   3.589   2.396 -3.2731 -0.2213  2.1831
 4428TIP3   OH213226   0.549   5.767   2.076 -0.6483  0.7617  0.0113
 4428TIP3    H113227   0.520   5.795   2.163  1.5260  2.6354  0.2115
 4428TIP3    H213228   0.578   5.677   2.089 -0.9659  0.7880  1.0642
 4429TIP3   OH213229   5.451   6.953   6.160 -0.3974 -0.1346  0.3671
 4429TIP3    H113230   5.498   6.982   6.238 -1.0653 -1.8762  1.4628
 4429TIP3    H213231   5.519   6.916   6.103  0.0277  0.7497  0.2841
 4430TIP3   OH213232   3.246   4.752   3.852  0.0038  0.5055  0.0425
 4430TIP3    H113233   3.159   4.715   3.867  0.5997 -0.6867  0.6889
 4430TIP3    H213234   3.258   4.815   3.923  0.3618 -0.6408  1.0265
 4431TIP3   OH213235   3.463   4.510   3.222  0.7547 -0.4455 -0.3669
 4431TIP3    H113236   3.369   4.505   3.201  0.5916  0.7460 -0.0207
 4431TIP3    H213237   3.506   4.465   3.150 -0.0244  0.0798 -1.1909
 4432TIP3   OH213238   1.396   1.824   2.701 -0.2548  0.3314  0.4062
 4432TIP3    H113239   1.404   1.735   2.733 -1.3824  0.1044  0.1173
 4432TIP3    H213240   1.452   1.876   2.759 -2.9862  0.1160  3.5789
 4433TIP3   OH213241   6.331   1.189   3.364  0.3014 -0.0145 -0.2972
 4433TIP3    H113242   6.280   1.135   3.304 -0.8011  1.2029 -0.4929
 4433TIP3    H213243   6.412   1.140   3.378 -0.4901 -1.5065 -0.7784
 4434TIP3   OH213244   6.873   7.815   0.994 -0.4018  0.1051 -0.1017
 4434TIP3    H113245   6.950   7.762   1.011 -0.2787 -0.2942 -1.8012
 4434TIP3    H213246   6.908   7.900   0.967 -0.5082 -0.3006 -1.5997
 4435TIP3   OH213247   7.329   5.559   2.350 -0.6394 -1.0408  0.0659
 4435TIP3    H113248   7.277   5.561   2.269 -0.2338 -0.1943 -0.1828
 4435TIP3    H213249   7.289   5.489   2.402 -1.4858 -0.9794 -0.4786
 4436TIP3   OH213250   6.399   7.448   6.362  0.5074 -0.2804  0.0222
 4436TIP3    H113251   6.347   7.526   6.346 -0.4433 -1.2657 -2.1483
 4436TIP3    H213252   6.338   7.375   6.353  1.4208 -1.3271  1.6947
 4437TIP3   OH213253   0.513   3.231   6.184 -0.3397  1.1541  0.5595
 4437TIP3    H113254   0.430   3.229   6.232 -0.6550  1.2570  0.0191
 4437TIP3    H213255   0.569   3.168   6.231 -0.1253  2.3461  1.9800
 4438TIP3   OH213256   8.001   2.990   1.426  0.0860 -0.5130 -1.0114
 4438TIP3    H113257   7.988   2.924   1.495 -0.0455  0.0090 -0.5280
 4438TIP3    H213258   7.914   3.026   1.411  0.0947 -0.7092 -1.5466
 4439TIP3   OH213259   2.587   4.218   6.241 -0.3662 -0.0781  0.0701
 4439TIP3    H113260   2.659   4.158   6.222  0.1416  0.6297 -0.3155
 4439TIP3    H213261   2.604   4.294   6.184 -1.3406  0.1588  0.0780
 4440TIP3   OH213262   1.744   4.431   6.160 -0.0889 -0.9311  0.3371
 4440TIP3    H113263   1.669   4.429   6.219  1.9363 -1.0185  3.0848
 4440TIP3    H213264   1.816   4.464   6.213  1.9701 -1.2819 -2.0321
 4441TIP3   OH213265   4.236   6.596   6.538  0.5964  0.5168  0.1801
 4441TIP3    H113266   4.177   6.604   6.613  0.7172  0.0718  0.3240
 4441TIP3    H213267   4.323   6.611   6.575  0.6980 -0.1252  0.2121
 4442TIP3   OH213268   2.648   5.947   3.964  0.6329 -0.7191 -0.1018
 4442TIP3    H113269   2.615   5.950   4.053 -0.0351  1.5539 -0.3698
 4442TIP3    H213270   2.739   5.976   3.971  0.0699  1.2390 -0.3111
 4443TIP3   OH213271   2.513   5.001   1.164 -0.3435 -0.2061  0.2479
 4443TIP3    H113272   2.495   4.965   1.076 -2.1061  2.6288 -0.6640
 4443TIP3    H213273   2.434   5.049   1.187  1.3555  1.9884  1.9064
 4444TIP3   OH213274   6.626   4.588   0.550 -0.1810 -0.1587 -0.3938
 4444TIP3    H113275   6.688   4.659   0.565 -0.7298  0.0181  1.2618
 4444TIP3    H213276   6.643   4.560   0.460 -0.2314  2.3503 -1.2832
 4445TIP3   OH213277   2.128   5.670   5.558  0.4782  0.1608 -0.1557
 4445TIP3    H113278   2.164   5.738   5.501  0.6341 -0.6043 -1.0007
 4445TIP3    H213279   2.035   5.693   5.567  1.0724  1.9876  1.8127
 4446TIP3   OH213280   7.241   1.811   2.959 -0.0626  0.2054  0.9653
 4446TIP3    H113281   7.260   1.854   2.875  0.0535 -1.6627 -0.0241
 4446TIP3    H213282   7.258   1.718   2.942 -0.1039 -0.2204  3.0633
 4447TIP3   OH213283   5.592   1.392   4.557 -0.1570 -0.2610  0.3035
 4447TIP3    H113284   5.576   1.330   4.628  0.1402 -0.5155  0.1489
 4447TIP3    H213285   5.505   1.425   4.534 -0.5697 -2.1109 -0.9606
 4448TIP3   OH213286   1.564   0.866   3.573  1.0010  0.3268  0.0010
 4448TIP3    H113287   1.514   0.910   3.504  0.3299 -0.2338  0.1173
 4448TIP3    H213288   1.642   0.833   3.528 -0.1774 -1.4085 -0.8826
 4449TIP3   OH213289   1.181   4.988   2.371 -0.1467 -0.3824  0.3715
 4449TIP3    H113290   1.176   4.906   2.421  0.1788 -0.6883 -0.0909
 4449TIP3    H213291   1.266   4.985   2.328 -0.9263 -0.7220 -1.2304
 4450TIP3   OH213292   3.855   7.193   5.184 -0.0522  0.8528 -0.2219
 4450TIP3    H113293   3.804   7.217   5.107  0.4972 -0.5857 -1.0663
 4450TIP3    H213294   3.943   7.175   5.150  0.1990  0.1956  0.7437
 4451TIP3   OH213295   5.735   4.258   3.395  0.3874 -0.0673 -0.0499
 4451TIP3    H113296   5.722   4.165   3.412  0.4393  0.0109  0.4438
 4451TIP3    H213297   5.718   4.268   3.302 -0.8258 -0.3608  0.1264
 4452TIP3   OH213298   0.177   5.020   2.779 -0.3776 -0.4952 -0.7574
 4452TIP3    H113299   0.129   5.097   2.810 -0.5745 -0.8340 -0.2004
 4452TIP3    H213300   0.227   4.992   2.855 -1.8503 -2.1084 -0.3378
 4453TIP3   OH213301   4.265   7.359   5.596 -0.6444 -0.3262  0.5164
 4453TIP3    H113302   4.192   7.344   5.536  0.1056 -0.5248 -0.3738
 4453TIP3    H213303   4.341   7.322   5.551  0.0067 -0.1469  1.4335
 4454TIP3   OH213304   2.398   5.020   4.127  0.1830  0.4757 -0.1891
 4454TIP3    H113305   2.385   5.093   4.186 -0.4438  0.2272 -0.0143
 4454TIP3    H213306   2.422   4.946   4.184 -1.1906  0.0383 -0.1498
 4455TIP3   OH213307   5.310   0.067   5.226 -0.3380  0.2369 -0.1034
 4455TIP3    H113308   5.285   0.154   5.197 -0.0995  0.1582 -0.5450
 4455TIP3    H213309   5.396   0.052   5.188  0.0989  0.2309  0.8414
 4456TIP3   OH213310   2.922   6.600   5.943 -0.3055  0.0977  0.9579
 4456TIP3    H113311   2.858   6.570   5.879 -0.5442  2.0649  0.1910
 4456TIP3    H213312   2.869   6.635   6.015 -0.4898  4.7476 -1.0235
 4457TIP3   OH213313   1.497   3.721   1.049 -0.0002  0.6314 -0.2219
 4457TIP3    H113314   1.412   3.758   1.072  1.0875  1.3153  3.2411
 4457TIP3    H213315   1.489   3.627   1.069 -0.0925  0.5981 -0.4130
 4458TIP3   OH213316   1.840   4.042   4.484  0.0506  0.4008 -0.6498
 4458TIP3    H113317   1.757   4.070   4.522 -0.6347  0.4045 -2.0621
 4458TIP3    H213318   1.904   4.055   4.553 -1.4183 -1.4340  1.1875
 4459TIP3   OH213319   2.979   5.631   0.076  0.1171  0.5968 -0.2085
 4459TIP3    H113320   2.915   5.599   0.013 -0.1060  0.1393  0.2441
 4459TIP3    H213321   3.062   5.630   0.028 -0.2392  1.4013 -0.8654
 4460TIP3   OH213322   3.497   1.029   5.017 -0.2893 -0.4725 -0.1920
 4460TIP3    H113323   3.423   0.991   4.971  0.3611 -1.5976 -0.3343
 4460TIP3    H213324   3.481   1.124   5.014 -2.1602 -0.7247  0.5708
 4461TIP3   OH213325   7.369   4.066   3.025  0.2725 -0.3972 -0.5599
 4461TIP3    H113326   7.331   3.980   3.007  0.3121 -1.0301  2.0436
 4461TIP3    H213327   7.294   4.124   3.035  0.0593 -0.9071  1.0964
 4462TIP3   OH213328   0.307   3.143   0.216  0.0609  0.6697 -0.0545
 4462TIP3    H113329   0.247   3.173   0.148  0.4944  0.0886 -0.6988
 4462TIP3    H213330   0.391   3.133   0.172  0.5038  0.9282  0.7135
 4463TIP3   OH213331   5.342   1.440   4.297 -0.0280 -0.2393 -0.3721
 4463TIP3    H113332   5.385   1.500   4.357  1.6319 -1.1847 -0.5489
 4463TIP3    H213333   5.318   1.364   4.351 -1.6547  0.3063 -0.2532
 4464TIP3   OH213334   1.773   5.375   5.351  0.6408  0.0317  0.1705
 4464TIP3    H113335   1.756   5.348   5.261  0.4422 -1.8667  0.7445
 4464TIP3    H213336   1.833   5.449   5.343 -0.2403  0.6116 -1.5410
 4465TIP3   OH213337   1.192   2.516   6.261  0.2445 -0.2353  0.0062
 4465TIP3    H113338   1.219   2.547   6.175 -0.9215  0.3430 -0.1733
 4465TIP3    H213339   1.147   2.591   6.300 -1.1138 -1.1517  0.2627
 4466TIP3   OH213340   5.805   6.999   1.290  0.0187 -0.3521 -0.0722
 4466TIP3    H113341   5.771   6.935   1.226  2.3290  0.0413 -1.8199
 4466TIP3    H213342   5.887   7.030   1.251  0.3890  1.5988  2.0855
 4467TIP3   OH213343   2.404   0.461   6.106 -0.0380 -0.2583  0.2073
 4467TIP3    H113344   2.418   0.396   6.174 -0.0589 -1.6358 -1.0586
 4467TIP3    H213345   2.345   0.526   6.146  0.6236 -0.5607  1.7482
 4468TIP3   OH213346   6.601   0.684   0.629 -0.4006  0.0851 -0.3801
 4468TIP3    H113347   6.613   0.778   0.618 -1.1492  0.0423 -1.9156
 4468TIP3    H213348   6.509   0.675   0.653 -0.3733 -0.2581 -0.4016
 4469TIP3   OH213349   8.077   0.445   0.895 -0.1514 -0.5302 -0.1784
 4469TIP3    H113350   8.172   0.451   0.905 -0.3452 -0.3091  2.1405
 4469TIP3    H213351   8.062   0.359   0.854  1.0627 -0.0789 -1.6460
 4470TIP3   OH213352   0.732   6.050   3.385  0.1308  0.3904  0.4045
 4470TIP3    H113353   0.769   6.102   3.314 -1.9424  0.0827 -1.0159
 4470TIP3    H213354   0.808   6.015   3.432  1.5972  0.5146 -1.7397
 4471TIP3   OH213355   0.835   3.216   0.886 -0.1563 -0.2556 -0.7860
 4471TIP3    H113356   0.900   3.216   0.816 -0.4646 -0.5977 -1.0750
 4471TIP3    H213357   0.868   3.281   0.949 -0.9836  1.7063 -2.2672
 4472TIP3   OH213358   6.311   0.329   4.171 -0.2049 -1.2010  0.0262
 4472TIP3    H113359   6.218   0.349   4.182 -0.0307 -0.4195  0.1803
 4472TIP3    H213360   6.338   0.381   4.095  0.2587 -0.8563  0.4160
 4473TIP3   OH213361   4.070   6.071   1.109 -0.6056  0.2827  0.5953
 4473TIP3    H113362   4.045   5.998   1.053 -0.9520 -0.1503  1.3147
 4473TIP3    H213363   4.105   6.136   1.048 -2.0691  0.3015 -0.2662
 4474TIP3   OH213364   2.468   7.213   0.593 -0.3475  0.3884 -0.1248
 4474TIP3    H113365   2.490   7.213   0.500 -0.8985 -0.5539 -0.2666
 4474TIP3    H213366   2.535   7.156   0.633 -2.2601 -2.3754 -0.5362
 4475TIP3   OH213367   5.703   1.280   6.412 -0.0707 -0.5965 -0.6877
 4475TIP3    H113368   5.671   1.360   6.370  1.7075  1.9478  2.3473
 4475TIP3    H213369   5.786   1.262   6.368  0.1848  0.0920 -0.5100
 4476TIP3   OH213370   5.798   3.088   2.322  0.6050 -0.9137 -0.7101
 4476TIP3    H113371   5.764   3.001   2.344  1.2333 -0.5048  2.4017
 4476TIP3    H213372   5.885   3.091   2.363  0.7285  1.0638 -1.0205
 4477TIP3   OH213373   1.026   4.399   3.860 -0.1917 -0.4298 -0.0602
 4477TIP3    H113374   1.084   4.462   3.817  2.0846 -1.6973  1.0074
 4477TIP3    H213375   0.964   4.453   3.910  0.8300  0.9603 -0.2474
 4478TIP3   OH213376   5.275   6.299   0.509 -0.6400  0.5366 -0.3726
 4478TIP3    H113377   5.242   6.348   0.584  1.5252  2.4596 -0.5706
 4478TIP3    H213378   5.304   6.215   0.546 -1.0493  0.8254  0.6421
 4479TIP3   OH213379   1.057   0.322   1.992  0.4204  0.5990 -0.0054
 4479TIP3    H113380   1.102   0.259   2.048 -1.5679  0.2884  1.3538
 4479TIP3    H213381   1.106   0.403   2.003  0.8779  0.1927  1.1484
 4480TIP3   OH213382   8.237   7.706   4.182  0.2431 -0.5219 -0.5276
 4480TIP3    H113383   8.171   7.650   4.142 -0.4987 -0.1454  0.1375
 4480TIP3    H213384   8.240   7.784   4.127 -0.8579  0.0464  0.1810
 4481TIP3   OH213385   4.536   6.206   5.501  0.2262 -0.1560  0.3175
 4481TIP3    H113386   4.590   6.281   5.476  0.1374  0.3590  1.5886
 4481TIP3    H213387   4.537   6.207   5.597 -2.0364 -0.1121  0.3899
 4482TIP3   OH213388   1.825   1.143   2.179 -0.1359  0.0380 -0.2619
 4482TIP3    H113389   1.847   1.202   2.251 -1.7381 -2.0292  2.1190
 4482TIP3    H213390   1.768   1.194   2.122  1.5238  1.8689 -0.3901
 4483TIP3   OH213391   7.629   1.136   4.418  0.3343 -0.6231 -0.1080
 4483TIP3    H113392   7.620   1.065   4.354  0.2631 -1.3805  0.7103
 4483TIP3    H213393   7.715   1.122   4.457 -0.4426 -1.4427  1.4038
 4484TIP3   OH213394   5.682   7.604   3.672 -0.1699 -0.0563 -0.0585
 4484TIP3    H113395   5.668   7.608   3.767 -0.8113  0.0729 -0.1511
 4484TIP3    H213396   5.604   7.647   3.635 -0.5183 -1.1857 -0.6752
 4485TIP3   OH213397   0.863   5.853   0.175  0.3292  0.4190 -0.5652
 4485TIP3    H113398   0.875   5.854   0.270 -0.5933 -0.0257 -0.4265
 4485TIP3    H213399   0.887   5.941   0.147  0.0102  0.7509  0.1616
 4486TIP3   OH213400   7.738   2.175   1.712  0.4831  0.2370  0.8675
 4486TIP3    H113401   7.810   2.232   1.740  0.2590  0.3856  1.1412
 4486TIP3    H213402   7.670   2.189   1.777  0.1965  0.1118  0.5946
 4487TIP3   OH213403   3.913   6.538   5.312 -0.1885  0.2976  0.0654
 4487TIP3    H113404   3.871   6.554   5.227  0.8201  0.8143 -0.3426
 4487TIP3    H213405   4.004   6.564   5.300 -0.6599  3.4610  2.1937
 4488TIP3   OH213406   6.887   6.833   3.067 -0.7760 -0.6958  0.4517
 4488TIP3    H113407   6.792   6.826   3.078 -0.8480 -1.1815 -0.3875
 4488TIP3    H213408   6.901   6.823   2.973  0.0033  0.7099  0.3893
 4489TIP3   OH213409   7.979   5.903   1.745 -0.2985  0.4293  0.2750
 4489TIP3    H113410   8.023   5.987   1.752  0.9900 -0.0196 -1.6480
 4489TIP3    H213411   7.989   5.878   1.653  0.3403 -2.3306  1.0055
 4490TIP3   OH213412   4.330   7.777   2.363 -0.6411 -0.5510 -0.7267
 4490TIP3    H113413   4.351   7.861   2.404  1.9496 -1.1385 -0.6878
 4490TIP3    H213414   4.240   7.759   2.391 -0.2500  0.8158  1.6961
 4491TIP3   OH213415   5.198   4.890   3.356  0.3965 -0.0460 -0.6038
 4491TIP3    H113416   5.271   4.829   3.366 -1.2824 -2.8257 -3.5120
 4491TIP3    H213417   5.236   4.976   3.373  4.0850 -1.4347 -0.9563
 4492TIP3   OH213418   0.604   7.547   4.721  0.2493 -0.5790  0.5422
 4492TIP3    H113419   0.561   7.551   4.635 -0.1316  1.3520  0.7873
 4492TIP3    H213420   0.685   7.499   4.705 -0.4706 -1.4866 -0.5883
 4493TIP3   OH213421   4.846   1.458   2.180  0.6363 -0.0686  0.2567
 4493TIP3    H113422   4.857   1.474   2.086  0.3252 -1.2998 -0.0103
 4493TIP3    H213423   4.811   1.541   2.214  3.3629  1.3678 -0.1862
 4494TIP3   OH213424   4.601   7.775   5.998 -0.5687 -0.2779 -0.0108
 4494TIP3    H113425   4.552   7.819   6.067  1.1842 -0.8783  1.7201
 4494TIP3    H213426   4.682   7.826   5.990 -0.8054 -0.1218 -1.7847
 4495TIP3   OH213427   6.414   0.226   2.837 -1.0689  0.1220  0.2715
 4495TIP3    H113428   6.362   0.178   2.901 -1.2233  0.5368  0.4615
 4495TIP3    H213429   6.349   0.264   2.778 -1.0079  0.9765  0.7449
 4496TIP3   OH213430   7.751   2.824   5.897 -0.0937 -0.0429 -0.0846
 4496TIP3    H113431   7.739   2.740   5.851 -0.2851  0.9701 -1.9926
 4496TIP3    H213432   7.681   2.880   5.863  0.8523  1.2977  0.0968
 4497TIP3   OH213433   0.909   2.438   5.390 -0.4700 -0.2269  0.4034
 4497TIP3    H113434   0.926   2.346   5.408 -1.5928 -0.2814  1.2068
 4497TIP3    H213435   0.975   2.461   5.324 -0.8815 -1.8886 -0.6549
 4498TIP3   OH213436   4.491   3.614   2.039  0.0059  0.5895  0.4153
 4498TIP3    H113437   4.532   3.614   1.952 -0.4856  1.9420  0.1609
 4498TIP3    H213438   4.564   3.628   2.100  0.3276 -0.1796  0.2194
 4499TIP3   OH213439   4.632   2.280   4.651 -0.1677 -0.3516  0.4982
 4499TIP3    H113440   4.658   2.199   4.606 -0.9854 -0.9214  1.0268
 4499TIP3    H213441   4.616   2.342   4.580 -1.0783 -1.1353 -0.0211
 4500TIP3   OH213442   2.176   5.515   2.480 -0.5393  0.1256  0.3117
 4500TIP3    H113443   2.248   5.460   2.512 -0.9750 -0.5973  0.0787
 4500TIP3    H213444   2.216   5.600   2.465  0.2748 -0.2674  0.1822
 4501TIP3   OH213445   0.516   1.382   5.746 -0.3129  0.2814  0.2266
 4501TIP3    H113446   0.533   1.292   5.774  1.0016  0.5559  0.3709
 4501TIP3    H213447   0.527   1.380   5.651 -0.6490  0.2221  0.1868
 4502TIP3   OH213448   6.007   0.645   3.053  0.3989 -0.0186  0.5454
 4502TIP3    H113449   6.057   0.723   3.030 -1.6328  1.1330 -0.2078
 4502TIP3    H213450   6.021   0.585   2.980 -0.4869  0.8944 -0.4100
 4503TIP3   OH213451   6.121   6.518   2.791  0.1622  0.1798  0.0952
 4503TIP3    H113452   6.164   6.547   2.872 -1.0212 -0.6421  1.0626
 4503TIP3    H213453   6.149   6.581   2.725  2.0650  0.2344  0.8851
 4504TIP3   OH213454   1.255   6.579   0.640  0.5187  0.1132 -0.1291
 4504TIP3    H113455   1.247   6.669   0.609  1.0429  0.2614  0.1568
 4504TIP3    H213456   1.262   6.526   0.561 -0.1231  0.2842 -0.3095
 4505TIP3   OH213457   1.183   7.647   5.156 -0.4770 -0.1835 -0.0330
 4505TIP3    H113458   1.240   7.681   5.225  0.1329 -0.7603 -0.2468
 4505TIP3    H213459   1.241   7.599   5.098 -0.9787  0.2723 -0.9483
 4506TIP3   OH213460   4.898   0.696   1.065 -0.3194 -0.0823  0.2224
 4506TIP3    H113461   4.822   0.700   1.123 -0.6642 -2.5978  0.0558
 4506TIP3    H213462   4.948   0.620   1.095  1.2120  0.4748 -0.7848
 4507TIP3   OH213463   7.574   6.345   2.427 -0.1985  0.5670 -0.5510
 4507TIP3    H113464   7.591   6.251   2.428  0.0622  0.6131 -0.4342
 4507TIP3    H213465   7.551   6.366   2.518  1.8169  0.9742 -0.0746
 4508TIP3   OH213466   6.663   3.011   3.306  0.8591 -0.5403 -0.2326
 4508TIP3    H113467   6.657   2.917   3.287  0.5059 -0.0755 -2.8103
 4508TIP3    H213468   6.573   3.039   3.316  0.9949 -0.5614  1.3205
 4509TIP3   OH213469   1.287   5.418   5.486 -0.5121  0.2067 -0.2292
 4509TIP3    H113470   1.354   5.484   5.469  0.0260 -0.5111 -0.9514
 4509TIP3    H213471   1.335   5.336   5.493 -0.9640  0.1149  2.6374
 4510TIP3   OH213472   7.591   6.700   0.044 -0.1252  0.0174 -0.2201
 4510TIP3    H113473   7.629   6.669   0.126 -2.4527  0.3821  1.0720
 4510TIP3    H213474   7.583   6.621  -0.010  1.4816 -0.2099 -0.1764
 4511TIP3   OH213475   5.796   1.870   3.173  0.4309  0.3701 -0.4876
 4511TIP3    H113476   5.849   1.939   3.133  1.9962  0.1496  1.1110
 4511TIP3    H213477   5.843   1.846   3.253 -2.1648  0.2936  1.1488
 4512TIP3   OH213478   2.954   1.732   0.849 -0.2845 -0.2724  0.3470
 4512TIP3    H113479   2.918   1.659   0.800 -1.2292  0.0396  0.5665
 4512TIP3    H213480   2.965   1.698   0.938  0.2863 -0.4663  0.2069
 4513TIP3   OH213481   7.564   4.714   3.431 -0.0360  0.4290 -0.8026
 4513TIP3    H113482   7.588   4.627   3.460  0.4554  1.5996  2.8063
 4513TIP3    H213483   7.622   4.732   3.357  1.1379 -1.5558 -0.4215
 4514TIP3   OH213484   2.675   5.718   5.109  0.6754  0.7789  0.7450
 4514TIP3    H113485   2.698   5.776   5.036 -2.1077 -0.2769 -1.1266
 4514TIP3    H213486   2.630   5.776   5.171 -1.4110  0.8740 -0.7594
 4515TIP3   OH213487   4.607   7.393   0.306 -0.4388 -0.3013  0.4395
 4515TIP3    H113488   4.584   7.485   0.297  0.5051 -0.0928  0.0769
 4515TIP3    H213489   4.584   7.354   0.222  2.4045  0.3424 -0.7380
 4516TIP3   OH213490   0.609   7.846   0.487  0.2207 -0.2096  0.2484
 4516TIP3    H113491   0.663   7.829   0.564  0.8049  0.0751 -0.0918
 4516TIP3    H213492   0.535   7.786   0.496  0.1015  0.0633  1.2071
 4517TIP3   OH213493   4.860   7.714   0.480 -0.6162  0.1335  0.2554
 4517TIP3    H113494   4.858   7.619   0.469 -0.3055  0.2961 -1.4889
 4517TIP3    H213495   4.947   7.740   0.451 -0.8636  1.0009  0.2629
 4518TIP3   OH213496   4.119   3.994   5.848  0.1883 -0.1548 -0.2085
 4518TIP3    H113497   4.208   3.979   5.816  0.3847  1.3866 -0.4251
 4518TIP3    H213498   4.128   4.064   5.913 -0.7871 -0.4020  0.2182
 4519TIP3   OH213499   5.738   0.732   6.060 -0.7674 -0.6867  0.2747
 4519TIP3    H113500   5.753   0.821   6.092 -0.0094 -1.1587  1.2991
 4519TIP3    H213501   5.773   0.732   5.971 -0.3425 -0.0876  0.4358
 4520TIP3   OH213502   4.883   7.052   6.556 -0.2465 -0.0078  0.2901
 4520TIP3    H113503   4.910   7.135   6.597  1.5104 -0.3952  0.0137
 4520TIP3    H213504   4.876   6.990   6.629  1.5820 -0.3696  0.2091
 4521TIP3   OH213505   3.604   2.334   5.997  0.2092 -0.1628 -0.2325
 4521TIP3    H113506   3.676   2.348   5.937  0.1275 -1.8531 -0.7837
 4521TIP3    H213507   3.598   2.415   6.048  0.4110  1.2380 -2.3339
 4522TIP3   OH213508   3.446   3.049   2.728 -0.1321 -0.0599  0.5499
 4522TIP3    H113509   3.401   2.975   2.688 -1.5764  0.5861  0.9410
 4522TIP3    H213510   3.398   3.067   2.809  2.3561 -0.9640  2.3882
 4523TIP3   OH213511   5.298   4.326   0.631  0.5374 -0.2719  0.3113
 4523TIP3    H113512   5.332   4.242   0.598 -1.6486 -0.7167 -1.0788
 4523TIP3    H213513   5.364   4.390   0.605  1.6428 -1.3998  0.2255
 4524TIP3   OH213514   4.365   2.670   0.584  0.3301 -0.7809 -0.0914
 4524TIP3    H113515   4.395   2.653   0.673 -0.5544  0.4342  0.4722
 4524TIP3    H213516   4.301   2.601   0.567  2.3555 -2.5897 -0.8124
 4525TIP3   OH213517   7.692   5.429   1.851  0.4082  0.0506  0.5640
 4525TIP3    H113518   7.614   5.455   1.900  1.7255  2.9096  1.3834
 4525TIP3    H213519   7.685   5.476   1.768  0.6928 -0.6419  0.1442
 4526TIP3   OH213520   4.743   7.050   3.034  0.0180  0.4274  0.1859
 4526TIP3    H113521   4.789   7.080   2.956 -1.2314  0.6433 -0.4921
 4526TIP3    H213522   4.659   7.018   3.002 -0.1835 -0.2912  1.3486
 4527TIP3   OH213523   5.268   4.236   6.130 -0.3789 -0.0459  0.0032
 4527TIP3    H113524   5.244   4.163   6.187 -0.0401  1.1024  1.6983
 4527TIP3    H213525   5.364   4.230   6.122 -0.3674  0.1023  0.0132
 4528TIP3   OH213526   2.730   3.448   0.564  0.3981  0.4401  0.8201
 4528TIP3    H113527   2.704   3.440   0.655  0.0386 -1.1285  0.6159
 4528TIP3    H213528   2.809   3.395   0.556 -0.3113 -0.5390 -0.0301
 4529TIP3   OH213529   1.695   2.651   1.492 -0.2313 -0.0006  0.1144
 4529TIP3    H113530   1.758   2.644   1.421 -0.8166 -0.1441 -0.3969
 4529TIP3    H213531   1.613   2.619   1.455 -1.6507  3.8027 -0.4805
 4530TIP3   OH213532   3.147   6.274   1.259  0.4099  0.4329 -0.0760
 4530TIP3    H113533   3.197   6.263   1.340  3.5993  1.0823 -1.7871
 4530TIP3    H213534   3.113   6.186   1.239 -2.2155  0.6185  2.8642
 4531TIP3   OH213535   6.526   6.764   6.034 -0.5885 -0.0703 -0.1115
 4531TIP3    H113536   6.612   6.804   6.023 -0.6824  0.0444 -0.4650
 4531TIP3    H213537   6.514   6.757   6.129 -1.7378  3.3734  0.1521
 4532TIP3   OH213538   7.685   6.533   3.436 -0.0937 -0.1838 -0.7517
 4532TIP3    H113539   7.780   6.545   3.426 -0.1091  0.5288 -0.1583
 4532TIP3    H213540   7.675   6.450   3.481  0.2196 -0.5518 -1.3485
 4533TIP3   OH213541   2.358   0.443   1.108  0.2347 -0.1959  0.6541
 4533TIP3    H113542   2.326   0.518   1.059  2.1238  0.0625 -0.2554
 4533TIP3    H213543   2.349   0.469   1.200  0.2077  0.8396  0.3717
 4534TIP3   OH213544   1.317   0.571   0.176 -0.0579  0.0662 -0.3296
 4534TIP3    H113545   1.256   0.641   0.198 -0.3982  0.6737 -2.8719
 4534TIP3    H213546   1.378   0.611   0.114  1.8183 -1.0365  0.7138
 4535TIP3   OH213547   3.804   3.235   5.737 -0.2977 -0.1869  0.1675
 4535TIP3    H113548   3.766   3.312   5.778 -0.5280 -0.1412 -0.1282
 4535TIP3    H213549   3.779   3.162   5.794 -0.0544 -0.0415  0.4633
 4536TIP3   OH213550   6.218   5.797   4.181  0.4835  0.0331 -0.5347
 4536TIP3    H113551   6.138   5.750   4.158  1.1020 -0.5909 -1.4774
 4536TIP3    H213552   6.285   5.729   4.184  0.7809  0.3659  1.4318
 4537TIP3   OH213553   5.856   7.643   6.187 -0.3855 -0.0160 -0.7377
 4537TIP3    H113554   5.924   7.599   6.137  0.9430 -1.4193  2.0641
 4537TIP3    H213555   5.904   7.693   6.253 -2.0161 -0.7825  1.1216
 4538TIP3   OH213556   5.749   5.189   6.468  0.1004  0.6157 -0.1317
 4538TIP3    H113557   5.727   5.115   6.411 -0.7903 -0.2449  1.2690
 4538TIP3    H213558   5.748   5.152   6.556 -0.9280  2.4342  0.6721
 4539TIP3   OH213559   2.547   0.606   5.666  0.5814  0.0362 -0.3274
 4539TIP3    H113560   2.642   0.605   5.678  0.4849  1.5778  0.8116
 4539TIP3    H213561   2.511   0.613   5.755 -0.5650  0.4076 -0.7936
 4540TIP3   OH213562   4.433   3.703   2.375 -0.0710 -0.0816 -0.0115
 4540TIP3    H113563   4.341   3.729   2.377 -0.3031 -0.8982  1.4962
 4540TIP3    H213564   4.472   3.756   2.306 -1.5599  0.6682 -0.3008
 4541TIP3   OH213565   3.074   7.403   1.062 -0.0382 -0.5604 -0.4118
 4541TIP3    H113566   3.162   7.366   1.056 -0.2030 -0.9149 -0.7486
 4541TIP3    H213567   3.016   7.327   1.068 -0.4154 -0.3911 -1.5501
 4542TIP3   OH213568   3.441   7.005   3.721 -0.2955  0.8936  0.3706
 4542TIP3    H113569   3.357   7.046   3.701 -0.2226  0.8325 -0.0793
 4542TIP3    H213570   3.473   6.974   3.636 -0.4115 -0.2112  0.7158
 4543TIP3   OH213571   1.672   6.794   3.635 -0.2313  0.5718  0.1160
 4543TIP3    H113572   1.636   6.716   3.678  1.8416 -1.2025 -1.1824
 4543TIP3    H213573   1.748   6.817   3.689 -1.4374  2.4543  1.1242
 4544TIP3   OH213574   2.731   5.424   4.309  0.0538 -0.0022 -0.0029
 4544TIP3    H113575   2.807   5.393   4.259  0.6090  1.2167  0.0296
 4544TIP3    H213576   2.661   5.428   4.244  0.1692 -0.5870 -0.1704
 4545TIP3   OH213577   8.059   1.543   5.603 -0.4106 -0.3695 -0.3846
 4545TIP3    H113578   7.994   1.476   5.580  0.4043 -2.3088  2.4144
 4545TIP3    H213579   8.142   1.509   5.568 -0.1653 -0.3372  0.1492
 4546TIP3   OH213580   4.353   4.519   0.737  0.2341 -0.1332  0.2609
 4546TIP3    H113581   4.418   4.578   0.700  0.3460 -1.2882 -1.4825
 4546TIP3    H213582   4.270   4.567   0.728  0.2701 -0.3157 -1.4394
 4547TIP3   OH213583   1.012   2.561   6.668 -0.2508 -0.0155 -0.1688
 4547TIP3    H113584   0.965   2.569   6.752  0.5823  0.7622  0.2407
 4547TIP3    H213585   0.944   2.574   6.602 -0.8396 -0.1486  0.3941
 4548TIP3   OH213586   1.750   3.297   1.941  0.2268 -0.1285 -0.3960
 4548TIP3    H113587   1.834   3.285   1.985 -0.6412  0.9821  1.6967
 4548TIP3    H213588   1.694   3.226   1.975 -0.1708  0.1386 -0.4821
 4549TIP3   OH213589   6.523   2.059   0.071  0.1187  0.0266 -0.6562
 4549TIP3    H113590   6.479   2.131   0.025 -3.1017 -1.5910 -0.4392
 4549TIP3    H213591   6.601   2.040   0.018 -0.3159  1.9994 -2.1228
 4550TIP3   OH213592   4.054   1.710   1.938 -0.1079  0.0770  0.3694
 4550TIP3    H113593   4.092   1.756   2.013  1.1988 -1.1032  0.4618
 4550TIP3    H213594   4.106   1.738   1.863 -1.2760  1.0832 -0.1180
 4551TIP3   OH213595   2.407   6.704   3.965 -0.1977 -0.0648 -0.3664
 4551TIP3    H113596   2.480   6.647   3.941  0.2897  0.6827 -0.6859
 4551TIP3    H213597   2.389   6.682   4.056  1.0094  0.3634 -0.0042
 4552TIP3   OH213598   5.854   6.647   1.593 -0.3517  0.4416  0.2684
 4552TIP3    H113599   5.931   6.643   1.649  1.4005  2.0818 -1.8582
 4552TIP3    H213600   5.787   6.691   1.647  2.2041  4.9222  0.3162
 4553TIP3   OH213601   3.783   2.778   1.296  0.2043  0.6725  0.1703
 4553TIP3    H113602   3.813   2.868   1.282  2.0783  0.3241  1.6658
 4553TIP3    H213603   3.692   2.788   1.325  0.9899  2.2954  2.3718
 4554TIP3   OH213604   1.846   4.914   3.260 -0.1142  0.5587 -0.9057
 4554TIP3    H113605   1.900   4.917   3.339  0.4763 -1.2497 -1.1909
 4554TIP3    H213606   1.864   4.996   3.215 -0.9226  1.9219  1.0924
 4555TIP3   OH213607   5.152   3.482   6.251  0.2279 -0.1421  0.7182
 4555TIP3    H113608   5.094   3.415   6.214 -1.0561  1.3396 -0.0512
 4555TIP3    H213609   5.236   3.467   6.207 -0.3859 -0.4662 -0.3851
 4556TIP3   OH213610   1.034   5.035   4.411 -0.3901  0.2175 -0.6830
 4556TIP3    H113611   0.938   5.025   4.412 -0.3329 -0.2953 -0.1317
 4556TIP3    H213612   1.051   5.102   4.478 -0.3928  0.6709 -1.1234
 4557TIP3   OH213613   4.948   4.105   6.694  0.3436 -0.2171 -0.1142
 4557TIP3    H113614   4.971   4.014   6.714  0.9907 -0.3404 -1.3008
 4557TIP3    H213615   5.022   4.138   6.642  1.1050  1.6754  2.0181
 4558TIP3   OH213616   6.603   6.808   4.587 -0.2224  0.2476  0.1125
 4558TIP3    H113617   6.683   6.799   4.639 -1.2595 -2.3868  1.4306
 4558TIP3    H213618   6.533   6.776   4.643 -1.8733  0.2040 -1.8346
 4559TIP3   OH213619   4.983   6.517   3.534 -0.2139 -0.6981  0.0486
 4559TIP3    H113620   5.023   6.482   3.454  0.0502  2.0593 -1.1157
 4559TIP3    H213621   4.889   6.502   3.522 -0.1724 -0.3655 -0.7571
 4560TIP3   OH213622   1.948   3.872   4.940  0.1514  0.0563 -0.3354
 4560TIP3    H113623   1.857   3.900   4.951  0.7851  1.5288  2.1143
 4560TIP3    H213624   1.965   3.814   5.014  2.1112  2.6724  1.4577
 4561TIP3   OH213625   6.547   1.214   2.942  0.0127 -0.7935 -0.4092
 4561TIP3    H113626   6.500   1.261   3.011  1.8143 -1.6505  1.5416
 4561TIP3    H213627   6.500   1.235   2.862 -1.1588  1.7082  0.8138
 4562TIP3   OH213628   3.404   7.395   2.059  0.8179  0.0676  0.1349
 4562TIP3    H113629   3.400   7.464   1.993 -2.5749 -0.7873 -0.7168
 4562TIP3    H213630   3.427   7.441   2.140  0.6590  1.8405 -0.7684
 4563TIP3   OH213631   1.028   4.651   4.870  0.1877  0.2025  0.3962
 4563TIP3    H113632   0.985   4.578   4.914 -0.0117  0.9542  1.4997
 4563TIP3    H213633   1.109   4.615   4.836  0.5859 -0.3069  1.8323
 4564TIP3   OH213634   7.838   2.278   3.247 -0.3482  0.3543  0.1665
 4564TIP3    H113635   7.911   2.217   3.254 -1.7815 -1.3466  1.3687
 4564TIP3    H213636   7.775   2.234   3.190 -1.6684  0.3691  1.5274
 4565TIP3   OH213637   0.603   4.075   1.618  0.1785 -0.4033  0.2466
 4565TIP3    H113638   0.636   3.986   1.603 -1.5258 -1.1693  0.8819
 4565TIP3    H213639   0.521   4.079   1.569  0.0414  0.7174  0.5359
 4566TIP3   OH213640   4.523   1.434   2.344  0.1958 -0.1749  0.2351
 4566TIP3    H113641   4.581   1.485   2.288 -1.5580  0.6276 -0.9612
 4566TIP3    H213642   4.555   1.344   2.338  1.3772  0.2635 -0.2570
 4567TIP3   OH213643   0.178   5.654   2.405 -0.5999 -0.0470  0.7035
 4567TIP3    H113644   0.117   5.682   2.472 -1.4062 -2.8335  1.2744
 4567TIP3    H213645   0.251   5.614   2.453  0.0480  0.1936 -0.0446
 4568TIP3   OH213646   4.832   0.329   2.132 -0.1307 -0.3312  0.6660
 4568TIP3    H113647   4.920   0.363   2.111 -0.6449 -0.1238 -1.3669
 4568TIP3    H213648   4.844   0.235   2.139 -0.3144 -0.8428 -3.5987
 4569TIP3   OH213649   7.225   1.907   0.874  0.0410  0.0142 -0.2851
 4569TIP3    H113650   7.235   1.990   0.827 -0.9461  0.8349  0.9008
 4569TIP3    H213651   7.285   1.847   0.828  0.4382  1.2368 -1.4530
 4570TIP3   OH213652   2.324   4.215   6.367 -0.0405 -0.7085 -0.1890
 4570TIP3    H113653   2.312   4.122   6.348 -0.0031 -0.3414 -2.2530
 4570TIP3    H213654   2.406   4.238   6.323 -0.8884  0.6332 -1.1742
 4571TIP3   OH213655   0.848   0.209   5.105  0.3986  0.5991 -0.1832
 4571TIP3    H113656   0.851   0.296   5.143  0.9495  0.9916 -1.0890
 4571TIP3    H213657   0.851   0.223   5.010  0.3221 -0.3919 -0.3516
 4572TIP3   OH213658   3.649   7.536   1.532  0.0113  0.0098  0.2434
 4572TIP3    H113659   3.703   7.479   1.587  0.0746  1.0133  1.2602
 4572TIP3    H213660   3.680   7.624   1.552 -0.8409  0.4761 -0.4593
 4573TIP3   OH213661   2.393   7.704   0.180  0.1128  0.1469  0.1962
 4573TIP3    H113662   2.318   7.650   0.158 -0.5480  0.4261  1.6462
 4573TIP3    H213663   2.441   7.653   0.245  0.5745  0.4559  0.1053
 4574TIP3   OH213664   5.731   2.760   4.342  0.8086 -0.4800 -0.1717
 4574TIP3    H113665   5.739   2.822   4.415  0.1798 -1.0415  0.3804
 4574TIP3    H213666   5.813   2.710   4.345  1.7479  0.8981 -1.1927
 4575TIP3   OH213667   7.347   2.996   1.868  0.1652 -0.2305  0.4539
 4575TIP3    H113668   7.293   3.075   1.861 -0.5467 -0.6864  0.7560
 4575TIP3    H213669   7.284   2.925   1.883  0.6327 -1.1144 -1.5019
 4576TIP3   OH213670   5.541   0.154   0.714  0.4976 -0.8140  0.3196
 4576TIP3    H113671   5.535   0.059   0.700 -1.2110 -0.5015 -1.5367
 4576TIP3    H213672   5.619   0.180   0.664  1.0552 -1.2399  0.9525
 4577TIP3   OH213673   6.225   6.857   3.765  0.4828 -0.3359  0.7613
 4577TIP3    H113674   6.137   6.823   3.753  0.4072  0.2971 -0.7660
 4577TIP3    H213675   6.217   6.951   3.752  1.4016 -0.2888  0.4119
 4578TIP3   OH213676   0.195   3.529   4.669 -0.2310  0.0678 -0.3120
 4578TIP3    H113677   0.196   3.437   4.696 -1.3931  0.2485  0.3919
 4578TIP3    H213678   0.130   3.533   4.600 -1.9342  0.7587  1.2534
 4579TIP3   OH213679   6.847   2.325   1.646  0.1030 -0.2404 -0.1306
 4579TIP3    H113680   6.827   2.416   1.668  1.3037  0.4328 -1.5966
 4579TIP3    H213681   6.767   2.291   1.607 -0.3437  0.1865  0.3952
 4580TIP3   OH213682   6.085   7.791   3.178 -0.5434 -0.0878 -0.0575
 4580TIP3    H113683   6.103   7.807   3.270 -2.2137  0.1961  0.2481
 4580TIP3    H213684   5.994   7.818   3.166 -0.2902  0.1024 -1.8449
 4581TIP3   OH213685   1.001   4.440   6.683 -0.0207 -0.0864  0.1147
 4581TIP3    H113686   0.919   4.446   6.635  0.0161 -0.2553  0.0271
 4581TIP3    H213687   0.977   4.402   6.768  0.0321 -0.5991 -0.0933
 4582TIP3   OH213688   7.993   0.003   4.698 -0.0853  0.2080  0.0008
 4582TIP3    H113689   8.077  -0.038   4.682 -1.2553 -1.4220 -2.6267
 4582TIP3    H213690   7.982   0.065   4.626 -0.8729  0.8554  0.6557
 4583TIP3   OH213691   7.991   6.863   0.857  0.2198 -0.1855 -0.1775
 4583TIP3    H113692   7.943   6.946   0.858 -1.8674 -1.2810  2.0622
 4583TIP3    H213693   8.081   6.886   0.880 -0.3657  1.4163  0.6064
 4584TIP3   OH213694   6.805   6.377   2.346 -0.2923 -0.0101  0.2302
 4584TIP3    H113695   6.888   6.345   2.312 -0.8771 -0.3559 -0.9274
 4584TIP3    H213696   6.739   6.323   2.303 -1.0874 -0.4745  1.9361
 4585TIP3   OH213697   6.151   4.304   1.097  0.7606  0.7867 -0.3211
 4585TIP3    H113698   6.131   4.216   1.066  0.9379  0.4881  0.3918
 4585TIP3    H213699   6.066   4.347   1.105  0.6788  0.7053 -0.7394
 4586TIP3   OH213700   1.900   7.193   1.164  0.1418 -0.4559  0.1944
 4586TIP3    H113701   1.903   7.186   1.069  1.0323  0.4882  0.1309
 4586TIP3    H213702   1.957   7.122   1.195  0.3053 -0.4154 -0.0072
 4587TIP3   OH213703   4.502   6.805   0.283 -0.1504 -0.2689 -0.7017
 4587TIP3    H113704   4.482   6.872   0.218 -2.9865  0.1508  0.4810
 4587TIP3    H213705   4.592   6.778   0.262  0.6789  2.9764 -2.0053
 4588TIP3   OH213706   7.868   2.848   6.137 -0.1314 -0.1163 -0.1432
 4588TIP3    H113707   7.951   2.895   6.132  0.6038 -1.4667 -1.1710
 4588TIP3    H213708   7.834   2.849   6.048 -0.8062 -0.2914  0.1065
 4589TIP3   OH213709   1.821   5.163   1.741  0.0101 -0.1792  0.6299
 4589TIP3    H113710   1.794   5.245   1.783  1.0258  1.2331 -1.2818
 4589TIP3    H213711   1.739   5.118   1.722 -0.9019  2.0950 -1.4190
 4590TIP3   OH213712   0.694   3.051   1.753  0.4424 -0.0138  0.1282
 4590TIP3    H113713   0.687   3.100   1.835 -2.2767 -0.4506  0.2665
 4590TIP3    H213714   0.667   2.962   1.776 -2.1228  0.2426 -1.4644
 4591TIP3   OH213715   4.451   2.633   0.839 -0.5550  0.2337 -0.1242
 4591TIP3    H113716   4.416   2.546   0.822 -1.1513  0.2071  1.1459
 4591TIP3    H213717   4.514   2.619   0.910 -0.8492  0.8708  0.2672
 4592TIP3   OH213718   5.566   5.749   0.833 -0.0957  0.0216 -0.2300
 4592TIP3    H113719   5.504   5.738   0.905 -0.2547  4.3431  0.5633
 4592TIP3    H213720   5.532   5.694   0.762 -2.1751 -1.2566  1.6369
 4593TIP3   OH213721   7.077   4.306   5.763  0.1589  0.4425  0.3144
 4593TIP3    H113722   7.066   4.368   5.835  2.3799 -0.4766  1.5522
 4593TIP3    H213723   7.144   4.345   5.707  0.5038 -0.1595  0.2993
 4594TIP3   OH213724   0.080   2.301   3.643  0.4178 -0.1267 -0.3435
 4594TIP3    H113725   0.015   2.344   3.587  0.2142  1.5444  1.0906
 4594TIP3    H213726   0.057   2.328   3.732  1.2306 -2.0362  0.4972
 4595TIP3   OH213727   4.909   1.614   5.481  0.4964 -0.5109 -0.1908
 4595TIP3    H113728   4.962   1.623   5.402  0.6516 -0.4760 -0.0836
 4595TIP3    H213729   4.889   1.703   5.507  0.5313 -0.5198 -0.1333
 4596TIP3   OH213730   6.420   6.231   1.410 -0.3916  0.0579 -0.6795
 4596TIP3    H113731   6.359   6.298   1.443  0.4266  1.0069 -1.0446
 4596TIP3    H213732   6.507   6.266   1.430  0.1063  0.0640 -2.6189
 4597TIP3   OH213733   0.049   0.493   0.374  0.2261 -0.1925 -0.5774
 4597TIP3    H113734   0.119   0.445   0.330  0.1875  0.2966 -1.1677
 4597TIP3    H213735   0.073   0.585   0.365  0.5370 -0.0989  0.9558
 4598TIP3   OH213736   2.672   7.535   1.735 -0.2268  0.1688 -0.2321
 4598TIP3    H113737   2.681   7.630   1.741  0.8261  0.0570  0.3018
 4598TIP3    H213738   2.751   7.507   1.689 -0.6126 -0.4337 -0.5333
 4599TIP3   OH213739   3.351   2.641   6.784  0.1698 -0.8394  0.0915
 4599TIP3    H113740   3.436   2.630   6.827  1.0316 -1.6907 -1.7209
 4599TIP3    H213741   3.347   2.569   6.721 -1.7584 -0.5969 -0.1126
 4600TIP3   OH213742   7.042   7.518   3.749 -0.3049 -0.7347  0.5770
 4600TIP3    H113743   7.010   7.449   3.807  1.7486 -1.5792  0.7740
 4600TIP3    H213744   7.019   7.489   3.661 -0.9313 -0.8131  0.7551
 4601TIP3   OH213745   0.793   2.014   1.689 -0.5757 -0.1990 -0.2009
 4601TIP3    H113746   0.780   2.074   1.762  0.7899 -0.4515  0.2917
 4601TIP3    H213747   0.748   2.055   1.615  0.7592  1.7104 -0.0236
 4602TIP3   OH213748   3.848   7.793   4.255  0.4957  0.0916  0.3200
 4602TIP3    H113749   3.909   7.824   4.188  0.9784  0.4085  0.9072
 4602TIP3    H213750   3.763   7.828   4.227  0.4904 -0.7220 -0.7368
 4603TIP3   OH213751   2.666   5.015   0.116 -0.1049  0.4735 -0.0892
 4603TIP3    H113752   2.721   4.994   0.191 -0.1197  0.9654  0.0666
 4603TIP3    H213753   2.714   4.983   0.040 -0.1557 -0.1533  0.1388
 4604TIP3   OH213754   0.330   1.056   4.926 -0.5143  0.1123  0.0723
 4604TIP3    H113755   0.426   1.056   4.928 -0.5073 -1.4003  0.9988
 4604TIP3    H213756   0.308   1.141   4.888  1.1457  1.4220  1.7895
 4605TIP3   OH213757   3.670   2.266   4.431  0.0669  0.5383  0.0568
 4605TIP3    H113758   3.648   2.303   4.516 -0.1124 -1.7931  1.1108
 4605TIP3    H213759   3.746   2.316   4.402 -0.2132  1.7459  1.3198
 4606TIP3   OH213760   7.296   1.556   0.198  0.0851 -0.0120 -0.1326
 4606TIP3    H113761   7.229   1.491   0.218  0.3466 -0.3000 -0.1842
 4606TIP3    H213762   7.294   1.617   0.272 -0.5269  0.2285 -0.3419
 4607TIP3   OH213763   4.576   7.304   2.456 -0.2081 -0.4395 -0.3931
 4607TIP3    H113764   4.610   7.215   2.451 -0.8705 -0.6455 -1.5117
 4607TIP3    H213765   4.640   7.351   2.510  0.4259 -1.4497 -0.2367
 4608TIP3   OH213766   1.973   0.420   4.787 -0.0048 -0.2823  0.3385
 4608TIP3    H113767   2.014   0.343   4.747  1.5002  0.7697 -0.2384
 4608TIP3    H213768   1.881   0.412   4.762  0.3246 -1.3041 -0.6916
 4609TIP3   OH213769   0.551   1.857   4.795  0.1108 -0.1326 -0.1708
 4609TIP3    H113770   0.643   1.831   4.794  0.2119  0.2327 -0.8788
 4609TIP3    H213771   0.520   1.841   4.706 -0.4613 -0.0631  0.0086
 4610TIP3   OH213772   0.454   0.620   1.562 -0.2827 -0.1078  0.2463
 4610TIP3    H113773   0.513   0.683   1.524  1.6449 -1.8981  0.0972
 4610TIP3    H213774   0.372   0.668   1.576  0.4071  1.7994 -1.8018
 4611TIP3   OH213775   3.364   1.533   5.844  0.4142  0.4334 -0.4403
 4611TIP3    H113776   3.428   1.603   5.859 -0.4282  1.1392 -0.0429
 4611TIP3    H213777   3.354   1.491   5.929  1.2952 -0.5262 -0.7894
 4612TIP3   OH213778   5.564   7.568   6.765 -0.3779  0.5606 -0.0672
 4612TIP3    H113779   5.559   7.661   6.741  0.5067  0.5678 -0.2417
 4612TIP3    H213780   5.474   7.536   6.755 -0.6855  1.3930 -0.0216
 4613TIP3   OH213781   1.842   1.435   3.123 -0.2837  0.1997 -0.2839
 4613TIP3    H113782   1.762   1.477   3.154 -0.8751 -0.5219 -0.7867
 4613TIP3    H213783   1.879   1.393   3.201 -1.1250 -0.6007 -0.2972
 4614TIP3   OH213784   3.738   0.826   1.589  0.3948 -0.8188  0.4081
 4614TIP3    H113785   3.650   0.829   1.552  0.0026  0.7672  1.4052
 4614TIP3    H213786   3.792   0.875   1.527  0.4926 -1.3577  0.0581
 4615TIP3   OH213787   0.856   5.378   6.223  0.2686 -1.0483 -0.5941
 4615TIP3    H113788   0.876   5.414   6.309  3.1114  0.0215 -1.5871
 4615TIP3    H213789   0.765   5.350   6.230 -0.5584  1.6685  1.8472
 4616TIP3   OH213790   6.614   7.565   5.175  0.0576 -0.1331  0.4861
 4616TIP3    H113791   6.535   7.619   5.167  0.2062  0.1149  0.6685
 4616TIP3    H213792   6.686   7.626   5.160  0.2272 -0.2836  0.6788
 4617TIP3   OH213793   1.990   1.883   3.720  0.3756 -0.4424 -0.2979
 4617TIP3    H113794   1.916   1.944   3.720  0.1212 -0.7463 -0.6228
 4617TIP3    H213795   2.067   1.940   3.715  0.1028 -0.1609 -1.7504
 4618TIP3   OH213796   7.741   3.727   0.607 -0.0229  0.4831 -0.0763
 4618TIP3    H113797   7.705   3.802   0.653  0.5710  0.5626  0.2638
 4618TIP3    H213798   7.729   3.653   0.667 -0.3550  0.3529 -0.2978
 4619TIP3   OH213799   8.214   1.591   0.429  0.7320  0.0853 -0.0418
 4619TIP3    H113800   8.159   1.599   0.507 -0.4137  0.1219 -0.8349
 4619TIP3    H213801   8.186   1.509   0.388  1.9044 -0.3633  0.0057
 4620TIP3   OH213802   6.172   1.276   2.208 -0.0955 -0.0094  0.0961
 4620TIP3    H113803   6.262   1.308   2.200 -0.2418  0.2079 -0.7525
 4620TIP3    H213804   6.149   1.291   2.300  0.0769  1.7352 -0.1125
 4621TIP3   OH213805   4.800   0.225   2.449 -0.1274  0.1113  0.5918
 4621TIP3    H113806   4.771   0.191   2.365  0.4156  2.3538 -0.5987
 4621TIP3    H213807   4.896   0.224   2.444 -0.0887  0.2347  1.1773
 4622TIP3   OH213808   3.443   6.108   0.677  0.0247  0.1837 -0.0111
 4622TIP3    H113809   3.483   6.159   0.606  1.0465 -0.7252 -0.1041
 4622TIP3    H213810   3.483   6.142   0.757  1.6006 -1.1893 -0.1479
 4623TIP3   OH213811   3.738   3.238   3.920  0.3253  0.5794 -0.5203
 4623TIP3    H113812   3.708   3.240   3.829  1.1324 -0.8611 -0.8471
 4623TIP3    H213813   3.658   3.237   3.972 -0.2018 -0.8582 -1.3028
 4624TIP3   OH213814   3.634   7.385   0.191  0.4225  0.9653 -0.3671
 4624TIP3    H113815   3.702   7.383   0.257  2.0163 -2.4264 -1.8942
 4624TIP3    H213816   3.677   7.419   0.113 -0.6039  2.0181 -0.5027
 4625TIP3   OH213817   5.209   0.784   4.814  0.3235 -0.7794  0.2616
 4625TIP3    H113818   5.132   0.840   4.814  0.6504 -0.3234 -0.2183
 4625TIP3    H213819   5.283   0.844   4.810  0.6842 -1.2331 -0.0239
 4626TIP3   OH213820   6.030   3.667   0.230 -0.2161  0.0069  0.1047
 4626TIP3    H113821   6.092   3.739   0.217 -1.2910  0.6548 -1.8820
 4626TIP3    H213822   5.947   3.710   0.250 -0.3397 -0.7969  1.3904
 4627TIP3   OH213823   2.507   1.891   4.488 -0.1574 -0.1493 -0.2006
 4627TIP3    H113824   2.459   1.843   4.556 -0.3958  1.3556  0.7291
 4627TIP3    H213825   2.590   1.913   4.529 -0.7568  1.7867  0.0633
 4628TIP3   OH213826   7.419   1.713   0.796 -0.0812 -0.1435  0.7579
 4628TIP3    H113827   7.425   1.753   0.709 -2.0502 -0.7945  0.2819
 4628TIP3    H213828   7.431   1.620   0.780 -2.7775 -0.5705  0.7765
 4629TIP3   OH213829   7.364   4.663   6.062 -0.3445 -0.7035 -0.2131
 4629TIP3    H113830   7.408   4.631   6.141 -1.8910 -0.2292  0.8805
 4629TIP3    H213831   7.428   4.721   6.021  0.0818 -0.0311  1.3255
 4630TIP3   OH213832   0.414   3.827   5.776  0.1705  0.0155  0.1741
 4630TIP3    H113833   0.330   3.872   5.777  0.6725  1.0251 -0.2946
 4630TIP3    H213834   0.461   3.862   5.852  0.9978  1.2030 -0.8393
 4631TIP3   OH213835   3.938   5.983   0.392  0.0586  0.4365 -0.1299
 4631TIP3    H113836   3.979   5.952   0.473  1.6655  0.5732 -0.8396
 4631TIP3    H213837   3.923   6.077   0.407  1.6625  0.7768 -0.4561
 4632TIP3   OH213838   4.002   1.404   2.376 -0.1106  0.2673  0.0210
 4632TIP3    H113839   4.076   1.458   2.405 -0.3757  0.9201 -0.4824
 4632TIP3    H213840   4.028   1.314   2.396  0.5070  0.5532  0.5234
 4633TIP3   OH213841   1.834   5.124   0.432  0.7816 -0.5391  0.2845
 4633TIP3    H113842   1.927   5.106   0.419  0.6529  0.4260 -2.4464
 4633TIP3    H213843   1.801   5.045   0.476  2.3807 -2.0734 -1.1105
 4634TIP3   OH213844   1.544   7.257   5.305  0.5000  0.4717  0.1071
 4634TIP3    H113845   1.490   7.269   5.384 -0.1176  1.4238 -0.4401
 4634TIP3    H213846   1.541   7.162   5.289  0.0584  0.3531  0.8309
 4635TIP3   OH213847   5.823   2.949   1.049 -0.2069 -0.2968 -0.2048
 4635TIP3    H113848   5.858   2.916   1.131 -0.5273 -0.6318 -0.2030
 4635TIP3    H213849   5.880   3.023   1.027 -0.2279 -0.0982  0.3998
 4636TIP3   OH213850   0.602   0.342   2.509 -0.1813  0.3300 -0.2287
 4636TIP3    H113851   0.677   0.339   2.569 -0.2626  1.5741 -0.0315
 4636TIP3    H213852   0.525   0.333   2.566 -0.2504  1.3306 -0.1330
 4637TIP3   OH213853   4.933   5.311   3.517 -0.0855  0.0829 -0.8924
 4637TIP3    H113854   4.978   5.323   3.434 -1.6314  1.4167 -1.5870
 4637TIP3    H213855   4.949   5.392   3.565 -1.1344  0.2736 -0.8550
 4638TIP3   OH213856   3.032   2.783   2.049  0.1136 -0.1456  0.2894
 4638TIP3    H113857   3.067   2.827   2.127 -1.7942  0.1757  1.0042
 4638TIP3    H213858   3.081   2.700   2.045  0.3698 -0.0966  1.7201
 4639TIP3   OH213859   0.700   0.577   6.436 -0.0597  0.7003  0.1422
 4639TIP3    H113860   0.771   0.599   6.376 -0.6710  1.2702 -0.3883
 4639TIP3    H213861   0.622   0.570   6.380 -0.2452 -0.9713  0.5633
 4640TIP3   OH213862   7.603   6.315   6.438 -0.3030  0.5151  0.3913
 4640TIP3    H113863   7.681   6.322   6.384 -0.5813 -1.0889 -0.2793
 4640TIP3    H213864   7.545   6.257   6.389 -1.2076  0.2886  1.6725
 4641TIP3   OH213865   1.016   4.757   2.877  0.0665  0.5297  0.5693
 4641TIP3    H113866   1.096   4.710   2.899  1.0688  2.1319  0.5090
 4641TIP3    H213867   0.948   4.690   2.879  1.4233 -0.9222  0.4215
 4642TIP3   OH213868   7.061   5.422   4.240  0.6384 -0.3489 -0.0369
 4642TIP3    H113869   7.029   5.511   4.254  1.7848  0.1401 -0.3900
 4642TIP3    H213870   7.012   5.391   4.164 -0.0580 -0.1756  0.3315
 4643TIP3   OH213871   1.989   4.083   2.930 -0.2978  0.4175 -0.5726
 4643TIP3    H113872   1.991   4.175   2.904 -0.1623  0.9638  1.2023
 4643TIP3    H213873   2.082   4.059   2.939 -0.3373  0.5890  0.4402
 4644TIP3   OH213874   4.442   5.832   4.034  0.3190 -0.5575  0.0861
 4644TIP3    H113875   4.383   5.896   3.994  0.1430 -0.3767  0.6172
 4644TIP3    H213876   4.529   5.859   4.006  0.3721  0.7189  1.3246
 4645TIP3   OH213877   5.121   6.055   2.736 -0.3703 -0.3332  0.1046
 4645TIP3    H113878   5.044   6.106   2.713 -0.4908 -0.6971 -0.3216
 4645TIP3    H213879   5.141   6.081   2.826  0.9030  2.1150 -0.7940
 4646TIP3   OH213880   7.624   1.684   2.271  0.3393 -0.1578  1.0075
 4646TIP3    H113881   7.675   1.629   2.331  0.8142 -0.8989 -0.0362
 4646TIP3    H213882   7.626   1.771   2.310 -0.0867 -0.7735  2.5006
 4647TIP3   OH213883   4.107   7.030   3.413  0.0955  0.0787 -0.7622
 4647TIP3    H113884   4.094   7.103   3.474  0.8201  0.4695 -1.0533
 4647TIP3    H213885   4.102   6.952   3.468  2.2180  0.4802  0.1143
 4648TIP3   OH213886   3.224   3.719   4.075 -0.3034 -0.4931 -0.5102
 4648TIP3    H113887   3.197   3.809   4.095 -1.1987 -0.8867  0.0675
 4648TIP3    H213888   3.210   3.670   4.156  0.1821 -1.1676 -0.8168
 4649TIP3   OH213889   2.817   3.563   3.559  0.3010 -0.1138 -0.4729
 4649TIP3    H113890   2.762   3.609   3.622 -0.8798 -1.6411 -0.3003
 4649TIP3    H213891   2.762   3.490   3.529  2.2193 -1.7001 -0.3349
 4650TIP3   OH213892   5.373   2.839   0.975 -0.3070 -0.0742 -0.4851
 4650TIP3    H113893   5.389   2.933   0.964 -2.5974  0.4564  0.1413
 4650TIP3    H213894   5.356   2.828   1.068 -0.4101 -1.0456 -0.6073
 4651TIP3   OH213895   0.828   5.761   5.111  0.4889 -0.1216 -0.3187
 4651TIP3    H113896   0.924   5.768   5.105  0.4062  0.3951 -1.2542
 4651TIP3    H213897   0.813   5.686   5.167  1.4458  0.6083  0.9783
 4652TIP3   OH213898   1.971   7.284   6.194  1.0139 -0.1294  0.2959
 4652TIP3    H113899   1.954   7.204   6.244  2.1631  1.1451  2.9443
 4652TIP3    H213900   2.052   7.265   6.146  1.1046 -0.6798  0.6531
 4653TIP3   OH213901   5.303   4.017   6.290  0.3343 -0.4278 -0.2146
 4653TIP3    H113902   5.285   3.951   6.223  0.2149  1.3676 -2.0773
 4653TIP3    H213903   5.389   3.994   6.325 -0.1757 -2.1529 -0.0196
 4654TIP3   OH213904   3.908   5.196   1.832  0.0567 -0.7165 -0.0772
 4654TIP3    H113905   3.995   5.235   1.836 -0.9510  1.5834  1.2915
 4654TIP3    H213906   3.913   5.133   1.760  2.1314  1.1464 -1.7042
 4655TIP3   OH213907   5.899   5.098   0.158 -0.3713 -0.0982  0.3813
 4655TIP3    H113908   5.824   5.125   0.105  1.0395  2.1360 -0.6452
 4655TIP3    H213909   5.963   5.067   0.094  0.6548  0.8620  0.8998
 4656TIP3   OH213910   2.718   2.672   2.540 -0.2587  0.6973  0.1203
 4656TIP3    H113911   2.734   2.728   2.464 -1.3946  2.3279  1.0247
 4656TIP3    H213912   2.793   2.689   2.598 -0.4601  1.0867  0.2712
 4657TIP3   OH213913   5.959   4.198   1.860  0.4374  0.5998  0.1961
 4657TIP3    H113914   5.949   4.243   1.777 -0.4097 -0.8630 -0.5508
 4657TIP3    H213915   5.993   4.111   1.836 -0.3826 -0.0539  1.2815
 4658TIP3   OH213916   2.483   4.618   2.482 -0.2063  0.0900  0.9651
 4658TIP3    H113917   2.448   4.571   2.558  0.8921 -0.1861  1.3153
 4658TIP3    H213918   2.407   4.661   2.444 -0.6282  1.0426  2.7960
 4659TIP3   OH213919   0.442   3.087   4.772 -0.0811  0.6237 -0.7000
 4659TIP3    H113920   0.522   3.046   4.739  0.3628  0.0292  1.0219
 4659TIP3    H213921   0.393   3.111   4.693  1.4942  0.4322 -1.7822
 4660TIP3   OH213922   0.920   3.616   1.707 -0.0026 -0.0494 -0.0842
 4660TIP3    H113923   0.875   3.606   1.623 -1.5106 -0.1502  0.7106
 4660TIP3    H213924   0.888   3.699   1.742 -0.4864 -0.6754  1.0171
 4661TIP3   OH213925   6.040   2.100   1.622  0.6052 -0.2678  0.0938
 4661TIP3    H113926   5.945   2.097   1.621  0.5942 -0.6197  1.1569
 4661TIP3    H213927   6.065   2.113   1.530 -0.5399  2.6988  0.0785
 4662TIP3   OH213928   4.369   3.289   3.743  0.1788 -0.7716  0.1364
 4662TIP3    H113929   4.340   3.343   3.816  3.4767  0.1169  0.9308
 4662TIP3    H213930   4.341   3.338   3.665  0.0981  0.3288  0.8312
 4663TIP3   OH213931   8.199   7.085   5.984  0.2564  0.2825 -0.2100
 4663TIP3    H113932   8.281   7.128   6.009 -0.2898  1.9085 -1.1010
 4663TIP3    H213933   8.133   7.153   5.992 -0.6765 -0.4251 -1.5711
 4664TIP3   OH213934   3.764   4.383   1.905 -0.6323  0.2756  0.2133
 4664TIP3    H113935   3.681   4.392   1.953  0.9757  0.8850  3.0874
 4664TIP3    H213936   3.761   4.454   1.840 -1.8329  1.1000  1.1101
 4665TIP3   OH213937   3.634   6.231   6.202 -0.1685  0.2485 -0.4027
 4665TIP3    H113938   3.548   6.198   6.176  0.3326 -2.5079  1.0735
 4665TIP3    H213939   3.615   6.302   6.264 -1.3467  0.0513 -0.5162
 4666TIP3   OH213940   8.022   0.254   0.510 -0.4435 -0.1763  0.1989
 4666TIP3    H113941   7.966   0.331   0.520 -1.1185 -0.4872 -1.0388
 4666TIP3    H213942   8.057   0.261   0.421  0.5880 -0.5892  0.5584
 4667TIP3   OH213943   3.965   4.687   2.665  0.2589 -0.3051 -0.2113
 4667TIP3    H113944   4.040   4.660   2.717  0.9625  0.4272 -0.8167
 4667TIP3    H213945   3.995   4.765   2.618  0.0182 -1.4945 -2.5063
 4668TIP3   OH213946   3.127   7.378   5.367 -0.0277 -0.3958  0.0325
 4668TIP3    H113947   3.148   7.289   5.397 -0.3135 -0.7691 -0.8467
 4668TIP3    H213948   3.117   7.429   5.448 -2.5636 -1.7728  0.7176
 4669TIP3   OH213949   4.945   2.782   1.801  0.0640  0.1454  0.4763
 4669TIP3    H113950   4.925   2.739   1.885 -1.7965 -1.1021 -0.5329
 4669TIP3    H213951   4.937   2.876   1.820 -0.2001 -0.1034  1.7169
 4670TIP3   OH213952   1.547   0.725   3.822 -0.1298 -0.0647  0.0490
 4670TIP3    H113953   1.566   0.767   3.738  0.7258 -0.7038 -0.0935
 4670TIP3    H213954   1.478   0.662   3.803  0.0138 -0.1597 -0.1636
 4671TIP3   OH213955   8.138   5.556   5.734  0.0135  0.0685 -0.5243
 4671TIP3    H113956   8.209   5.572   5.796 -0.8062  0.2495  0.4016
 4671TIP3    H213957   8.101   5.643   5.716  0.0191 -0.0226 -0.9860
 4672TIP3   OH213958   3.798   0.036   5.133 -0.3933 -0.1688 -0.4560
 4672TIP3    H113959   3.836  -0.050   5.149  0.9106  0.7857  2.2359
 4672TIP3    H213960   3.851   0.074   5.063  1.2023 -0.3452  0.6129
 4673TIP3   OH213961   2.620   0.281   2.359 -0.0649  0.3036  0.7325
 4673TIP3    H113962   2.633   0.333   2.281 -0.1110  1.4689  1.4764
 4673TIP3    H213963   2.592   0.195   2.327  2.9823 -0.2931 -0.6611
 4674TIP3   OH213964   2.993   7.831   1.816 -0.0122  0.4169  0.4191
 4674TIP3    H113965   2.994   7.770   1.891  0.1838 -1.3411 -0.9456
 4674TIP3    H213966   2.904   7.827   1.783  0.2873 -0.0037 -0.3522
 4675TIP3   OH213967   5.058   1.443   6.554  0.0376  0.2521 -0.5157
 4675TIP3    H113968   5.036   1.445   6.460  0.2036 -0.4024 -0.5725
 4675TIP3    H213969   5.064   1.350   6.575 -1.7554  0.3335  0.5644
 4676TIP3   OH213970   4.133   1.280   0.823  1.1717 -0.6362 -0.0685
 4676TIP3    H113971   4.060   1.220   0.809  0.5691  0.0362  0.0954
 4676TIP3    H213972   4.138   1.291   0.918  2.7926 -2.2229  0.0831
 4677TIP3   OH213973   0.141   0.482   0.069  0.4212  0.4415 -0.1235
 4677TIP3    H113974   0.208   0.419   0.095 -1.0181 -1.2141 -0.2433
 4677TIP3    H213975   0.146   0.551   0.135  0.4022 -1.0315  1.4805
 4678TIP3   OH213976   2.684   3.569   0.314  0.1319 -0.0092  0.0702
 4678TIP3    H113977   2.765   3.544   0.270  0.2071 -2.3457  1.3402
 4678TIP3    H213978   2.694   3.537   0.404 -1.8391  0.4489  0.5185
 4679TIP3   OH213979   1.789   7.227   3.845  0.2707  0.1681  0.7645
 4679TIP3    H113980   1.763   7.152   3.900 -0.1392 -0.6597 -0.5124
 4679TIP3    H213981   1.711   7.246   3.793  0.3326  1.5879  1.1569
 4680TIP3   OH213982   1.442   1.226   6.468  0.1521  0.3430  0.1047
 4680TIP3    H113983   1.358   1.269   6.456 -0.6637 -1.3279 -0.5538
 4680TIP3    H213984   1.502   1.295   6.495 -1.0230  1.8986 -1.1180
 4681TIP3   OH213985   2.417   4.718   6.486 -0.3700  0.3137 -0.2651
 4681TIP3    H113986   2.455   4.743   6.402  0.2749 -0.9797 -0.3901
 4681TIP3    H213987   2.335   4.673   6.463 -1.4452  2.0746 -0.0525
 4682TIP3   OH213988   3.315   3.545   4.833  0.3217  0.2373 -0.2299
 4682TIP3    H113989   3.402   3.583   4.841 -0.4405  2.3002 -1.0248
 4682TIP3    H213990   3.261   3.615   4.797 -1.9831 -0.5274  1.4642
 4683TIP3   OH213991   1.635   6.268   2.984 -0.2052  0.1702  0.3271
 4683TIP3    H113992   1.576   6.194   2.992  1.0827 -1.0139 -0.6011
 4683TIP3    H213993   1.707   6.236   2.930  1.0463  1.6930  0.9877
 4684TIP3   OH213994   4.538   0.437   0.454 -0.0153 -0.2472  0.3407
 4684TIP3    H113995   4.495   0.522   0.460 -0.9055 -0.6519 -0.1187
 4684TIP3    H213996   4.632   0.457   0.454 -0.2057  0.6961  0.6859
 4685TIP3   OH213997   2.915   6.332   3.607 -0.2520  0.3715 -0.6738
 4685TIP3    H113998   2.912   6.321   3.702 -0.4906 -2.5291 -0.9363
 4685TIP3    H213999   3.007   6.317   3.584 -0.4505 -0.3973 -1.0042
 4686TIP3   OH214000   6.772   2.858   2.734 -0.0817 -0.4816  0.3266
 4686TIP3    H114001   6.799   2.767   2.724  1.4756  0.1445 -1.7391
 4686TIP3    H214002   6.819   2.905   2.666 -0.9318  1.8799  1.2654
 4687TIP3   OH214003   3.082   1.412   1.850 -0.0241 -0.0419  0.3928
 4687TIP3    H114004   3.120   1.471   1.786  0.8555 -2.7166 -1.7637
 4687TIP3    H214005   3.142   1.414   1.924  0.3863  1.1508  0.0407
 4688TIP3   OH214006   7.600   6.441   1.104 -0.3552 -0.4484 -0.4371
 4688TIP3    H114007   7.564   6.466   1.189 -2.8232  0.8165 -1.7564
 4688TIP3    H214008   7.585   6.346   1.099 -1.3094 -0.3278  0.0415
 4689TIP3   OH214009   5.062   7.673   0.209 -0.0926  0.0440  0.4118
 4689TIP3    H114010   5.118   7.631   0.145 -1.3094  1.7055 -1.9166
 4689TIP3    H214011   4.996   7.607   0.231  0.0476 -0.3871 -0.4414
 4690TIP3   OH214012   7.973   7.213   6.282 -0.8707 -0.0913  0.2551
 4690TIP3    H114013   7.985   7.122   6.310  1.1193  0.3224  0.8576
 4690TIP3    H214014   7.990   7.212   6.188  0.9404 -0.0853  0.5494
 4691TIP3   OH214015   1.396   7.147   6.211 -0.6156  0.3179 -0.0167
 4691TIP3    H114016   1.330   7.079   6.208 -0.3707 -0.0915  2.1010
 4691TIP3    H214017   1.433   7.141   6.299  1.9209  0.8316 -0.9501
 4692TIP3   OH214018   5.142   4.334   3.859 -0.1907  0.2873 -0.3204
 4692TIP3    H114019   5.065   4.303   3.811  0.1930  0.7567 -1.2561
 4692TIP3    H214020   5.123   4.311   3.950 -0.6681 -1.1705 -0.7489
 4693TIP3   OH214021   0.511   1.453   2.327  0.2747 -0.1059  0.1856
 4693TIP3    H114022   0.510   1.365   2.366 -0.0719 -0.0167  0.3872
 4693TIP3    H214023   0.419   1.479   2.326  0.3837  0.2788  0.1733
 4694TIP3   OH214024   6.887   5.264   1.541  0.6605 -0.1445 -0.1609
 4694TIP3    H114025   6.948   5.281   1.613  1.6969  1.7247 -1.3962
 4694TIP3    H214026   6.944   5.254   1.464 -0.4716 -1.1430 -0.9015
 4695TIP3   OH214027   6.135   3.772   5.786 -0.0988 -0.4623 -0.7379
 4695TIP3    H114028   6.050   3.727   5.788  0.3778 -1.4480 -1.4932
 4695TIP3    H214029   6.115   3.859   5.752 -1.0292 -0.1128  0.6183
 4696TIP3   OH214030   3.543   3.839   2.805 -0.0445 -0.1438  0.2166
 4696TIP3    H114031   3.481   3.887   2.751 -1.1287  0.3197  1.8234
 4696TIP3    H214032   3.493   3.810   2.881  2.2137  2.7902  3.1186
 4697TIP3   OH214033   4.875   1.547   1.906 -0.0849 -0.3856 -0.3368
 4697TIP3    H114034   4.899   1.459   1.877  1.8676 -0.2126  0.6229
 4697TIP3    H214035   4.784   1.557   1.878 -0.4115 -2.7547 -0.3290
 4698TIP3   OH214036   4.926   7.721   6.296 -0.1398 -0.4188  0.5254
 4698TIP3    H114037   4.971   7.805   6.286  0.3083 -0.4555  1.9709
 4698TIP3    H214038   4.976   7.660   6.242  0.3866 -0.0455  0.5842
 4699TIP3   OH214039   1.970   6.933   2.098  0.4253 -0.2893  0.0257
 4699TIP3    H114040   1.991   7.023   2.125 -0.1615 -0.0754 -0.2150
 4699TIP3    H214041   2.007   6.926   2.010 -0.1239 -0.0543 -0.2275
 4700TIP3   OH214042   4.430   1.836   2.151 -0.2915 -0.3288 -0.4638
 4700TIP3    H114043   4.339   1.830   2.180  0.0109  0.3332  0.7019
 4700TIP3    H214044   4.461   1.919   2.187  0.4755 -0.0336 -1.7353
 4701TIP3   OH214045   4.325   2.079   5.234 -0.1668  0.1225 -0.1975
 4701TIP3    H114046   4.405   2.127   5.254 -0.4224  1.1644 -1.5137
 4701TIP3    H214047   4.282   2.132   5.166 -1.2305 -1.1877 -0.5799
 4702TIP3   OH214048   6.110   4.279   3.479  0.7758  0.2612  0.6182
 4702TIP3    H114049   6.025   4.321   3.467  1.4585  1.2693 -1.0108
 4702TIP3    H214050   6.173   4.351   3.482  1.6178 -0.4720  1.6757
 4703TIP3   OH214051   2.788   6.034   2.726 -0.3252  0.4504  0.2023
 4703TIP3    H114052   2.807   6.037   2.820 -0.6154  1.3531  0.2426
 4703TIP3    H214053   2.709   6.087   2.716 -1.6504 -1.4854 -0.2488
 4704TIP3   OH214054   5.265   7.581   0.036  0.7292 -0.2319  0.1837
 4704TIP3    H114055   5.317   7.503   0.017 -0.2501 -0.5735 -1.2580
 4704TIP3    H214056   5.284   7.641  -0.036 -1.5003 -0.7206 -0.9128
 4705TIP3   OH214057   6.956   0.040   0.600 -0.6994  0.0406  0.0874
 4705TIP3    H114058   6.996  -0.046   0.605 -0.2927  0.1505 -1.0868
 4705TIP3    H214059   7.013   0.096   0.653 -1.0315 -0.4205  0.9482
 4706TIP3   OH214060   7.801   5.140   2.291  0.6013  0.5609 -0.1768
 4706TIP3    H114061   7.760   5.161   2.207 -0.1939 -0.2360 -0.0062
 4706TIP3    H214062   7.791   5.220   2.344  1.7489  1.3214 -1.0562
 4707TIP3   OH214063   2.746   0.920   4.122  0.5101  0.0685 -0.0385
 4707TIP3    H114064   2.771   0.946   4.211 -0.6789 -1.3380  0.7444
 4707TIP3    H214065   2.762   0.826   4.119 -1.7447 -0.3583 -0.4640
 4708TIP3   OH214066   6.932   6.930   1.872  0.2072  0.7110 -0.5622
 4708TIP3    H114067   6.874   6.892   1.806 -0.0298  2.3537 -1.3633
 4708TIP3    H214068   6.878   6.939   1.950 -1.1061  3.3151 -1.6328
 4709TIP3   OH214069  -0.013   2.667   5.280 -0.2846 -0.0091  0.1128
 4709TIP3    H114070   0.070   2.712   5.295  0.3849 -1.4023  0.7888
 4709TIP3    H214071   0.012   2.581   5.247 -1.4670 -0.4225  0.2581
 4710TIP3   OH214072   8.148   0.449   6.537  0.1780 -0.3844  0.1360
 4710TIP3    H114073   8.092   0.518   6.500  1.3473 -0.4030 -1.7847
 4710TIP3    H214074   8.088   0.375   6.549 -0.6105  0.2126  0.0121
 4711TIP3   OH214075   6.694   6.165   5.530  0.1886  0.1791  0.5749
 4711TIP3    H114076   6.613   6.119   5.552  0.3014 -0.7508 -0.8282
 4711TIP3    H214077   6.665   6.253   5.504 -0.3955 -0.1925 -0.0690
 4712TIP3   OH214078   6.090   5.515   1.842 -0.3734  0.5409 -0.4321
 4712TIP3    H114079   6.173   5.552   1.871 -0.3019  1.0004 -1.2068
 4712TIP3    H214080   6.023   5.566   1.889 -0.2266  0.0025  0.3859
 4713TIP3   OH214081   6.061   0.193   2.759 -0.5564  0.5780  0.4462
 4713TIP3    H114082   5.987   0.210   2.700  0.8767 -1.3786 -2.1593
 4713TIP3    H214083   6.035   0.115   2.807 -0.8016  0.7993  0.6736
 4714TIP3   OH214084   0.835   4.823   5.091 -0.2815 -0.0089  0.8334
 4714TIP3    H114085   0.921   4.794   5.122  0.6809  1.3229 -0.4811
 4714TIP3    H214086   0.848   4.914   5.064 -1.9804  0.0586  0.0967
 4715TIP3   OH214087   3.805   6.287   5.083 -0.8778 -0.1623 -0.2459
 4715TIP3    H114088   3.890   6.307   5.044 -0.3245 -0.9532  0.5081
 4715TIP3    H214089   3.826   6.230   5.158 -1.9428  0.8325  0.8526
 4716TIP3   OH214090   4.921   3.552   2.731  0.3006 -0.0957  0.1901
 4716TIP3    H114091   4.832   3.519   2.743  0.7094 -1.4584 -0.3945
 4716TIP3    H214092   4.911   3.630   2.676 -0.6673  0.7826  1.5412
 4717TIP3   OH214093   1.289   6.072   5.067 -0.3275  0.0596  0.6517
 4717TIP3    H114094   1.312   6.120   4.988  1.5789  1.8342  2.1589
 4717TIP3    H214095   1.316   5.982   5.050 -0.5400  0.2686 -0.9048
 4718TIP3   OH214096   1.700   1.746   5.784 -0.2291  0.5333  0.4515
 4718TIP3    H114097   1.679   1.837   5.806 -0.1132  0.2630  1.8161
 4718TIP3    H214098   1.787   1.733   5.822 -0.5874 -0.3711  0.9986
 4719TIP3   OH214099   4.897   2.251   0.134 -0.3325 -0.4346  0.6790
 4719TIP3    H114100   4.976   2.304   0.128 -1.1876  0.7699 -0.7401
 4719TIP3    H214101   4.903   2.208   0.219  1.1563  0.7275  1.2057
 4720TIP3   OH214102   3.392  -0.022   4.544 -0.2541  0.4485  0.0605
 4720TIP3    H114103   3.382  -0.029   4.639  0.7198 -1.0579  0.0895
 4720TIP3    H214104   3.359   0.065   4.523 -1.6716  0.3304  1.6019
 4721TIP3   OH214105   8.215   7.828   2.785  0.2031  0.9142  0.9477
 4721TIP3    H114106   8.243   7.749   2.739  0.4979  0.6974  1.4906
 4721TIP3    H214107   8.256   7.900   2.736 -0.3435  0.7553  0.2546
 4722TIP3   OH214108   0.994   4.370   4.479  0.0588  0.0386  0.5081
 4722TIP3    H114109   1.028   4.314   4.548  3.3587  1.3951  0.1701
 4722TIP3    H214110   1.030   4.332   4.398 -0.2565  0.8364 -0.0188
 4723TIP3   OH214111   4.166   2.335   4.708  0.4632 -0.3586 -0.6691
 4723TIP3    H114112   4.224   2.358   4.780 -1.7357 -0.9031  1.4307
 4723TIP3    H214113   4.215   2.270   4.657  1.8238 -0.5251  0.7690
 4724TIP3   OH214114   0.359   2.512   2.656  0.3698  0.5427 -0.1314
 4724TIP3    H114115   0.391   2.566   2.583  1.1943 -0.4897 -0.5645
 4724TIP3    H214116   0.407   2.430   2.647  1.6242  0.8979  2.4773
 4725TIP3   OH214117   7.187   0.287   1.148 -0.2339  0.5822 -0.5792
 4725TIP3    H114118   7.185   0.224   1.076  1.2256 -0.0982 -0.0539
 4725TIP3    H214119   7.279   0.313   1.155  0.2057 -1.2820  2.5932
 4726TIP3   OH214120   7.294   1.504   2.196 -0.0475 -0.2322 -0.3833
 4726TIP3    H114121   7.389   1.516   2.205  0.1833 -2.0268 -0.0441
 4726TIP3    H214122   7.284   1.446   2.121 -0.9138  0.2304 -0.6398
 4727TIP3   OH214123   0.963   4.871   3.141  0.4742 -0.2136 -0.2796
 4727TIP3    H114124   0.964   4.876   3.045 -0.6259 -0.1110 -0.2927
 4727TIP3    H214125   1.042   4.821   3.162 -0.3207 -2.0198 -1.3504
 4728TIP3   OH214126   2.145   1.905   3.381  0.3133  0.4262  0.3858
 4728TIP3    H114127   2.143   1.967   3.309 -0.9149  0.7869  0.6999
 4728TIP3    H214128   2.090   1.945   3.449  0.5114 -0.4251  1.0772
 4729TIP3   OH214129   5.882   6.977   3.281 -0.4728 -0.0976  0.4760
 4729TIP3    H114130   5.921   6.982   3.194  1.6739  1.3854  1.4440
 4729TIP3    H214131   5.829   7.056   3.288 -0.4455 -0.0945  0.6336
 4730TIP3   OH214132   7.079   3.673   5.075 -0.6137  0.1370  0.8772
 4730TIP3    H114133   7.071   3.751   5.021 -1.9543  0.1286  1.0449
 4730TIP3    H214134   6.993   3.661   5.114 -0.0173 -0.5613  2.0559
 4731TIP3   OH214135   6.437   0.767   5.940 -0.1096 -0.1785  0.0908
 4731TIP3    H114136   6.487   0.790   6.018 -1.1607  0.2482  0.6631
 4731TIP3    H214137   6.422   0.673   5.948 -0.1124 -0.1571  0.3452
 4732TIP3   OH214138   5.959   7.163   4.000  0.3475 -0.4028  0.1032
 4732TIP3    H114139   5.967   7.074   3.966  0.9993  0.0405 -0.9369
 4732TIP3    H214140   5.873   7.193   3.971  0.8172 -0.0980 -1.0431
 4733TIP3   OH214141   3.311   2.392   1.090 -0.5278 -0.4956 -0.1175
 4733TIP3    H114142   3.326   2.472   1.038 -2.3763 -0.9285 -1.4344
 4733TIP3    H214143   3.382   2.333   1.064 -0.6649 -0.2204 -1.2017
 4734TIP3   OH214144   4.695   5.233   3.072  0.1337 -0.1426  0.0698
 4734TIP3    H114145   4.677   5.245   3.165  2.0150 -1.5678  0.6865
 4734TIP3    H214146   4.708   5.139   3.062  0.9612  0.0974 -1.4347
 4735TIP3   OH214147   6.538   7.470   0.270  0.7731  0.1423  0.3368
 4735TIP3    H114148   6.565   7.379   0.257  0.6637  0.1373  0.1374
 4735TIP3    H214149   6.475   7.486   0.200  1.6130  0.7202 -0.3016
 4736TIP3   OH214150   1.918   0.933   5.484 -0.2914  0.1214  0.0940
 4736TIP3    H114151   1.886   0.966   5.568 -0.6369  0.1165 -0.0313
 4736TIP3    H214152   1.851   0.961   5.421 -0.1005  0.0125 -0.1589
 4737TIP3   OH214153   7.727   2.900   3.457 -0.1923 -0.1949  0.4230
 4737TIP3    H114154   7.759   2.818   3.419  0.2452 -1.0861  2.5704
 4737TIP3    H214155   7.803   2.959   3.456 -0.8105  0.6824 -2.2215
 4738TIP3   OH214156   5.815   3.756   5.493 -0.3830  0.4332  0.4096
 4738TIP3    H114157   5.842   3.758   5.401  0.9266 -1.3330  0.7020
 4738TIP3    H214158   5.720   3.754   5.491 -0.3505 -0.3358 -0.9375
 4739TIP3   OH214159   3.441   1.836   0.178  0.0487  0.0838  0.2566
 4739TIP3    H114160   3.356   1.871   0.153 -0.1183 -1.4284 -1.4695
 4739TIP3    H214161   3.496   1.850   0.101  1.2317  0.5531  1.1524
 4740TIP3   OH214162   3.353   0.098   0.201 -0.1432 -0.3079  0.1643
 4740TIP3    H114163   3.383   0.077   0.290  0.3806  0.6912  0.2388
 4740TIP3    H214164   3.339   0.192   0.202 -2.5124 -0.5955 -0.1406
 4741TIP3   OH214165   1.583   3.502   2.053 -0.1929 -0.1159 -0.0015
 4741TIP3    H114166   1.494   3.528   2.078 -0.5107 -1.8442  0.8382
 4741TIP3    H214167   1.574   3.409   2.030  1.6325 -0.7129  1.4879
 4742TIP3   OH214168   5.673   5.533   3.589 -0.5053 -0.2537  0.3891
 4742TIP3    H114169   5.740   5.465   3.598  0.3417  0.6112  0.7588
 4742TIP3    H214170   5.706   5.607   3.640 -0.8799  0.8573 -0.9191
 4743TIP3   OH214171   7.689   4.360   4.108 -0.4006  1.2112 -0.0882
 4743TIP3    H114172   7.771   4.373   4.060 -1.4671 -0.1227 -2.4218
 4743TIP3    H214173   7.671   4.446   4.146  1.9230  1.6054  0.3151
 4744TIP3   OH214174   3.165   5.744   0.692 -0.5272 -0.6972 -0.1305
 4744TIP3    H114175   3.217   5.697   0.627 -1.5827 -2.0399 -0.0289
 4744TIP3    H214176   3.090   5.777   0.643  0.6969  1.9128 -0.4513
 4745TIP3   OH214177   5.747   2.167   4.559 -0.5538 -0.0790 -0.0945
 4745TIP3    H114178   5.783   2.251   4.585 -1.5914  0.5497 -0.6159
 4745TIP3    H214179   5.657   2.168   4.592 -0.4233 -1.1869  0.3182
 4746TIP3   OH214180   2.448   3.774   1.813  0.2020  0.1697  0.2227
 4746TIP3    H114181   2.432   3.849   1.756  1.3901  1.2351  1.2344
 4746TIP3    H214182   2.541   3.777   1.833  0.4519 -2.0331 -0.2715
 4747TIP3   OH214183   2.571   4.446   1.889 -0.6025  0.2112  0.2276
 4747TIP3    H114184   2.599   4.369   1.838 -1.8848 -2.3375  3.0381
 4747TIP3    H214185   2.651   4.479   1.929  0.1545  1.2051 -1.9722
 4748TIP3   OH214186   0.221   5.763   6.039  0.0123 -0.1861  0.3004
 4748TIP3    H114187   0.312   5.756   6.066  0.9995 -1.3175 -2.8201
 4748TIP3    H214188   0.199   5.856   6.050  2.2990  0.5623 -0.8972
 4749TIP3   OH214189   7.623   5.767   5.258 -0.8085 -0.0126 -0.0802
 4749TIP3    H114190   7.560   5.770   5.330  0.4394  3.0951  1.0423
 4749TIP3    H214191   7.569   5.768   5.179 -2.1844 -2.6768  0.7004
 4750TIP3   OH214192   5.172   2.607   1.753  0.6069 -0.4359  0.1283
 4750TIP3    H114193   5.106   2.674   1.768  0.3950 -0.6555  0.1869
 4750TIP3    H214194   5.236   2.648   1.694 -0.1213 -0.5657 -0.7727
 4751TIP3   OH214195   8.036   0.205   3.169  0.2577 -0.3905  0.1682
 4751TIP3    H114196   8.111   0.148   3.153  0.8242  0.3699  0.0665
 4751TIP3    H214197   7.966   0.170   3.113 -0.0162 -2.1273  1.4972
 4752TIP3   OH214198   2.212   1.649   2.904 -0.6663  0.0028  0.3768
 4752TIP3    H114199   2.129   1.619   2.867 -0.9495 -0.2440  1.2009
 4752TIP3    H214200   2.208   1.625   2.996  0.4076 -0.1940  0.3884
 4753TIP3   OH214201   5.531   2.902   4.669 -0.0903  0.0105 -0.2387
 4753TIP3    H114202   5.578   2.854   4.737 -1.4050 -0.9526  0.0245
 4753TIP3    H214203   5.475   2.963   4.717 -1.6706 -1.2752 -0.3694
 4754TIP3   OH214204   7.329   7.655   1.082  0.1308 -0.1606 -0.4205
 4754TIP3    H114205   7.313   7.646   1.176  0.8642  0.6789 -0.2046
 4754TIP3    H214206   7.325   7.750   1.066  1.4787 -0.1811 -0.9628
 4755TIP3   OH214207   7.310   4.561   2.199  0.2782 -0.3958 -0.3690
 4755TIP3    H114208   7.254   4.638   2.207  1.4329  0.5335 -1.0212
 4755TIP3    H214209   7.395   4.595   2.170  0.7523 -1.9288 -0.8884
 4756TIP3   OH214210   6.710   7.423   5.530  0.0475 -0.0415 -0.1206
 4756TIP3    H114211   6.723   7.468   5.614  0.7900  1.3382 -0.9499
 4756TIP3    H214212   6.670   7.340   5.555  0.1209  0.3829  1.5989
 4757TIP3   OH214213   1.892   4.118   1.939 -0.0455  0.4346 -0.1426
 4757TIP3    H114214   1.846   4.069   1.872 -0.4884  0.5927  0.0440
 4757TIP3    H214215   1.980   4.081   1.940 -0.3709 -0.3460 -0.0044
 4758TIP3   OH214216   2.623   3.631   1.063  0.0219  0.0423  0.2139
 4758TIP3    H114217   2.647   3.682   0.986 -0.1930  0.9564  0.7226
 4758TIP3    H214218   2.686   3.659   1.130  0.3913 -0.9573  0.2882
 4759TIP3   OH214219   0.233   1.019   1.394 -0.7779 -0.0865 -0.0049
 4759TIP3    H114220   0.271   1.107   1.382  2.9708 -1.7931 -2.4329
 4759TIP3    H214221   0.165   1.013   1.327 -0.4303  0.6662 -0.4387
 4760TIP3   OH214222   5.385   1.598   4.707 -0.1285  0.1418  0.3846
 4760TIP3    H114223   5.443   1.546   4.763  0.2301  0.7465  0.5875
 4760TIP3    H214224   5.360   1.672   4.762  0.4437  0.8853 -0.3322
 4761TIP3   OH214225   4.229   5.432   1.329 -0.2837  0.3698  0.3691
 4761TIP3    H114226   4.234   5.380   1.249  0.7696  1.9085 -0.6251
 4761TIP3    H214227   4.241   5.369   1.400 -0.4940 -0.9211 -0.7071
 4762TIP3   OH214228   5.092   0.767   6.650  0.4133 -0.5049 -0.1615
 4762TIP3    H114229   5.062   0.731   6.566  0.2188 -0.3874 -0.1421
 4762TIP3    H214230   5.052   0.711   6.716 -0.9246  0.4982 -0.0854
 4763TIP3   OH214231   6.644   4.018   2.059  0.1139  0.2006  0.1332
 4763TIP3    H114232   6.577   4.085   2.047 -0.9081 -0.6482  0.8965
 4763TIP3    H214233   6.727   4.065   2.050 -0.5668  1.2503 -0.9607
 4764TIP3   OH214234   8.070   7.813   6.504  0.2994 -0.5020 -0.3260
 4764TIP3    H114235   8.075   7.786   6.596  0.7307  1.2858  0.2221
 4764TIP3    H214236   8.132   7.756   6.459  1.1993 -0.4247  0.7697
 4765TIP3   OH214237   3.820   5.204   4.168 -0.1695 -0.4193 -0.1164
 4765TIP3    H114238   3.783   5.162   4.090 -1.3105  1.4447 -0.6303
 4765TIP3    H214239   3.915   5.195   4.157 -0.3389 -0.9622 -1.2748
 4766TIP3   OH214240   5.628   4.190   0.769  0.0171  0.0155 -0.2181
 4766TIP3    H114241   5.720   4.194   0.797 -0.0090 -1.1486  0.0960
 4766TIP3    H214242   5.628   4.227   0.681  0.2350  3.0962  0.9647
 4767TIP3   OH214243   6.891   4.379   5.132  0.1555  0.0324 -0.0142
 4767TIP3    H114244   6.916   4.381   5.225  0.5507  0.9797 -0.1358
 4767TIP3    H214245   6.831   4.452   5.122  1.4131  0.9966 -0.8557
 4768TIP3   OH214246   1.411   6.485   0.966 -0.7235 -0.0726  0.4054
 4768TIP3    H114247   1.325   6.488   0.925 -0.4116 -0.5170 -0.2941
 4768TIP3    H214248   1.473   6.497   0.894 -0.1828 -0.4545  0.7960
 4769TIP3   OH214249   1.052   5.355   0.322  0.3400  0.5565  0.3330
 4769TIP3    H114250   1.045   5.434   0.374  0.6698 -0.4427  1.9699
 4769TIP3    H214251   0.972   5.306   0.342  0.5264  0.1087 -0.0105
 4770TIP3   OH214252   0.922   5.749   0.917  0.0457 -0.0169 -0.2283
 4770TIP3    H114253   0.970   5.758   1.000 -0.0737  1.5783 -0.3038
 4770TIP3    H214254   0.915   5.655   0.904  0.2447 -0.3005  1.4805
 4771TIP3   OH214255   1.109   6.025   0.963  0.2911  0.1408 -0.3156
 4771TIP3    H114256   1.056   6.061   1.034 -1.1408 -0.6906 -0.9367
 4771TIP3    H214257   1.118   5.932   0.983 -1.1780 -0.3723 -1.8086
 4772TIP3   OH214258   5.947   6.368   1.922  0.5369 -0.1875  0.0793
 4772TIP3    H114259   5.886   6.417   1.977  0.7189  2.3589 -1.8051
 4772TIP3    H214260   6.009   6.329   1.984 -0.4235  0.8369  1.7659
 4773TIP3   OH214261   1.540   5.789   3.179  0.5106 -0.6028  0.2817
 4773TIP3    H114262   1.624   5.774   3.223  1.5334  0.4534 -1.2198
 4773TIP3    H214263   1.480   5.727   3.220  1.4211  0.2095  3.0357
 4774TIP3   OH214264   5.980   2.034   2.020  0.1302  0.5119 -0.2239
 4774TIP3    H114265   5.910   2.036   1.955 -0.7079 -4.6951  0.0806
 4774TIP3    H214266   6.056   2.000   1.973  1.2177  1.9920  0.3944
 4775TIP3   OH214267   3.796   1.560   1.600 -0.1513  0.4873 -0.3392
 4775TIP3    H114268   3.806   1.642   1.551  0.3619  0.2008 -0.7224
 4775TIP3    H214269   3.786   1.588   1.691  1.7056  0.9297 -0.2203
 4776TIP3   OH214270   6.978   7.791   3.785 -0.6859  0.4854 -0.0477
 4776TIP3    H114271   7.010   7.701   3.777 -0.0232  0.5926  1.2110
 4776TIP3    H214272   6.901   7.794   3.728  0.2352 -0.4006 -1.3958
 4777TIP3   OH214273   6.951   3.517   2.901  0.4926  0.1327  0.5561
 4777TIP3    H114274   6.950   3.439   2.845  0.1770  0.3376  0.2655
 4777TIP3    H214275   6.862   3.553   2.893  0.8826  1.0081 -0.0133
 4778TIP3   OH214276   4.332   4.200   4.361  0.0483  0.3191 -0.3682
 4778TIP3    H114277   4.318   4.263   4.291  2.1393  0.8766 -0.3559
 4778TIP3    H214278   4.340   4.115   4.316  1.0082  0.6235 -0.7970
 4779TIP3   OH214279   3.523   1.888   4.149  0.8602  0.2262  0.2243
 4779TIP3    H114280   3.446   1.881   4.205  0.2999  1.3589 -0.3549
 4779TIP3    H214281   3.589   1.929   4.205  0.8965 -0.3420  0.5973
 4780TIP3   OH214282   7.903   7.219   3.746 -0.2495  0.3618  0.5248
 4780TIP3    H114283   7.839   7.291   3.747  1.3566  1.8515  1.0028
 4780TIP3    H214284   7.964   7.241   3.816  2.2632  0.4255 -1.5467
 4781TIP3   OH214285   0.302  -0.001   1.946  0.3188  0.4933  0.3828
 4781TIP3    H114286   0.349   0.068   1.993 -0.5180  0.4542  1.3354
 4781TIP3    H214287   0.323   0.013   1.854  1.9221  0.6561  0.7477
 4782TIP3   OH214288   0.700   1.413   0.360 -0.0969  0.6293  0.3858
 4782TIP3    H114289   0.632   1.383   0.420 -0.4959  1.8695  0.5802
 4782TIP3    H214290   0.659   1.482   0.309  0.2811 -0.2735 -1.2298
 4783TIP3   OH214291   0.629   3.998   3.669 -0.4533  0.4622 -0.3446
 4783TIP3    H114292   0.587   3.935   3.612 -0.4406  0.0063  0.1351
 4783TIP3    H214293   0.717   3.962   3.684 -1.8486 -1.9771  3.6695
 4784TIP3   OH214294   2.471   6.286   1.567 -0.3212 -0.2387 -0.0443
 4784TIP3    H114295   2.525   6.339   1.626 -1.3215  0.8484 -0.0496
 4784TIP3    H214296   2.410   6.240   1.624  0.4540 -1.3017 -0.0527
 4785TIP3   OH214297   7.408   6.196   2.261 -0.0141 -0.0175  0.3022
 4785TIP3    H114298   7.477   6.259   2.280  0.6773 -0.3851 -0.8829
 4785TIP3    H214299   7.375   6.169   2.347  2.0301 -0.6047  0.9539
 4786TIP3   OH214300   5.114   6.420   0.259  0.1698 -0.4085 -0.0442
 4786TIP3    H114301   5.154   6.448   0.341  1.4942 -1.4639 -0.2907
 4786TIP3    H214302   5.140   6.488   0.196  0.5058 -0.4344  0.0656
 4787TIP3   OH214303   1.085   5.161   5.388 -0.2752 -0.0305  0.2010
 4787TIP3    H114304   1.174   5.131   5.407 -0.3578  0.0685  0.7643
 4787TIP3    H214305   1.030   5.083   5.399 -0.3640  0.0962  0.7116
 4788TIP3   OH214306   0.245   2.612   5.824 -0.8172 -0.2941 -0.1487
 4788TIP3    H114307   0.238   2.519   5.846 -3.2763 -0.2578 -0.5218
 4788TIP3    H214308   0.285   2.613   5.738 -2.3385 -1.1545 -0.9088
 4789TIP3   OH214309   1.969   4.063   3.213  0.1029 -0.2232 -0.4225
 4789TIP3    H114310   1.992   4.154   3.235 -1.3676  0.2279 -0.5958
 4789TIP3    H214311   1.964   4.062   3.118 -0.1449 -0.4081 -0.4084
 4790TIP3   OH214312   4.566   2.423   4.431 -0.1696 -0.5388 -0.5756
 4790TIP3    H114313   4.610   2.444   4.348 -1.3549 -1.5648 -1.5197
 4790TIP3    H214314   4.503   2.494   4.443  1.0020  0.4039  0.2629
 4791TIP3   OH214315   3.657   6.237   0.512  0.1083 -0.0569  0.7493
 4791TIP3    H114316   3.748   6.265   0.522  0.0665  0.1797  0.4587
 4791TIP3    H214317   3.663   6.141   0.503  0.5226  0.1109 -1.3808
 4792TIP3   OH214318   2.424   5.547   0.916 -0.4464 -0.2735  0.0482
 4792TIP3    H114319   2.457   5.630   0.950 -0.2738 -1.0031  1.7212
 4792TIP3    H214320   2.335   5.566   0.887 -0.1533  0.6471 -0.2967
 4793TIP3   OH214321   1.410   4.010   2.434 -0.3380  0.6338  0.2466
 4793TIP3    H114322   1.431   3.990   2.343 -1.9626  2.4515 -0.5981
 4793TIP3    H214323   1.458   3.944   2.484  0.3778 -0.6108 -1.9158
 4794TIP3   OH214324   7.861   4.471   1.188 -0.0280 -0.3707  0.3242
 4794TIP3    H114325   7.941   4.419   1.197 -0.6369 -1.7763 -1.6355
 4794TIP3    H214326   7.867   4.536   1.258  1.2789 -2.4149  2.2695
 4795TIP3   OH214327   3.459   1.026   2.658 -0.2980 -0.3638 -0.0911
 4795TIP3    H114328   3.432   0.935   2.671  2.0938 -0.8461  2.4521
 4795TIP3    H214329   3.536   1.020   2.602 -0.8896  0.2670 -1.0018
 4796TIP3   OH214330   3.712   0.565   3.946 -0.2721  0.0436 -0.0651
 4796TIP3    H114331   3.683   0.633   4.006  0.7488 -1.6100  2.4378
 4796TIP3    H214332   3.777   0.609   3.890  0.6436  1.0953  1.7335
 4797TIP3   OH214333   3.787   3.794   0.374 -0.7233  0.4269  0.3024
 4797TIP3    H114334   3.742   3.827   0.296 -2.4963 -0.5015  0.8934
 4797TIP3    H214335   3.754   3.705   0.386 -0.6604  0.6153  2.2412
 4798TIP3   OH214336   5.486   0.473   0.205 -0.1688 -0.4235 -0.5516
 4798TIP3    H114337   5.571   0.494   0.166 -0.0920 -0.1928 -0.2648
 4798TIP3    H214338   5.439   0.557   0.206  0.0134 -0.3254  0.2966
 4799TIP3   OH214339   1.689   1.634   5.006  0.2388 -0.6538 -0.0026
 4799TIP3    H114340   1.759   1.573   5.031  1.6923  0.4404 -1.2244
 4799TIP3    H214341   1.691   1.635   4.910  0.3566  1.4095 -0.0144
 4800TIP3   OH214342   8.237   6.326   5.187  0.5014 -0.4188  0.0396
 4800TIP3    H114343   8.317   6.379   5.186  0.2661  0.0828  2.4861
 4800TIP3    H214344   8.226   6.300   5.278 -1.9827 -0.7432 -0.2856
 4801TIP3   OH214345   4.686   4.646   4.159  0.0611 -0.6742  0.5682
 4801TIP3    H114346   4.770   4.691   4.161  0.3635 -1.0944 -0.8762
 4801TIP3    H214347   4.700   4.565   4.207  0.5569 -0.8365  0.1551
 4802TIP3   OH214348   6.424   4.076   4.434  0.0319 -0.4058  0.6943
 4802TIP3    H114349   6.354   4.027   4.391 -0.7854  0.7105  0.7044
 4802TIP3    H214350   6.379   4.132   4.497  0.9731  0.0377  0.9961
 4803TIP3   OH214351   1.938   5.230   4.183 -0.1520 -0.0885 -0.3606
 4803TIP3    H114352   1.989   5.237   4.102 -0.8874 -0.0939 -0.8344
 4803TIP3    H214353   1.910   5.138   4.186 -0.0008 -0.1245 -0.0203
 4804TIP3   OH214354   3.709   5.133   3.721  0.6016 -0.4809 -0.2476
 4804TIP3    H114355   3.686   5.082   3.643 -3.1910  2.1022 -1.0865
 4804TIP3    H214356   3.768   5.202   3.689 -0.9420  0.5701 -0.9221
 4805TIP3   OH214357   6.990   1.893   1.961 -0.2489  0.3574  0.0600
 4805TIP3    H114358   6.986   1.931   1.873  0.8319 -0.0468 -0.1781
 4805TIP3    H214359   7.044   1.815   1.951 -0.5693  0.0019  0.9842
 4806TIP3   OH214360   3.377   6.417   3.194  0.0313 -0.3036 -0.5996
 4806TIP3    H114361   3.345   6.476   3.262 -1.1809  1.5684 -2.6716
 4806TIP3    H214362   3.461   6.386   3.227 -0.5435  0.4471  1.7542
 4807TIP3   OH214363   5.147   7.249   0.983  0.0826 -0.0236  0.4268
 4807TIP3    H114364   5.184   7.192   1.050  0.4267 -0.7155 -0.3344
 4807TIP3    H214365   5.212   7.249   0.913 -0.1353  0.9241  0.2105
 4808TIP3   OH214366   0.843   7.632   6.133  0.1932  0.2274 -0.1669
 4808TIP3    H114367   0.801   7.718   6.130 -1.1004 -0.4052 -1.4534
 4808TIP3    H214368   0.839   7.606   6.225 -0.9738  0.8098 -0.0378
 4809TIP3   OH214369   2.992   1.731   1.681  0.1411 -0.1332 -0.2881
 4809TIP3    H114370   2.931   1.667   1.644  0.7067 -0.0432 -1.4517
 4809TIP3    H214371   3.079   1.694   1.662  0.4600  0.3948  0.1141
 4810TIP3   OH214372   5.874   1.693   6.450 -0.2390 -0.3068  0.5114
 4810TIP3    H114373   5.819   1.671   6.525 -0.3403  0.5194  0.6935
 4810TIP3    H214374   5.909   1.780   6.471 -0.2433 -0.0818 -0.3782
 4811TIP3   OH214375   6.421   2.064   1.659 -0.3427  0.3123 -0.2060
 4811TIP3    H114376   6.461   1.977   1.663  0.2045  0.5580 -0.0943
 4811TIP3    H214377   6.383   2.069   1.571 -1.2138 -0.3889  0.1282
 4812TIP3   OH214378   4.927   0.815   1.722 -0.3213 -0.2231  0.3589
 4812TIP3    H114379   4.915   0.875   1.648 -1.4201  0.6109  1.1783
 4812TIP3    H214380   4.846   0.823   1.772  0.1362 -1.2785  1.3050
 4813TIP3   OH214381   7.338   7.056   3.257  0.3039 -0.3378  0.1519
 4813TIP3    H114382   7.306   7.145   3.244 -2.5644 -0.9855  1.9800
 4813TIP3    H214383   7.315   7.010   3.177  0.5607  0.2215 -0.2502
 4814TIP3   OH214384   0.548   6.996   1.755  0.1360 -0.2390  0.0033
 4814TIP3    H114385   0.530   7.089   1.760  0.0043 -0.3310  1.8996
 4814TIP3    H214386   0.642   6.991   1.735  0.0443  0.2810 -0.5854
 4815TIP3   OH214387   6.345   0.707   0.692  0.2584 -0.1490  0.1748
 4815TIP3    H114388   6.277   0.774   0.688  1.0296  0.6412 -0.1874
 4815TIP3    H214389   6.327   0.650   0.618  0.1697  0.2421 -0.1089
 4816TIP3   OH214390   1.154   2.655   3.038 -0.1051  0.1172 -0.2172
 4816TIP3    H114391   1.231   2.712   3.038  0.7012 -0.9281 -1.2803
 4816TIP3    H214392   1.184   2.574   3.079 -1.1299  0.2762  0.9114
 4817TIP3   OH214393   4.172   2.542   0.124  0.4019 -0.2072 -0.4685
 4817TIP3    H114394   4.077   2.534   0.125  0.3534  0.3301 -0.2818
 4817TIP3    H214395   4.203   2.466   0.174  0.1049 -0.7379 -1.0795
 4818TIP3   OH214396   8.027   5.927   1.060 -0.1787 -0.2813 -0.0122
 4818TIP3    H114397   7.970   5.887   0.995 -0.1607 -2.2294  1.0964
 4818TIP3    H214398   8.113   5.929   1.019 -0.4702  0.0146 -0.6284
 4819TIP3   OH214399   3.042   2.640   2.420 -0.4741 -0.5386 -0.1267
 4819TIP3    H114400   3.113   2.617   2.480  0.1232 -0.3947 -0.7514
 4819TIP3    H214401   2.983   2.565   2.422 -0.9878 -0.1230  1.3706
 4820TIP3   OH214402   5.512   1.986   2.422  0.4082  0.5853  0.0119
 4820TIP3    H114403   5.511   1.901   2.465 -0.0957  0.7489  0.3301
 4820TIP3    H214404   5.572   2.039   2.475  0.0030  0.7033  0.3587
 4821TIP3   OH214405   5.092   2.044   4.433  0.0485 -0.4285 -0.5463
 4821TIP3    H114406   5.123   2.118   4.486  1.0525 -1.0965 -0.1814
 4821TIP3    H214407   5.010   2.076   4.393  1.7192  1.8160 -2.4733
 4822TIP3   OH214408   4.891   2.707   2.048 -0.4476  0.1385  0.1393
 4822TIP3    H114409   4.896   2.727   2.141 -1.0543  0.1618  0.1732
 4822TIP3    H214410   4.801   2.677   2.035 -0.1197 -0.6968 -0.2729
 4823TIP3   OH214411   6.564   7.238   5.634  0.0022 -0.5298 -0.2028
 4823TIP3    H114412   6.596   7.176   5.699 -0.4876 -0.6422 -0.0622
 4823TIP3    H214413   6.469   7.238   5.646  0.0162  0.4595 -0.0120
 4824TIP3   OH214414   3.287   1.010   1.625  0.3136  0.3566  0.1670
 4824TIP3    H114415   3.259   1.005   1.717 -0.1909  1.1719  0.0675
 4824TIP3    H214416   3.315   1.101   1.614 -3.1709  1.3988 -1.4572
 4825TIP3   OH214417   0.309   1.289   2.115  0.4518  0.2802  0.3096
 4825TIP3    H114418   0.272   1.374   2.093 -0.9909 -0.1958  0.7960
 4825TIP3    H214419   0.292   1.278   2.208  0.3254 -0.6660  0.1928
 4826TIP3   OH214420   2.430   0.990   4.955 -0.1144 -0.2769  0.2618
 4826TIP3    H114421   2.493   1.061   4.970  1.2974 -1.1738 -1.1069
 4826TIP3    H214422   2.481   0.910   4.966 -1.2403 -1.0651 -0.0578
 4827TIP3   OH214423   6.393   1.276   6.094 -0.4635 -0.4323  0.1110
 4827TIP3    H114424   6.484   1.292   6.116 -0.4631 -1.0097  0.5581
 4827TIP3    H214425   6.345   1.350   6.133 -0.0963  0.3989 -0.9686
 4828TIP3   OH214426   2.156   7.003   2.734  0.4100 -0.1831 -0.0904
 4828TIP3    H114427   2.165   6.923   2.786 -2.2371 -0.0781  0.6702
 4828TIP3    H214428   2.110   6.975   2.654  0.5503  0.3788 -0.3727
 4829TIP3   OH214429   7.122   6.951   3.558 -0.4240 -0.2464  0.2277
 4829TIP3    H114430   7.164   6.950   3.472 -0.5062  1.1820  0.1619
 4829TIP3    H214431   7.195   6.939   3.620 -0.4285 -1.8437 -0.0299
 4830TIP3   OH214432   7.212   4.635   5.831  0.3579 -0.0199  0.4102
 4830TIP3    H114433   7.268   4.590   5.768 -1.4998 -2.5492  0.4410
 4830TIP3    H214434   7.198   4.722   5.793 -0.1044 -1.2066 -2.3294
 4831TIP3   OH214435   7.269   4.833   2.345  0.1143 -0.0052 -0.1905
 4831TIP3    H114436   7.272   4.876   2.430 -0.8758 -0.4489  0.0902
 4831TIP3    H214437   7.281   4.903   2.282  2.8513  0.0775  0.3186
 4832TIP3   OH214438   0.945   4.094   1.701  0.4460 -0.1366 -0.4479
 4832TIP3    H114439   0.910   4.164   1.647  1.9236  0.1263 -1.1240
 4832TIP3    H214440   1.039   4.095   1.683  0.8529 -0.6653  1.4184
 4833TIP3   OH214441   1.589   5.189   0.011 -0.5937 -0.6463  0.3482
 4833TIP3    H114442   1.624   5.190   0.100  0.0433 -0.5527  0.1051
 4833TIP3    H214443   1.503   5.148   0.019 -0.7118 -0.2721  1.0655
 4834TIP3   OH214444   7.681   0.311   6.099  0.1174 -0.2909  0.0034
 4834TIP3    H114445   7.644   0.353   6.022  0.2859  0.9410  0.5782
 4834TIP3    H214446   7.754   0.367   6.124  1.1496 -1.6064  0.0606
 4835TIP3   OH214447   6.603   7.173   3.983 -0.1179  0.2108 -0.3386
 4835TIP3    H114448   6.567   7.097   4.029 -1.0658  1.8503  1.8235
 4835TIP3    H214449   6.692   7.147   3.959 -0.4894 -1.6338  0.1535
 4836TIP3   OH214450   4.295   2.501   5.207  0.1427  0.1284 -0.5664
 4836TIP3    H114451   4.226   2.475   5.267  0.2758 -2.3500 -1.3974
 4836TIP3    H214452   4.250   2.552   5.140 -1.0485 -1.9237 -1.4008
 4837TIP3   OH214453   5.455   5.763   1.740 -0.1120  0.0256  1.0993
 4837TIP3    H114454   5.446   5.772   1.645 -1.1938 -1.3130  1.0434
 4837TIP3    H214455   5.549   5.755   1.755  0.0012 -1.0451 -0.0144
 4838TIP3   OH214456   2.524   2.354   4.935 -0.6518 -0.6697  0.1902
 4838TIP3    H114457   2.501   2.271   4.895 -1.0202  0.1004 -1.2896
 4838TIP3    H214458   2.499   2.420   4.869  1.7270  0.4735  0.3269
 4839TIP3   OH214459   6.360   2.447   0.832  0.6408 -0.5172  0.4839
 4839TIP3    H114460   6.359   2.353   0.848  2.3534 -0.6356  0.0770
 4839TIP3    H214461   6.345   2.486   0.919  2.5628 -1.1819  1.1678
 4840TIP3   OH214462   5.972   3.892   1.824 -0.5780  0.4300  0.0009
 4840TIP3    H114463   5.975   3.815   1.881 -0.0331  0.4249 -0.0223
 4840TIP3    H214464   5.886   3.888   1.782 -0.3669 -0.4466 -0.3784
 4841TIP3   OH214465   5.612   7.242   6.123  0.1953 -0.1130  0.0161
 4841TIP3    H114466   5.552   7.192   6.178  0.2186  1.4684  1.5577
 4841TIP3    H214467   5.570   7.328   6.115  2.2203  1.0535  1.1480
 4842TIP3   OH214468   3.625   0.240   0.352  0.5559 -0.2338  0.1468
 4842TIP3    H114469   3.689   0.174   0.324  1.0316  0.1146  0.3979
 4842TIP3    H214470   3.617   0.299   0.278  0.8471 -0.0411  0.2651
 4843TIP3   OH214471   1.671   3.326   4.743  0.3486  0.4258  0.2205
 4843TIP3    H114472   1.655   3.249   4.688 -0.0027  0.6948 -0.0551
 4843TIP3    H214473   1.637   3.302   4.829  1.2735 -0.1523  0.4384
 4844TIP3   OH214474   4.414   7.831   2.043 -0.0343 -0.1904 -0.1662
 4844TIP3    H114475   4.463   7.760   2.084 -0.7019 -0.6460 -0.1606
 4844TIP3    H214476   4.325   7.820   2.073 -0.0247  1.0410  0.3564
 4845TIP3   OH214477   3.047   2.620   1.698 -0.2214  0.1819 -0.9751
 4845TIP3    H114478   3.061   2.549   1.635 -0.1810 -0.0285 -0.7299
 4845TIP3    H214479   3.127   2.673   1.694 -0.2204  0.1705 -1.1010
 4846TIP3   OH214480   1.214   1.465   0.509 -0.1498 -0.1499 -0.6481
 4846TIP3    H114481   1.258   1.549   0.498  0.2092 -0.0514  1.2842
 4846TIP3    H214482   1.284   1.400   0.499  0.3620 -0.0248  1.5800
 4847TIP3   OH214483   3.365   5.470   6.060 -0.1228  0.1306  0.3233
 4847TIP3    H114484   3.310   5.449   5.985 -0.3944 -0.8482  0.7725
 4847TIP3    H214485   3.449   5.496   6.022 -0.9979  2.0782 -0.3798
 4848TIP3   OH214486   2.391   3.011   0.208  0.4184 -0.4136  0.2202
 4848TIP3    H114487   2.431   2.968   0.284  0.2500  0.2547  0.6989
 4848TIP3    H214488   2.301   2.978   0.207  0.6151 -0.9602 -0.1153
 4849TIP3   OH214489   1.350   6.422   6.302 -0.0318  0.4697  0.1033
 4849TIP3    H114490   1.439   6.442   6.272  0.1773  0.6220  0.8006
 4849TIP3    H214491   1.334   6.333   6.273  1.0101 -0.1898  1.4519
 4850TIP3   OH214492   4.615   0.328   6.218  0.2408  0.3722  0.3321
 4850TIP3    H114493   4.696   0.378   6.234  1.4209 -1.1758 -0.5251
 4850TIP3    H214494   4.631   0.283   6.135 -0.9451 -1.0656  0.8463
 4851TIP3   OH214495   4.111   7.453   2.641 -0.0845  0.3141  0.9441
 4851TIP3    H114496   4.125   7.383   2.705  2.7518  0.2360  0.3663
 4851TIP3    H214497   4.189   7.508   2.648 -0.5735  1.3699 -1.1278
 4852TIP3   OH214498   2.299   7.441   0.690  0.1641 -0.2784  0.2313
 4852TIP3    H114499   2.356   7.371   0.656  0.3787  0.0230 -0.0379
 4852TIP3    H214500   2.336   7.463   0.775  1.1954  0.7546 -0.4582
 4853TIP3   OH214501   7.314   5.061   6.513  0.3832  0.1025 -0.0362
 4853TIP3    H114502   7.301   5.001   6.587  0.5155 -1.9966 -1.6481
 4853TIP3    H214503   7.389   5.115   6.539  0.0133 -0.1081  1.6147
 4854TIP3   OH214504   3.639   1.942   3.905 -0.7708  0.1907 -0.0170
 4854TIP3    H114505   3.603   1.914   3.989  0.4358  0.1218  0.5036
 4854TIP3    H214506   3.725   1.979   3.928 -1.2225  1.9204 -0.9918
 4855TIP3   OH214507   1.717   7.559   0.133  0.2486 -0.6801  0.7016
 4855TIP3    H114508   1.710   7.533   0.041 -1.4033  2.1817 -0.1207
 4855TIP3    H214509   1.707   7.654   0.131 -0.4630 -0.5893  3.8971
 4856TIP3   OH214510   1.353   6.777   3.518  0.3845 -0.2843 -0.3578
 4856TIP3    H114511   1.387   6.840   3.455 -0.6879  1.8015  1.0187
 4856TIP3    H214512   1.420   6.708   3.521  1.6699  0.8156 -1.8679
 4857TIP3   OH214513   3.347   1.162   5.904  0.2089  0.3983  0.1755
 4857TIP3    H114514   3.353   1.221   5.979  0.0648  0.2760  0.2840
 4857TIP3    H214515   3.258   1.174   5.871  0.4809  0.9346 -0.3751
 4858TIP3   OH214516   7.186   3.376   2.294  0.2290  0.6935 -0.0704
 4858TIP3    H114517   7.171   3.310   2.363  1.1440  1.2877  0.7193
 4858TIP3    H214518   7.098   3.395   2.261 -0.2054  0.1763  0.7272
 4859TIP3   OH214519   4.316   1.169   6.615  0.5870 -0.5716 -0.0642
 4859TIP3    H114520   4.393   1.114   6.624 -1.2283 -3.1500  0.7921
 4859TIP3    H214521   4.249   1.127   6.669 -0.7399  2.9937  1.4058
 4860TIP3   OH214522   6.499   2.843   2.757  0.0664  0.1092 -0.4162
 4860TIP3    H114523   6.589   2.872   2.745 -0.3674  1.3714 -0.7416
 4860TIP3    H214524   6.445   2.918   2.731 -1.0748 -0.2546  0.7672
 4861TIP3   OH214525   4.166   4.852   1.942  0.2784  0.2640 -0.3389
 4861TIP3    H114526   4.124   4.921   1.892  0.0561 -0.2640 -0.8853
 4861TIP3    H214527   4.259   4.858   1.919  0.4386  1.0558  0.4304
 4862TIP3   OH214528   1.485   2.256   2.703 -0.0999 -0.0507  0.5027
 4862TIP3    H114529   1.576   2.229   2.691 -0.2334 -0.3329  0.1122
 4862TIP3    H214530   1.475   2.333   2.647 -0.2771 -0.4057  0.0397
 4863TIP3   OH214531   6.307   0.516   0.491  0.6466  0.0134 -0.3950
 4863TIP3    H114532   6.378   0.452   0.493 -1.1381 -2.0632  0.1479
 4863TIP3    H214533   6.304   0.545   0.400  1.5392 -0.6248 -0.6411
 4864TIP3   OH214534   3.891   1.990   5.084 -0.2474 -0.2271  0.1031
 4864TIP3    H114535   3.846   2.074   5.084  0.5470  0.2055 -0.0426
 4864TIP3    H214536   3.976   2.008   5.044  0.0178 -1.0493  0.2749
 4865TIP3   OH214537   5.512   6.542   2.298 -0.5230  0.2240 -0.3117
 4865TIP3    H114538   5.576   6.561   2.229  1.5407  0.0521  1.4582
 4865TIP3    H214539   5.472   6.627   2.318 -1.4904  0.1973 -1.9881
 4866TIP3   OH214540   2.851   2.450   2.433 -0.1374  0.5007 -0.1842
 4866TIP3    H114541   2.824   2.421   2.520 -2.0102  0.0472 -0.8559
 4866TIP3    H214542   2.792   2.522   2.412  0.3063  0.6232 -1.0760
 4867TIP3   OH214543   1.141   0.821   4.715  0.0312  0.3125  0.4859
 4867TIP3    H114544   1.137   0.833   4.620 -0.4010 -0.8387  0.3363
 4867TIP3    H214545   1.235   0.816   4.734  0.1139 -0.9815 -0.1239
 4868TIP3   OH214546   3.903   1.768   6.145 -0.0280  0.3020 -0.0448
 4868TIP3    H114547   3.997   1.753   6.152 -0.4092 -2.7148  0.0755
 4868TIP3    H214548   3.872   1.702   6.083 -2.1662  0.6675  0.5285
 4869TIP3   OH214549   5.285   4.393   2.360  0.2181  0.4027 -0.2772
 4869TIP3    H114550   5.242   4.459   2.414  0.4875  0.6729 -0.3846
 4869TIP3    H214551   5.277   4.428   2.271  0.6265  0.4416 -0.3012
 4870TIP3   OH214552   7.752   7.071   3.058 -0.1303  0.2842 -0.3615
 4870TIP3    H114553   7.764   7.142   2.995 -1.8688 -0.1186 -1.2021
 4870TIP3    H214554   7.702   7.112   3.129 -0.8325  0.0011 -0.6861
 4871TIP3   OH214555   4.317   2.839   2.169 -0.1583  0.3853  0.1336
 4871TIP3    H114556   4.233   2.884   2.182  0.7800  1.8417  1.4618
 4871TIP3    H214557   4.293   2.757   2.127 -2.1995  1.0200 -0.0688
 4872TIP3   OH214558   0.743   2.901   2.562  0.6060 -0.1663  0.5423
 4872TIP3    H114559   0.766   2.826   2.617  3.4540  0.6233  0.5826
 4872TIP3    H214560   0.802   2.895   2.487 -1.6064  0.0834 -1.3245
 4873TIP3   OH214561   0.127   7.322   4.865  0.6133  0.3433  0.3935
 4873TIP3    H114562   0.094   7.396   4.813 -0.9043 -0.5132  0.0871
 4873TIP3    H214563   0.138   7.252   4.801 -0.9386 -0.6185  1.1323
 4874TIP3   OH214564   6.102   1.746   5.219 -0.4254 -0.5988  0.0430
 4874TIP3    H114565   6.037   1.788   5.275  0.3953 -1.1583  1.4842
 4874TIP3    H214566   6.058   1.733   5.136 -3.0078 -3.1338  1.6420
 4875TIP3   OH214567   2.775   6.480   3.413  0.2282 -0.5296 -0.0141
 4875TIP3    H114568   2.840   6.478   3.342 -0.5894 -2.7496 -0.7744
 4875TIP3    H214569   2.814   6.427   3.483  0.9543  1.5058  1.2039
 4876TIP3   OH214570   0.084   6.019   3.023 -0.4355 -0.3851  0.3358
 4876TIP3    H114571   0.028   5.975   2.960 -0.2464 -0.0226 -0.0845
 4876TIP3    H214572   0.140   6.076   2.971  0.0524 -0.4421  0.7845
 4877TIP3   OH214573   8.199   4.488   0.117  0.4291  0.6972  0.0813
 4877TIP3    H114574   8.192   4.432   0.040  0.3407  0.1219  0.4946
 4877TIP3    H214575   8.265   4.445   0.171  0.0019  0.7223  0.6313
 4878TIP3   OH214576   3.503   5.534   1.236 -0.1225  0.2900 -0.4094
 4878TIP3    H114577   3.549   5.609   1.273 -0.1250  0.7494 -1.2946
 4878TIP3    H214578   3.414   5.540   1.271  0.2245 -0.0624  0.5598
 4879TIP3   OH214579   0.996   1.330   3.823  0.1281  0.0848 -0.4945
 4879TIP3    H114580   0.923   1.296   3.772 -0.7001  0.0510  0.6744
 4879TIP3    H214581   1.066   1.342   3.760  0.0421 -2.5668 -1.1743
 4880TIP3   OH214582   1.305   7.560   1.155  0.1795 -0.0105  0.5084
 4880TIP3    H114583   1.327   7.467   1.168  1.1856  0.1812  0.2764
 4880TIP3    H214584   1.384   7.598   1.117 -0.2327  0.9421  0.5767
 4881TIP3   OH214585   1.201   2.591   5.622 -0.1101 -0.2846  0.0806
 4881TIP3    H114586   1.205   2.498   5.647 -0.0497  0.4350  3.2326
 4881TIP3    H214587   1.275   2.603   5.562  1.7157 -1.7432  1.8864
 4882TIP3   OH214588   4.014   7.647   1.702 -0.3643 -0.0459 -0.0624
 4882TIP3    H114589   3.956   7.587   1.750 -1.1998 -0.8410 -1.9699
 4882TIP3    H214590   3.955   7.701   1.650  0.5268  0.7817 -0.2581
 4883TIP3   OH214591   5.474   1.353   1.861 -0.2712  0.4926  0.5243
 4883TIP3    H114592   5.468   1.445   1.833  0.7434  1.2038  2.4334
 4883TIP3    H214593   5.538   1.355   1.933 -1.5689 -1.4223  1.8065
 4884TIP3   OH214594   1.221   0.536   1.937 -0.0435 -0.2167 -0.1091
 4884TIP3    H114595   1.302   0.486   1.923  0.7386  0.6974  0.9904
 4884TIP3    H214596   1.247   0.627   1.930 -1.0668  0.0899 -0.0945
 4885TIP3   OH214597   6.733   1.975   3.031 -0.4852  0.0808 -0.0682
 4885TIP3    H114598   6.760   1.901   3.085  0.0846 -0.2001 -0.7120
 4885TIP3    H214599   6.810   2.033   3.031 -0.5555  0.1744 -0.4035
 4886TIP3   OH214600   6.319   7.004   2.617 -0.4285 -0.0472  0.0733
 4886TIP3    H114601   6.354   7.024   2.530  0.5877 -1.2568  0.1727
 4886TIP3    H214602   6.243   7.061   2.626  0.6568  1.6335 -0.7597
 4887TIP3   OH214603   7.837   5.312   6.526 -0.5550 -0.0766  0.2159
 4887TIP3    H114604   7.874   5.358   6.602  0.2896  1.1501 -0.9084
 4887TIP3    H214605   7.776   5.248   6.565  2.1042 -1.6630  2.1234
 4888TIP3   OH214606   2.605   5.817   6.319 -0.0645 -0.0790  0.5702
 4888TIP3    H114607   2.615   5.805   6.413 -0.7149 -1.7890  0.4599
 4888TIP3    H214608   2.678   5.768   6.281  0.1405  0.5247  0.1707
 4889TIP3   OH214609   5.029   2.245   4.978 -0.4867  0.0642  0.1606
 4889TIP3    H114610   4.966   2.207   4.916 -1.1206  0.7568  0.3598
 4889TIP3    H214611   5.113   2.239   4.933 -0.9836  0.8550 -0.9271
 4890TIP3   OH214612   0.599   2.395   0.572 -0.3615 -0.5413  0.4803
 4890TIP3    H114613   0.657   2.368   0.500  1.3571  0.2653  1.4938
 4890TIP3    H214614   0.620   2.487   0.585 -2.0107 -0.1915  0.8145
 4891TIP3   OH214615   5.943   7.048   4.660  0.2161  0.4939  0.2483
 4891TIP3    H114616   5.951   6.991   4.584  0.5031  0.9702 -0.0850
 4891TIP3    H214617   5.849   7.047   4.681  0.2159 -0.0570  0.2167
 4892TIP3   OH214618   6.465   2.110   5.091 -0.6556 -0.0998  0.4698
 4892TIP3    H114619   6.417   2.191   5.109 -0.4927  0.3079 -0.8320
 4892TIP3    H214620   6.477   2.110   4.996  1.6830 -0.3173  0.7099
 4893TIP3   OH214621   1.812   4.938   0.986  0.1709 -0.1637  0.3563
 4893TIP3    H114622   1.727   4.927   0.944  0.5764  0.9367 -0.7966
 4893TIP3    H214623   1.848   4.850   0.992  0.0968 -0.3704 -1.6317
 4894TIP3   OH214624   0.278   4.647   5.244  0.1596  0.5271 -0.0633
 4894TIP3    H114625   0.334   4.646   5.167  0.4512 -0.8556  0.1298
 4894TIP3    H214626   0.320   4.707   5.305 -1.4469  3.7587 -1.8837
 4895TIP3   OH214627   1.395   4.559   2.204  0.1194  0.3992 -0.4296
 4895TIP3    H114628   1.310   4.597   2.182 -0.5741 -0.6849  0.2414
 4895TIP3    H214629   1.387   4.467   2.179  1.3865  0.4411 -1.0734
 4896TIP3   OH214630   4.620   7.384   1.148 -0.3140  0.4973  0.5428
 4896TIP3    H114631   4.674   7.448   1.193 -1.7209  2.0707  0.0966
 4896TIP3    H214632   4.540   7.379   1.201 -0.0385 -1.3181  0.8604
 4897TIP3   OH214633   4.522   2.185   0.581 -0.3478  0.1157 -0.6414
 4897TIP3    H114634   4.512   2.108   0.524  2.2370 -0.7425 -0.0791
 4897TIP3    H214635   4.505   2.152   0.669  2.5073 -0.3825 -0.1729
 4898TIP3   OH214636   7.077   7.278   5.290  0.4736 -0.0906 -0.3533
 4898TIP3    H114637   7.137   7.221   5.243  0.8489 -0.2360  0.2951
 4898TIP3    H214638   7.001   7.285   5.233  0.7189 -0.6612 -0.7581
 4899TIP3   OH214639   5.516   4.265   5.041  0.2419 -0.3637 -0.0648
 4899TIP3    H114640   5.594   4.291   5.091  1.2082 -1.3528 -0.9954
 4899TIP3    H214641   5.450   4.245   5.107  0.0718  2.4454  0.7349
 4900TIP3   OH214642   3.006   3.524   3.929 -0.7950 -0.4750 -0.0642
 4900TIP3    H114643   3.070   3.511   3.859 -0.5656 -0.8517  0.2117
 4900TIP3    H214644   3.040   3.473   4.002 -1.2366 -0.3984  0.1980
 4901TIP3   OH214645   5.408   5.889   3.335 -0.1711 -0.0532  0.0266
 4901TIP3    H114646   5.472   5.902   3.405 -0.5511  1.0050  0.1954
 4901TIP3    H214647   5.350   5.821   3.369 -0.3882  0.4870  0.7736
 4902TIP3   OH214648   0.612   6.264   3.777  0.1056  0.7060  0.1045
 4902TIP3    H114649   0.686   6.255   3.717 -1.1240  1.6578 -1.6434
 4902TIP3    H214650   0.620   6.353   3.812  1.4177 -0.1879  2.2918
 4903TIP3   OH214651   0.959   4.751   1.431  0.0404  0.0165 -0.6358
 4903TIP3    H114652   0.999   4.671   1.398 -0.7634 -0.1421 -1.2554
 4903TIP3    H214653   0.871   4.725   1.456  0.0198  0.5533 -0.1368
 4904TIP3   OH214654   8.206   7.059   1.758 -0.0046  1.0660  0.1526
 4904TIP3    H114655   8.133   7.007   1.793 -1.0528  1.3838 -1.4917
 4904TIP3    H214656   8.231   7.013   1.678  0.4456  1.9427 -0.2126
 4905TIP3   OH214657   0.150   6.855   6.271  0.2544  0.4949  0.5597
 4905TIP3    H114658   0.135   6.939   6.316  1.5527  0.9640  0.1824
 4905TIP3    H214659   0.127   6.789   6.336 -1.4024  1.1232  0.6538
 4906TIP3   OH214660   7.056   7.015   0.149  0.7539  0.4366 -0.1606
 4906TIP3    H114661   7.116   6.941   0.134  0.6197 -0.0975  1.7083
 4906TIP3    H214662   7.093   7.060   0.225  0.4964  1.9620 -0.9116
 4907TIP3   OH214663   4.876   4.444   3.972  0.2866  0.5333 -0.1417
 4907TIP3    H114664   4.830   4.505   4.030  0.2527 -0.5774  1.0521
 4907TIP3    H214665   4.958   4.425   4.019 -0.2920 -1.3400  0.1757
 4908TIP3   OH214666   7.676   2.471   4.931  0.2613 -0.0848 -0.4225
 4908TIP3    H114667   7.722   2.541   4.883  2.0527  0.5436  1.9845
 4908TIP3    H214668   7.592   2.510   4.955 -1.1033 -0.7417 -3.6789
 4909TIP3   OH214669   6.409   5.283   0.985 -0.2718  0.2987 -0.3280
 4909TIP3    H114670   6.438   5.370   0.959 -0.0845  0.0224 -1.0856
 4909TIP3    H214671   6.440   5.273   1.075 -0.1919  0.9623 -0.2770
 4910TIP3   OH214672   0.544   2.044   6.541 -0.0485  0.1805  0.2247
 4910TIP3    H114673   0.469   2.101   6.554  0.2695  0.7994 -0.5716
 4910TIP3    H214674   0.620   2.097   6.565  0.1809 -0.2229  0.3990
 4911TIP3   OH214675   6.183   4.778   4.999  0.1060  0.1943 -0.2202
 4911TIP3    H114676   6.103   4.809   5.043  0.0136  1.4242 -1.1919
 4911TIP3    H214677   6.152   4.713   4.936  0.3227 -2.2145  1.9928
 4912TIP3   OH214678   0.095   1.643   5.608  0.0318 -0.3670  0.1357
 4912TIP3    H114679   0.187   1.637   5.585 -0.0337  0.5576 -0.4516
 4912TIP3    H214680   0.092   1.623   5.701  0.3557 -3.8346 -0.4830
 4913TIP3   OH214681   3.628   0.338   1.817  0.1353  0.4634 -0.6221
 4913TIP3    H114682   3.602   0.428   1.836 -0.0469  0.3353 -0.2564
 4913TIP3    H214683   3.718   0.331   1.848 -0.3833  0.0518  0.9130
 4914TIP3   OH214684  -0.005   0.155   4.158 -0.3539 -0.5005 -0.0452
 4914TIP3    H114685   0.084   0.120   4.165 -0.7604 -1.2551  2.2971
 4914TIP3    H214686   0.006   0.250   4.171  0.2175 -0.3941 -1.1806
 4915TIP3   OH214687   5.508   3.686   4.875 -0.0692  0.0293 -0.1527
 4915TIP3    H114688   5.466   3.771   4.891  0.8410  0.4589  0.0716
 4915TIP3    H214689   5.523   3.650   4.962  0.3677  0.0634 -0.2101
 4916TIP3   OH214690   2.230   2.029   2.764  0.7364  0.0341 -0.2137
 4916TIP3    H114691   2.265   2.031   2.675 -0.5517  0.7599 -0.7233
 4916TIP3    H214692   2.138   2.007   2.754  0.6657 -0.3117  0.9890
 4917TIP3   OH214693   4.979   3.438   5.006 -0.3061 -0.6552  0.4332
 4917TIP3    H114694   5.032   3.512   4.975  0.6160 -0.7553  1.6983
 4917TIP3    H214695   4.889   3.469   5.000 -0.0450 -0.0504 -0.6513
 4918TIP3   OH214696   2.217   2.961   5.866 -0.5764  0.0801  0.0636
 4918TIP3    H114697   2.133   2.946   5.910 -1.1840 -0.9604 -1.3824
 4918TIP3    H214698   2.253   3.038   5.911 -1.2850 -0.7037  2.1310
 4919TIP3   OH214699   5.206   5.233   4.890 -0.2185  0.2964  0.0157
 4919TIP3    H114700   5.219   5.322   4.857 -1.1139  0.4981  0.1857
 4919TIP3    H214701   5.237   5.236   4.981 -1.2182  0.7290  0.3611
 4920TIP3   OH214702   0.553   6.921   4.309  0.7556  0.0735 -0.5988
 4920TIP3    H114703   0.618   6.929   4.378 -1.1055 -0.6375  1.3235
 4920TIP3    H214704   0.483   6.981   4.335  0.0308 -0.1735 -1.8990
 4921TIP3   OH214705   3.620   4.942   2.972  0.3918  0.4237  0.1012
 4921TIP3    H114706   3.546   4.904   3.019 -0.8053 -2.7835 -3.8109
 4921TIP3    H214707   3.694   4.884   2.993  0.3384  0.1625 -0.4189
 4922TIP3   OH214708   0.147   3.590   0.069  0.3448 -0.0907  0.0805
 4922TIP3    H114709   0.108   3.674   0.043 -0.6347 -0.9596 -1.3645
 4922TIP3    H214710   0.184   3.555  -0.012  0.9143 -0.9900  0.7112
 4923TIP3   OH214711   1.270   4.587   1.219  0.1521 -0.0692  0.6335
 4923TIP3    H114712   1.227   4.547   1.144  0.2524  3.1895 -1.3678
 4923TIP3    H214713   1.296   4.513   1.274 -3.3101 -2.4589 -0.5675
 4924TIP3   OH214714   3.363   2.128   5.186 -0.3175 -0.1433 -0.2900
 4924TIP3    H114715   3.278   2.158   5.152 -0.7247 -2.3559 -1.4044
 4924TIP3    H214716   3.425   2.145   5.115  0.3796  2.0936  0.7717
 4925TIP3   OH214717   4.868   3.315   3.811  0.4571  0.2854 -0.1713
 4925TIP3    H114718   4.808   3.245   3.837  2.1471 -1.5048 -0.8625
 4925TIP3    H214719   4.837   3.341   3.724  1.0278 -1.0971 -0.8158
 4926TIP3   OH214720   3.216   4.152   1.456  0.3223  0.0040 -0.4058
 4926TIP3    H114721   3.178   4.210   1.390  2.8531 -0.0704 -2.0557
 4926TIP3    H214722   3.194   4.064   1.426  2.7847 -0.1092 -2.1850
 4927TIP3   OH214723   6.537   6.956   3.622  0.6233 -0.3031 -0.1382
 4927TIP3    H114724   6.551   6.890   3.690  1.6801 -2.0445 -1.9255
 4927TIP3    H214725   6.590   7.030   3.649  0.7803 -0.8299  1.0697
 4928TIP3   OH214726   6.659   4.287   2.398 -0.4959 -0.5199  0.1991
 4928TIP3    H114727   6.572   4.274   2.359 -0.9723 -0.3804  1.1832
 4928TIP3    H214728   6.679   4.204   2.440 -0.6356 -0.2084  0.8921
 4929TIP3   OH214729   4.129   1.389   4.753  0.3193  0.4425 -0.0281
 4929TIP3    H114730   4.165   1.474   4.729  0.9817  0.1075 -0.2769
 4929TIP3    H214731   4.141   1.384   4.848  1.3064  0.1855 -0.1521
 4930TIP3   OH214732   6.575   5.476   2.926  0.0623 -0.1116 -0.1375
 4930TIP3    H114733   6.499   5.425   2.896  0.1596  0.6700 -1.8307
 4930TIP3    H214734   6.539   5.537   2.990 -0.7267  0.1014 -0.7616
 4931TIP3   OH214735   5.462   2.191   2.260 -0.0403 -0.3518 -0.1044
 4931TIP3    H114736   5.469   2.116   2.319 -0.9540 -1.0426 -0.8669
 4931TIP3    H214737   5.509   2.261   2.307  0.9994 -1.4199  0.5283
 4932TIP3   OH214738   6.816   5.810   0.913  0.2074 -0.1111 -0.0870
 4932TIP3    H114739   6.788   5.896   0.880 -1.3053 -1.1691 -1.7189
 4932TIP3    H214740   6.851   5.764   0.837  1.2089 -0.8939  0.8097
 4933TIP3   OH214741   6.907   2.880   5.175 -0.2171  0.2406 -0.3763
 4933TIP3    H114742   6.885   2.808   5.234  2.1918  0.5922  1.1084
 4933TIP3    H214743   6.981   2.923   5.217  2.0863  0.1778 -3.9121
 4934TIP3   OH214744   4.213   0.650   1.739  0.3240 -0.4900 -0.2404
 4934TIP3    H114745   4.164   0.709   1.682  0.6711 -0.3976 -0.4501
 4934TIP3    H214746   4.261   0.593   1.678  0.5402 -0.5213 -0.0426
 4935TIP3   OH214747   2.882   2.105   0.922 -0.3303  0.3071  0.5280
 4935TIP3    H114748   2.928   2.031   0.882 -1.2022  0.6578 -1.2610
 4935TIP3    H214749   2.837   2.068   0.997 -0.0900 -0.8016  0.1460
 4936TIP3   OH214750   8.048   5.476   4.071 -0.1347  0.9337  0.0786
 4936TIP3    H114751   7.961   5.461   4.035 -0.4526 -0.1947  1.2608
 4936TIP3    H214752   8.056   5.571   4.073 -0.8448  1.0484 -1.1574
 4937TIP3   OH214753   3.508   2.652   3.739 -0.1986 -0.2196 -0.8868
 4937TIP3    H114754   3.497   2.558   3.748 -1.3329  0.0245  0.6220
 4937TIP3    H214755   3.493   2.669   3.645 -1.0192 -1.4051 -0.9870
 4938TIP3   OH214756   1.151   1.106   2.702 -0.0870 -0.0054  0.0374
 4938TIP3    H114757   1.198   1.151   2.632 -0.8085  3.1149  1.3702
 4938TIP3    H214758   1.059   1.113   2.678 -0.2715  0.2121  0.7566
 4939TIP3   OH214759   2.426   0.521   4.508 -0.2728  0.3190 -0.6763
 4939TIP3    H114760   2.431   0.443   4.563  2.3465  0.3606 -0.7257
 4939TIP3    H214761   2.367   0.497   4.437 -3.7172  0.2343  1.9638
 4940TIP3   OH214762   4.736   5.564   1.941  0.2003  0.3038 -0.1369
 4940TIP3    H114763   4.796   5.602   2.005  0.3873  1.3149 -0.8774
 4940TIP3    H214764   4.784   5.565   1.859 -0.4093  0.0179 -0.5050
 4941TIP3   OH214765   7.265   0.669   5.584 -0.1874 -0.3961 -0.4164
 4941TIP3    H114766   7.222   0.727   5.646 -1.1243 -0.9095 -0.5744
 4941TIP3    H214767   7.337   0.630   5.633  0.5546  0.9954 -0.3546
 4942TIP3   OH214768   5.868   3.934   5.089  0.1281 -0.3751 -0.0775
 4942TIP3    H114769   5.853   3.853   5.137 -0.7682 -0.0289  0.2532
 4942TIP3    H214770   5.915   3.990   5.150  0.9810 -0.7309 -0.3973
 4943TIP3   OH214771   2.525   2.903   0.587  0.6595  0.0934 -0.1619
 4943TIP3    H114772   2.593   2.885   0.651 -0.6822 -2.1362  0.7645
 4943TIP3    H214773   2.443   2.878   0.630 -0.6519  1.4429 -1.6819
 4944TIP3   OH214774   4.067   5.723   4.431  0.0680 -0.0462 -0.7167
 4944TIP3    H114775   4.090   5.737   4.339 -0.6891  2.8975 -0.5749
 4944TIP3    H214776   4.078   5.809   4.471 -2.6306 -0.4776  1.2437
 4945TIP3   OH214777   3.991   5.744   5.914 -0.0162 -0.1700 -0.0761
 4945TIP3    H114778   3.929   5.816   5.924 -0.7511 -0.4928 -1.8841
 4945TIP3    H214779   3.997   5.730   5.819  1.8115 -1.0419  0.1182
 4946TIP3   OH214780   4.248   0.715   4.085 -0.0083 -0.4903 -0.0090
 4946TIP3    H114781   4.333   0.758   4.072 -0.1755 -0.2990 -0.4870
 4946TIP3    H214782   4.269   0.622   4.092  0.1152 -0.5943 -1.5066
 4947TIP3   OH214783   5.655   1.113   0.841 -0.1972 -0.2218 -0.2833
 4947TIP3    H114784   5.607   1.186   0.801 -1.5916  0.0795  1.8006
 4947TIP3    H214785   5.587   1.050   0.864  0.6153 -0.6511  1.0160
 4948TIP3   OH214786   2.791   5.348   5.124  0.0227 -0.0009  0.1419
 4948TIP3    H114787   2.762   5.273   5.071  0.3201  0.4783 -0.7110
 4948TIP3    H214788   2.744   5.423   5.087  0.9459  0.4915 -0.0681
 4949TIP3   OH214789   5.510   4.405   1.186 -0.2703 -0.2101  0.0049
 4949TIP3    H114790   5.461   4.409   1.269 -2.4423  0.2562 -1.2138
 4949TIP3    H214791   5.476   4.326   1.143 -0.9632  0.8481 -1.4535
 4950TIP3   OH214792   0.405   0.207   4.544  0.2575  0.1200  0.1855
 4950TIP3    H114793   0.337   0.247   4.490  0.5157 -0.2739 -0.4458
 4950TIP3    H214794   0.409   0.261   4.623  1.4873  2.1045 -1.1647
 4951TIP3   OH214795   1.272   7.740   0.506  0.0622  0.1729 -0.1028
 4951TIP3    H114796   1.332   7.794   0.455  0.2275 -0.7909 -0.9680
 4951TIP3    H214797   1.282   7.652   0.469  0.4734 -0.6614  1.8592
 4952TIP3   OH214798   7.084   2.177   1.553  0.5319  0.4281 -0.3206
 4952TIP3    H114799   7.152   2.240   1.532  0.3179  1.4792  1.8530
 4952TIP3    H214800   7.007   2.231   1.574 -0.6690 -0.6960 -1.5870
 4953TIP3   OH214801   8.234   3.928   4.951  0.3276 -0.5833  0.4187
 4953TIP3    H114802   8.285   3.953   4.874  1.4137 -0.7208  1.0574
 4953TIP3    H214803   8.168   3.997   4.960  1.7375  0.7916  0.7449
 4954TIP3   OH214804   0.830   4.480   3.612 -0.1441  0.4839  0.3603
 4954TIP3    H114805   0.809   4.511   3.524  0.6348  0.7933  0.2824
 4954TIP3    H214806   0.905   4.422   3.600 -0.0134  0.5509  0.8238
 4955TIP3   OH214807   7.178   5.254   6.391 -0.2112 -0.4661  0.3943
 4955TIP3    H114808   7.228   5.193   6.445  1.4066  0.0426 -0.4700
 4955TIP3    H214809   7.184   5.338   6.437  1.1768 -0.0305 -0.5293
 4956TIP3   OH214810   3.907   7.227   6.638 -0.2810  0.3127  0.0051
 4956TIP3    H114811   3.992   7.265   6.613  0.2280 -1.0885 -0.5340
 4956TIP3    H214812   3.910   7.222   6.733  0.0644  0.6916  0.0168
 4957TIP3   OH214813   2.564   5.964   1.568 -0.3751  0.1763  0.1532
 4957TIP3    H114814   2.654   5.973   1.537 -0.5110  0.3713 -0.1908
 4957TIP3    H214815   2.572   5.928   1.656  0.0635  0.6477  0.3076
 4958TIP3   OH214816   7.581   2.990   1.089 -0.0544 -0.2019 -0.0277
 4958TIP3    H114817   7.539   2.960   1.170  0.5015 -1.4964 -0.1911
 4958TIP3    H214818   7.675   2.976   1.104 -0.0240 -1.6903 -1.3551
 4959TIP3   OH214819   4.420   5.147   4.936  0.0082  0.0864 -0.1235
 4959TIP3    H114820   4.513   5.122   4.928  0.4646  1.6616 -0.0929
 4959TIP3    H214821   4.415   5.233   4.896 -1.3888  0.1946  0.2358
 4960TIP3   OH214822   4.991   1.719   2.087 -0.3106 -0.5848  0.0766
 4960TIP3    H114823   4.956   1.671   2.012 -0.9441 -0.9530  0.5999
 4960TIP3    H214824   5.086   1.707   2.080 -0.2026  0.7853 -1.5945
 4961TIP3   OH214825   2.135   7.424   1.138 -0.0144  0.2149  0.1210
 4961TIP3    H114826   2.139   7.495   1.075  0.3834 -0.5108 -0.6947
 4961TIP3    H214827   2.045   7.426   1.171 -0.5724 -0.0903 -1.3064
 4962TIP3   OH214828   1.130   1.570   2.978 -0.0526 -0.4332  0.3398
 4962TIP3    H114829   1.101   1.601   3.064 -1.8795 -0.4053 -0.2546
 4962TIP3    H214830   1.054   1.525   2.942  0.7165 -0.5107 -1.2457
 4963TIP3   OH214831   3.253   1.764   1.374 -0.1478 -0.4491 -0.0907
 4963TIP3    H114832   3.326   1.751   1.434 -0.8871  0.9300  1.1548
 4963TIP3    H214833   3.252   1.858   1.356 -0.7897 -0.6429 -1.1872
 4964TIP3   OH214834   2.414   2.241   2.047 -0.0416 -0.0572 -0.6740
 4964TIP3    H114835   2.358   2.174   2.006  0.8196 -1.2344  0.0042
 4964TIP3    H214836   2.502   2.222   2.013  0.1192  1.1377 -0.9547
 4965TIP3   OH214837   0.643   2.861   0.475  0.5258  0.0270 -0.5566
 4965TIP3    H114838   0.683   2.947   0.459 -0.2668  0.5225  0.0450
 4965TIP3    H214839   0.554   2.881   0.505  0.4062 -0.9999 -0.1835
 4966TIP3   OH214840   3.484   0.641   0.258 -0.0387  0.1130  0.1221
 4966TIP3    H114841   3.473   0.554   0.219 -1.5307  0.2112  0.3023
 4966TIP3    H214842   3.443   0.700   0.195 -1.9021  0.3440  1.5047
 4967TIP3   OH214843   1.495   1.874   1.277  0.2838  0.0462 -0.1771
 4967TIP3    H114844   1.491   1.883   1.182  0.1754  0.7833 -0.1054
 4967TIP3    H214845   1.451   1.791   1.294  0.6717 -0.3017 -0.8001
 4968TIP3   OH214846   5.189   1.273   5.293  0.2668 -0.2721 -0.0209
 4968TIP3    H114847   5.102   1.261   5.256 -0.1475  1.4535  0.2940
 4968TIP3    H214848   5.241   1.307   5.220 -0.4563  2.7733  0.7419
 4969TIP3   OH214849   8.236   2.178   5.371 -0.0327 -0.0980  0.3930
 4969TIP3    H114850   8.316   2.125   5.371 -0.9889 -1.6423  1.9570
 4969TIP3    H214851   8.204   2.173   5.461 -1.9712  0.3662 -0.2371
 4970TIP3   OH214852   5.121   0.606   0.836 -0.2845 -0.0175 -0.2765
 4970TIP3    H114853   5.134   0.515   0.862  0.8000 -0.4521 -2.1210
 4970TIP3    H214854   5.116   0.603   0.740 -2.4731  1.6133 -0.2926
 4971TIP3   OH214855   2.937   1.849   4.351 -0.8542  0.2872  0.3839
 4971TIP3    H114856   2.858   1.795   4.346  0.5698 -1.8893  0.2738
 4971TIP3    H214857   2.922   1.906   4.427 -2.1550 -0.7095  0.9154
 4972TIP3   OH214858   3.505   4.090   3.356 -0.3018 -0.3366 -0.1841
 4972TIP3    H114859   3.585   4.143   3.356  1.1234 -2.3375 -0.0416
 4972TIP3    H214860   3.435   4.151   3.337  1.1946  1.6224  0.2716
 4973TIP3   OH214861   1.502   7.205   3.098 -0.3929  0.3361 -0.8990
 4973TIP3    H114862   1.433   7.140   3.082 -0.9431  0.3915  1.0495
 4973TIP3    H214863   1.579   7.169   3.053  0.0856 -3.1379  2.1647
 4974TIP3   OH214864   7.224   6.606   4.270  0.3619 -0.2817  0.5671
 4974TIP3    H114865   7.196   6.520   4.300 -0.1721 -0.2221  0.2468
 4974TIP3    H214866   7.316   6.612   4.295  0.8319 -1.5484 -0.7432
 4975TIP3   OH214867   5.011   5.355   3.239 -0.5496 -0.5654 -0.5955
 4975TIP3    H114868   4.978   5.378   3.152 -1.0097  2.6029  0.3065
 4975TIP3    H214869   5.105   5.344   3.227 -0.4447  0.9467 -1.3387
 4976TIP3   OH214870   5.913   2.000   0.957  0.4436  0.1770 -0.2431
 4976TIP3    H114871   5.916   1.913   0.918  0.8949  0.1666 -0.1956
 4976TIP3    H214872   5.989   2.002   1.016 -1.6564 -0.7571  2.7114
 4977TIP3   OH214873   4.245   6.800   0.366  0.0599 -0.1846  0.0956
 4977TIP3    H114874   4.329   6.794   0.320 -0.1466  0.7170 -0.4162
 4977TIP3    H214875   4.257   6.745   0.444  1.6882  1.1448  0.8644
 4978TIP3   OH214876   4.255   3.326   0.791 -0.3207  0.0405 -0.0453
 4978TIP3    H114877   4.306   3.359   0.865  0.6334 -0.1045 -0.6274
 4978TIP3    H214878   4.317   3.277   0.738 -0.8678  0.5587 -1.2107
 4979TIP3   OH214879   1.139   5.178   1.176 -0.8805 -0.3908  0.5570
 4979TIP3    H114880   1.081   5.169   1.101  0.1524 -0.5390 -0.2591
 4979TIP3    H214881   1.150   5.089   1.210 -2.1920 -0.1950  1.5805
 4980TIP3   OH214882   1.662   0.641   3.214 -0.2762 -0.0773 -0.1977
 4980TIP3    H114883   1.642   0.662   3.123  1.0644  1.0059 -0.2671
 4980TIP3    H214884   1.729   0.572   3.208 -3.3673 -3.3842  0.0278
 4981TIP3   OH214885   3.082   3.039   1.453 -0.1738 -0.0594  0.7658
 4981TIP3    H114886   3.080   3.131   1.425  1.9620  0.1183  1.0465
 4981TIP3    H214887   3.173   3.022   1.474  0.1375 -3.1407 -2.1843
 4982TIP3   OH214888   2.176   7.242   2.576  0.1986 -0.0225 -0.2773
 4982TIP3    H114889   2.199   7.188   2.652  3.4189  0.6564 -0.6391
 4982TIP3    H214890   2.152   7.327   2.614  0.7645 -0.0009  0.0441
 4983TIP3   OH214891   3.725   7.417   6.533 -0.0429  0.3039 -0.2773
 4983TIP3    H114892   3.748   7.422   6.440  1.4489  1.7534  0.1119
 4983TIP3    H214893   3.798   7.369   6.573 -0.6559 -0.2751  0.1638
 4984TIP3   OH214894   5.007   1.275   1.018  0.6515 -0.4659  0.1794
 4984TIP3    H114895   5.082   1.234   0.974 -0.8313 -0.5786 -2.4508
 4984TIP3    H214896   4.981   1.346   0.959 -1.2955 -0.4430  1.0050
 4985TIP3   OH214897   2.578   5.398   4.106 -0.0103 -0.2385 -0.0489
 4985TIP3    H114898   2.576   5.352   4.022  0.5952 -0.2390 -0.0697
 4985TIP3    H214899   2.525   5.476   4.092 -1.8034 -1.3486  0.2541
 4986TIP3   OH214900   0.154   7.039   1.633 -0.3439 -0.1498  0.5300
 4986TIP3    H114901   0.097   7.027   1.709  0.6391 -0.0444  1.3088
 4986TIP3    H214902   0.192   6.952   1.618 -0.9238 -0.2866 -0.1668
 4987TIP3   OH214903   0.528   6.748   1.862  0.1018  0.0483  0.0660
 4987TIP3    H114904   0.533   6.828   1.810  1.8741  0.0752  0.2432
 4987TIP3    H214905   0.592   6.760   1.932 -0.7367 -0.8717  1.0343
 4988TIP3   OH214906   6.507   2.160   3.565 -0.1714  0.4779 -0.1725
 4988TIP3    H114907   6.477   2.110   3.641  1.3915 -1.1837 -0.5993
 4988TIP3    H214908   6.561   2.230   3.603 -0.4405  0.4459  0.2899
 4989TIP3   OH214909   5.440   3.840   3.277 -0.2937  0.0546 -0.5599
 4989TIP3    H114910   5.431   3.799   3.190  0.6006  0.3324 -0.8008
 4989TIP3    H214911   5.531   3.869   3.280 -0.3018  0.0126  0.4979
 4990TIP3   OH214912   2.300   0.682   2.524 -0.4485 -0.0258  1.1143
 4990TIP3    H114913   2.347   0.759   2.493  1.4896 -1.4228  0.3870
 4990TIP3    H214914   2.211   0.692   2.488  0.4400  0.6881 -1.0530
 4991TIP3   OH214915   4.864   7.027   3.686 -0.0584  0.1064 -0.4606
 4991TIP3    H114916   4.774   7.025   3.718 -0.4660 -0.4771 -1.5908
 4991TIP3    H214917   4.890   6.934   3.682  0.4942  0.2546 -0.4181
 4992TIP3   OH214918   6.143   0.908   4.263 -0.3980 -0.4991 -0.3944
 4992TIP3    H114919   6.097   0.955   4.193  0.2429  0.9931  0.1362
 4992TIP3    H214920   6.164   0.823   4.226 -3.6277 -1.3107 -0.6408
 4993TIP3   OH214921   4.983   7.077   0.733 -0.0624  0.4041  0.2678
 4993TIP3    H114922   5.069   7.094   0.771  0.5374 -0.7894 -0.4938
 4993TIP3    H214923   4.995   6.999   0.679 -1.3600  0.8624 -0.7577
 4994TIP3   OH214924   6.042   1.171   0.312 -0.7185 -0.4890  0.4264
 4994TIP3    H114925   6.125   1.142   0.274 -1.7889 -1.1304 -1.5156
 4994TIP3    H214926   6.056   1.163   0.407  0.6073 -3.0816  0.1164
 4995TIP3   OH214927   7.594   2.799   6.719 -0.2303  0.3123 -0.0755
 4995TIP3    H114928   7.687   2.795   6.695 -0.1006  0.4276  0.4100
 4995TIP3    H214929   7.576   2.892   6.732 -0.8544  0.4914 -1.8454
 4996TIP3   OH214930   6.191   3.178   3.568 -0.0477  0.2025  0.4606
 4996TIP3    H114931   6.271   3.224   3.594 -0.4379  0.9125  0.4566
 4996TIP3    H214932   6.124   3.247   3.564 -0.5672 -0.3088  0.0595
 4997TIP3   OH214933   1.260   2.011   3.436 -0.0535  0.2529  0.3947
 4997TIP3    H114934   1.325   1.961   3.486 -1.5634  0.3808  2.6174
 4997TIP3    H214935   1.231   2.079   3.496 -1.4421  0.8958 -0.9421
 4998TIP3   OH214936   3.856   5.531   6.010 -0.1045 -0.4143  0.2577
 4998TIP3    H114937   3.901   5.614   5.995  2.0011 -1.7535 -1.3437
 4998TIP3    H214938   3.918   5.477   6.059 -0.7844 -1.6100 -0.1407
 4999TIP3   OH214939   0.865   6.928   0.977 -0.4382 -0.2280 -0.2398
 4999TIP3    H114940   0.781   6.919   1.023  0.0678  0.0365  0.7624
 4999TIP3    H214941   0.886   7.021   0.984  1.1242 -0.6676  1.7145
 5000TIP3   OH214942   7.218   7.704   6.636  0.0709  0.1623  0.4103
 5000TIP3    H114943   7.196   7.753   6.715 -2.8936  0.7168 -0.6394
 5000TIP3    H214944   7.134   7.686   6.594  1.4970 -0.1109 -2.6286
 5001TIP3   OH214945   1.267   7.360   1.895  0.2696  0.5997 -0.3960
 5001TIP3    H114946   1.181   7.385   1.928 -0.9012 -2.7802 -0.4718
 5001TIP3    H214947   1.250   7.284   1.839  3.3724 -1.1208  0.7232
 5002TIP3   OH214948   6.767   7.357   1.784  0.2883 -0.0000 -0.1537
 5002TIP3    H114949   6.682   7.315   1.800 -0.1276  1.0231  0.4192
 5002TIP3    H214950   6.749   7.421   1.715  0.6032  0.2046 -0.0472
 5003TIP3   OH214951   1.218   1.646   6.690  0.2795  0.2166 -0.4129
 5003TIP3    H114952   1.162   1.632   6.766 -0.6302 -0.6109 -1.2046
 5003TIP3    H214953   1.197   1.734   6.660 -1.8890 -0.6664 -1.6846
 5004TIP3   OH214954   6.772   2.327   3.598  0.0262 -0.2268  0.1904
 5004TIP3    H114955   6.702   2.383   3.565 -0.1320  0.1021  1.0420
 5004TIP3    H214956   6.842   2.334   3.533  0.1226  1.1852  0.4020
 5005TIP3   OH214957   2.485   6.111   6.208 -0.5795 -0.4202 -0.7513
 5005TIP3    H114958   2.417   6.175   6.189 -1.5249 -0.3877  2.2389
 5005TIP3    H214959   2.441   6.026   6.203 -0.6702 -0.4537  0.4008
 5006TIP3   OH214960   2.901   7.615   0.897  0.2003 -0.5822  0.3213
 5006TIP3    H114961   2.948   7.698   0.900 -0.4464 -0.1910 -0.1562
 5006TIP3    H214962   2.889   7.591   0.989  1.8192 -0.9783  0.4492
 5007TIP3   OH214963   6.805   2.030   1.668 -0.0002  0.5695 -0.1129
 5007TIP3    H114964   6.813   2.100   1.604 -2.1452 -0.2518 -1.4050
 5007TIP3    H214965   6.886   1.980   1.660  0.2391  1.1294 -1.4083
 5008TIP3   OH214966   2.109   4.953   6.618  0.2129  0.2468  0.0530
 5008TIP3    H114967   2.133   4.926   6.529  2.3254 -1.7897  1.1506
 5008TIP3    H214968   2.168   4.904   6.675 -2.2824  0.0701  2.6999
 5009TIP3   OH214969   1.470   0.686   4.178 -0.3098  0.6033  0.0761
 5009TIP3    H114970   1.533   0.733   4.233 -0.9353  0.6069  0.7950
 5009TIP3    H214971   1.470   0.735   4.095 -1.1733  2.0866  0.9070
 5010TIP3   OH214972   4.588   0.588   2.378  1.3149  0.1847 -0.0107
 5010TIP3    H114973   4.607   0.540   2.458  0.3269 -1.1599 -0.5375
 5010TIP3    H214974   4.600   0.523   2.308  3.1514  1.5746 -1.0765
 5011TIP3   OH214975   3.434   5.163   2.862 -0.1724  0.5230  0.1263
 5011TIP3    H114976   3.437   5.247   2.906 -1.5972  0.7304 -0.1150
 5011TIP3    H214977   3.433   5.098   2.933 -1.1679  0.8048  0.3841
 5012TIP3   OH214978   5.188   7.512   3.348 -0.6668  0.7215  0.1655
 5012TIP3    H114979   5.141   7.518   3.265 -1.4418 -2.3270  0.2796
 5012TIP3    H214980   5.277   7.487   3.324 -0.4460  1.4301  0.2115
 5013TIP3   OH214981   4.056   7.767   3.639  0.2871 -0.0591 -0.1387
 5013TIP3    H114982   3.975   7.736   3.679 -0.4758 -0.6360 -1.9960
 5013TIP3    H214983   4.044   7.751   3.545  1.7400  1.7045 -0.6894
 5014TIP3   OH214984   6.974   5.548   1.706  0.3410  0.1658  0.1506
 5014TIP3    H114985   6.880   5.550   1.721  0.0462 -0.1901 -1.4193
 5014TIP3    H214986   7.003   5.465   1.745  0.3225  0.9983  2.0560
 5015TIP3   OH214987   3.100   3.283   2.876 -0.0053 -0.7502 -0.6107
 5015TIP3    H114988   3.034   3.225   2.837 -0.6408  0.0437 -0.7545
 5015TIP3    H214989   3.053   3.327   2.947 -0.1102  0.9493 -1.6653
 5016TIP3   OH214990   5.564   4.090   4.816  0.0941 -0.0444 -0.4067
 5016TIP3    H114991   5.545   4.166   4.871  0.6463 -0.0939 -0.1396
 5016TIP3    H214992   5.592   4.023   4.878 -0.0940 -0.3735 -0.6720
 5017TIP3   OH214993   6.551   2.395   0.217  0.2282 -0.7804 -0.2871
 5017TIP3    H114994   6.645   2.406   0.205  0.3479 -1.6696 -0.2439
 5017TIP3    H214995   6.527   2.460   0.284  0.6118  0.1700 -1.0630
 5018TIP3   OH214996   0.427   2.191   4.246  0.1960  0.0620  0.1584
 5018TIP3    H114997   0.355   2.173   4.186  1.8595 -0.5435 -1.7876
 5018TIP3    H214998   0.454   2.280   4.226 -0.8514  0.8115  1.8768
 5019TIP3   OH214999   1.131   5.753   3.455  0.6757 -0.4716 -0.3518
 5019TIP3    H115000   1.050   5.789   3.492  1.2466  0.5291 -0.0271
 5019TIP3    H215001   1.197   5.769   3.523  1.4303  0.0100 -1.1821
 5020TIP3   OH215002   6.818   3.620   5.182  0.2021 -0.4021 -0.1788
 5020TIP3    H115003   6.766   3.541   5.195  1.3916 -0.9792  1.3206
 5020TIP3    H215004   6.778   3.685   5.239  0.3727 -0.4803  0.0300
 5021TIP3   OH215005   7.939   7.409   0.337  0.0399  0.2639 -0.1985
 5021TIP3    H115006   8.020   7.379   0.295 -0.2951  1.0375 -1.4739
 5021TIP3    H215007   7.967   7.479   0.396  0.4544 -0.4381  0.4514
 5022TIP3   OH215008   0.419   3.781   5.445 -0.0974 -0.5979 -0.4003
 5022TIP3    H115009   0.381   3.848   5.387 -2.1604 -1.7342 -0.4690
 5022TIP3    H215010   0.422   3.823   5.530  0.3932  0.1837 -0.7891
 5023TIP3   OH215011   7.162   0.649   4.233  0.1326 -0.0119  0.0291
 5023TIP3    H115012   7.138   0.730   4.188 -0.8049  0.4668  1.3568
 5023TIP3    H215013   7.089   0.631   4.292  0.1751 -2.0120 -0.4566
 5024TIP3   OH215014   2.378   4.914   1.482  0.3468  0.0062 -0.5843
 5024TIP3    H115015   2.392   4.833   1.532 -2.6675 -0.3450 -0.1008
 5024TIP3    H215016   2.386   4.888   1.391  2.4673 -0.0943 -0.4245
 5025TIP3   OH215017   6.626   7.710   4.343  0.1001  0.1394  0.0941
 5025TIP3    H115018   6.612   7.804   4.331  0.4757  0.3213  0.9543
 5025TIP3    H215019   6.539   7.675   4.360 -0.1779  0.1632 -1.1889
 5026TIP3   OH215020   7.517   2.790   4.726  0.0219  0.4315  0.2866
 5026TIP3    H115021   7.535   2.713   4.672  2.8197  2.5127 -2.1237
 5026TIP3    H215022   7.461   2.845   4.671  0.4726  1.3122  0.6806
 5027TIP3   OH215023   8.102   3.195   2.970 -0.0276  0.4869  0.1874
 5027TIP3    H115024   8.028   3.175   2.913  0.5268 -2.0285  0.2485
 5027TIP3    H215025   8.144   3.271   2.929 -0.6073 -0.2182 -1.8240
 5028TIP3   OH215026   8.166   2.996   3.764 -0.0306 -0.1731 -0.5948
 5028TIP3    H115027   8.185   3.058   3.694  0.2483 -0.2517 -0.5917
 5028TIP3    H215028   8.242   2.937   3.765 -0.5996 -0.9280 -1.0552
 5029TIP3   OH215029   5.134   5.274   5.419  0.1019  0.1301  0.4285
 5029TIP3    H115030   5.133   5.229   5.504  0.8985 -0.9093 -0.0930
 5029TIP3    H215031   5.090   5.358   5.436 -1.5621 -0.8907  1.3821
 5030TIP3   OH215032   7.767   5.358   2.440  0.5967  0.2083 -0.6168
 5030TIP3    H115033   7.712   5.303   2.496  2.2690 -0.5200  0.3937
 5030TIP3    H215034   7.848   5.369   2.489  0.5827  3.1012 -1.0784
 5031TIP3   OH215035   0.347   5.476   3.292 -0.1091 -0.4231 -0.0626
 5031TIP3    H115036   0.336   5.570   3.274 -2.2612 -0.0516  2.4768
 5031TIP3    H215037   0.319   5.433   3.211  0.5393  1.0753 -1.1434
 5032TIP3   OH215038   3.546   2.635   3.448 -0.1708 -0.3434  0.2893
 5032TIP3    H115039   3.603   2.707   3.420  0.2753 -1.0049 -0.5872
 5032TIP3    H215040   3.478   2.632   3.381 -0.8882  0.0465  0.9992
 5033TIP3   OH215041   6.063   7.048   3.502  0.5322  0.5524 -0.4169
 5033TIP3    H115042   6.038   7.004   3.421  0.5883 -1.0559  0.4099
 5033TIP3    H215043   6.152   7.017   3.519 -0.0145 -0.3091  1.0191
 5034TIP3   OH215044   4.554   7.661   2.833  0.3370  0.2025 -0.1940
 5034TIP3    H115045   4.568   7.753   2.807 -2.8762  0.2823 -2.1849
 5034TIP3    H215046   4.474   7.664   2.886  0.3506 -1.4283 -0.0579
 5035TIP3   OH215047   7.231   1.697   5.131  0.1290  0.9022 -0.9692
 5035TIP3    H115048   7.250   1.605   5.110 -1.6901  0.5841 -1.4376
 5035TIP3    H215049   7.315   1.733   5.160  0.7473 -1.0961 -0.0550
 5036TIP3   OH215050   0.366   4.444   2.709 -0.7230  0.4867  0.1709
 5036TIP3    H115051   0.332   4.355   2.717  0.6265  0.0625  1.5607
 5036TIP3    H215052   0.292   4.500   2.734 -1.7439 -0.1807 -1.2245
 5037TIP3   OH215053   5.204   1.007   1.381  0.1065 -0.5747  0.1987
 5037TIP3    H115054   5.189   0.980   1.291  0.5728  3.2254 -1.1559
 5037TIP3    H215055   5.116   1.013   1.419 -0.3358  0.7176 -0.9758
 5038TIP3   OH215056   4.929   4.156   4.313  0.1224  0.5142  0.6242
 5038TIP3    H115057   4.922   4.090   4.244  2.2874  1.7440 -0.9397
 5038TIP3    H215058   4.971   4.111   4.386  0.6110 -0.1121 -0.0311
 5039TIP3   OH215059   0.839   3.676   3.371 -0.1054  0.1289  0.9493
 5039TIP3    H115060   0.898   3.708   3.439  1.3715  0.0653 -0.2634
 5039TIP3    H215061   0.863   3.584   3.359  0.8742  0.5914 -0.8666
 5040TIP3   OH215062   1.254   5.421   6.662 -0.8185 -0.3075  0.7200
 5040TIP3    H115063   1.243   5.365   6.585 -2.0509  1.2117 -0.2601
 5040TIP3    H215064   1.340   5.398   6.697 -0.1713 -0.9250 -1.1918
 5041TIP3   OH215065   6.465   6.975   3.306  0.1593  0.1914 -0.3173
 5041TIP3    H115066   6.379   6.944   3.278  0.2833  1.1341 -1.8880
 5041TIP3    H215067   6.450   7.064   3.338  0.6054  0.6119 -1.2106
 5042TIP3   OH215068   1.201   0.659   3.835 -0.2567 -0.3935 -0.2628
 5042TIP3    H115069   1.243   0.597   3.895 -1.4821 -1.3939 -0.4053
 5042TIP3    H215070   1.259   0.662   3.759  1.4512  1.0660  0.9934
 5043TIP3   OH215071   1.564   7.520   0.395  0.4703 -0.1747  0.2074
 5043TIP3    H115072   1.596   7.433   0.370  1.0114 -0.3107  1.3217
 5043TIP3    H215073   1.479   7.503   0.437  1.8734 -0.5594  3.1587
 5044TIP3   OH215074   4.786   0.580   4.347 -0.0257  0.4514 -0.0778
 5044TIP3    H115075   4.693   0.600   4.359 -0.2360 -1.4813  2.1430
 5044TIP3    H215076   4.830   0.665   4.354 -1.5329  1.2510 -0.0493
 5045TIP3   OH215077   6.852   6.787   2.800  0.2754  0.3248 -0.1663
 5045TIP3    H115078   6.832   6.828   2.716 -1.9168  0.7148  0.4796
 5045TIP3    H215079   6.771   6.743   2.825  1.5671 -1.6698  0.7327
 5046TIP3   OH215080   1.763   4.811   1.698  0.2256  1.0779  0.2844
 5046TIP3    H115081   1.837   4.752   1.716 -0.3321 -0.3410 -1.6838
 5046TIP3    H215082   1.789   4.856   1.618 -1.2422  0.0868 -0.8009
 5047TIP3   OH215083   6.986   7.195   1.862  0.2690 -0.2478  0.3062
 5047TIP3    H115084   6.962   7.103   1.870  0.4522 -0.2894  0.3745
 5047TIP3    H215085   6.910   7.236   1.821  0.1132 -0.3958  0.4468
 5048TIP3   OH215086   5.205   4.178   0.887  0.0945  0.2719  0.1865
 5048TIP3    H115087   5.299   4.167   0.902  0.2592  0.0896 -0.9340
 5048TIP3    H215088   5.198   4.207   0.796 -0.8637  1.5096  0.6278
 5049TIP3   OH215089   5.742   2.536   6.742 -0.6474 -0.4238  0.0201
 5049TIP3    H115090   5.667   2.522   6.800  0.4522 -0.2632  1.5505
 5049TIP3    H215091   5.760   2.630   6.750 -1.5658 -0.0291 -2.0141
 5050TIP3   OH215092   7.129   0.355   0.470  0.9249  0.2111  0.2582
 5050TIP3    H115093   7.125   0.310   0.554  0.3910 -1.0009 -0.4001
 5050TIP3    H215094   7.190   0.428   0.485  0.0564  0.6397  1.9678
 5051TIP3   OH215095   1.225   7.501   4.524  0.4021  0.1710  0.5680
 5051TIP3    H115096   1.154   7.495   4.459  0.8345 -0.4606  0.1495
 5051TIP3    H215097   1.187   7.554   4.594  0.3207  1.9422 -0.7177
 5052TIP3   OH215098   2.537   3.501   5.239  0.3588  0.6864 -0.2877
 5052TIP3    H115099   2.602   3.488   5.308  1.0111  2.2891 -0.5543
 5052TIP3    H215100   2.472   3.432   5.254  2.1363 -1.0348 -0.0722
 5053TIP3   OH215101   1.402   6.272   3.470  0.3304  0.1643 -0.1918
 5053TIP3    H115102   1.356   6.314   3.398 -1.1883 -1.7694 -0.4297
 5053TIP3    H215103   1.416   6.182   3.440  0.5685 -0.4069  1.5280
 5054TIP3   OH215104   1.450   5.654   0.162  0.3007 -0.1672 -0.0127
 5054TIP3    H115105   1.411   5.617   0.241  1.3711  0.0822  0.6588
 5054TIP3    H215106   1.532   5.605   0.152 -0.6536 -1.4841 -2.0356
 5055TIP3   OH215107   1.225   1.573   3.543 -0.4233 -0.5308 -0.1453
 5055TIP3    H115108   1.164   1.639   3.509 -2.5128 -1.1204  2.1444
 5055TIP3    H215109   1.264   1.613   3.620 -0.8213 -1.4750  0.5789
 5056TIP3   OH215110   7.104   6.571   2.822 -0.4791 -0.3522  0.1294
 5056TIP3    H115111   7.103   6.484   2.784 -0.8524 -1.1300  1.7965
 5056TIP3    H215112   7.022   6.611   2.794  0.0686 -0.1994 -1.3188
 5057TIP3   OH215113   3.389   3.804   4.982 -0.1152  0.1652  0.0326
 5057TIP3    H115114   3.300   3.784   5.011  0.5330  1.2848  3.2138
 5057TIP3    H215115   3.444   3.738   5.023  0.6953  0.5339 -0.4189
 5058TIP3   OH215116   5.631   3.440   4.150 -0.2616 -0.3920 -0.1817
 5058TIP3    H115117   5.596   3.521   4.187 -2.6084 -1.3379 -0.1707
 5058TIP3    H215118   5.717   3.429   4.192 -0.3787  1.5038  0.6277
 5059TIP3   OH215119   8.196   7.611   6.335  0.1087 -0.5517  0.0246
 5059TIP3    H115120   8.269   7.582   6.279 -1.1596 -0.7582 -1.5809
 5059TIP3    H215121   8.127   7.636   6.274 -0.9538  0.2825  1.4997
 5060TIP3   OH215122   8.066   2.383   5.586 -0.0474  0.2722  0.4858
 5060TIP3    H115123   8.067   2.355   5.677 -2.6316  1.8303  1.0946
 5060TIP3    H215124   8.124   2.459   5.583  0.2189  0.0809  0.7641
 5061TIP3   OH215125   8.076   6.547   1.600  0.0731 -0.7393 -0.2254
 5061TIP3    H115126   8.071   6.459   1.562  0.7251 -0.4366 -1.0556
 5061TIP3    H215127   7.985   6.575   1.609 -0.1339 -1.4850  0.0169
 5062TIP3   OH215128   2.285   4.295   2.223 -0.4062  0.4857  0.1339
 5062TIP3    H115129   2.347   4.281   2.295 -1.4400 -0.2438  0.9152
 5062TIP3    H215130   2.203   4.320   2.267 -1.0331  0.1064 -0.7916
 5063TIP3   OH215131   3.626   6.801   6.559 -0.4754 -0.0793 -0.6289
 5063TIP3    H115132   3.585   6.739   6.619 -0.5598  1.1894  0.6647
 5063TIP3    H215133   3.572   6.880   6.564  0.7664  0.8032 -0.6755
 5064TIP3   OH215134   6.198   7.683   6.540 -0.1998 -0.4113  0.5459
 5064TIP3    H115135   6.268   7.747   6.556  0.2024 -0.4140 -1.0323
 5064TIP3    H215136   6.174   7.697   6.448  0.0382 -2.6635  0.0897
 5065TIP3   OH215137   5.295   1.691   2.521 -0.8072  0.1631 -0.3887
 5065TIP3    H115138   5.342   1.609   2.506 -1.2036 -0.3806  1.1080
 5065TIP3    H215139   5.271   1.688   2.614 -1.8915  1.4243 -0.5947
 5066TIP3   OH215140   7.236   4.880   4.927  0.2608  0.0436  0.0362
 5066TIP3    H115141   7.327   4.855   4.945  0.1827  0.2721  0.7920
 5066TIP3    H215142   7.220   4.851   4.837  0.4457 -1.8862  0.5693
 5067TIP3   OH215143   8.072   4.588   5.938 -0.3404  0.3979  0.0109
 5067TIP3    H115144   8.111   4.506   5.969 -0.7316  0.7483  1.5088
 5067TIP3    H215145   8.147   4.644   5.917 -0.0342  0.4351  1.1542
 5068TIP3   OH215146   6.498   5.949   1.308  0.3224 -0.7048  0.1451
 5068TIP3    H115147   6.515   6.022   1.368  0.1877 -0.7714  0.2629
 5068TIP3    H215148   6.404   5.952   1.293  0.2343 -1.1986  0.5877
 5069TIP3   OH215149   1.865   4.995   4.392 -0.5363  0.5674  0.0823
 5069TIP3    H115150   1.957   5.016   4.375 -0.2578 -0.1298  0.6344
 5069TIP3    H215151   1.869   4.929   4.462 -1.3585 -0.9651 -1.2644
 5070TIP3   OH215152   3.363   7.844   3.605 -0.3390  0.1317 -0.3005
 5070TIP3    H115153   3.298   7.789   3.561 -0.7255 -0.2320  0.6694
 5070TIP3    H215154   3.442   7.791   3.607  0.1553  0.7589 -1.9024
 5071TIP3   OH215155   5.924   5.114   1.414 -0.0801  0.2039 -0.3416
 5071TIP3    H115156   6.011   5.154   1.412 -0.5345  1.2103 -1.2712
 5071TIP3    H215157   5.893   5.128   1.504  0.5107  0.3093 -0.1536
 5072TIP3   OH215158   5.953   7.740   5.307  0.3651 -0.6645  0.6029
 5072TIP3    H115159   5.975   7.665   5.361  1.2671 -0.0933  1.0513
 5072TIP3    H215160   6.005   7.729   5.227 -0.7089 -1.3313 -0.0325
 5073TIP3   OH215161   5.333   1.062   3.353 -0.2998 -0.2669 -0.3122
 5073TIP3    H115162   5.293   1.090   3.270 -0.9369  0.7841  0.3381
 5073TIP3    H215163   5.279   0.988   3.381  0.1825 -0.9134 -1.0344
 5074TIP3   OH215164   6.913   1.969   4.728 -0.3045  0.4211 -0.4602
 5074TIP3    H115165   6.967   1.906   4.680 -0.7124  0.6524 -1.2262
 5074TIP3    H215166   6.946   1.965   4.818 -0.3062 -0.8690 -0.5007
 5075TIP3   OH215167   6.246   4.766   0.493  0.6612 -0.1844 -0.3671
 5075TIP3    H115168   6.332   4.808   0.495  0.9051 -0.7071  0.6284
 5075TIP3    H215169   6.184   4.838   0.497  0.9400  0.4099 -3.6258
 5076TIP3   OH215170   2.426   2.557   3.593  0.4853  0.0053  1.0759
 5076TIP3    H115171   2.392   2.642   3.619  0.7841  0.5242 -0.1513
 5076TIP3    H215172   2.483   2.530   3.665  0.9435  1.1804  1.1735
 5077TIP3   OH215173   7.796   2.855   0.302  0.3817  0.0241  0.3962
 5077TIP3    H115174   7.840   2.888   0.381  3.1546 -1.5197 -0.3486
 5077TIP3    H215175   7.826   2.914   0.232 -0.7045  0.3654  0.1982
 5078TIP3   OH215176   0.507   5.866   5.467  0.7402 -0.0954 -0.5740
 5078TIP3    H115177   0.463   5.792   5.509 -0.8749  0.1995 -1.6739
 5078TIP3    H215178   0.470   5.869   5.379  4.8408 -1.4938 -2.6525
 5079TIP3   OH215179   0.454   1.298   1.083  0.1238  0.7209 -0.1651
 5079TIP3    H115180   0.396   1.308   1.007  0.6805  2.0686 -0.4345
 5079TIP3    H215181   0.542   1.294   1.046  0.4164  1.5769  0.4049
 5080TIP3   OH215182   4.955   1.564   3.986  0.1887  0.0187  0.1295
 5080TIP3    H115183   5.012   1.622   3.936  0.6497 -0.7612 -0.2838
 5080TIP3    H215184   4.873   1.564   3.938  0.1958  0.3163  0.1187
 5081TIP3   OH215185   3.260   6.216   1.494  0.0567 -0.3271  0.6657
 5081TIP3    H115186   3.341   6.256   1.527 -0.1436 -0.3833  1.2286
 5081TIP3    H215187   3.261   6.127   1.529 -0.9334  0.1028  1.8650
 5082TIP3   OH215188   5.389   2.588   3.291  0.0365 -0.4045  0.4657
 5082TIP3    H115189   5.402   2.606   3.384  1.7898  2.4046 -0.1845
 5082TIP3    H215190   5.395   2.493   3.284  0.1331 -0.6801  3.1615
 5083TIP3   OH215191   0.177   2.521   0.941  0.9264  0.3381  0.2593
 5083TIP3    H115192   0.121   2.560   0.874  0.6382 -0.5001 -0.0118
 5083TIP3    H215193   0.140   2.549   1.024 -0.6718 -1.1609  0.1235
 5084TIP3   OH215194   4.662   5.516   3.464 -0.3341  0.4590 -0.2452
 5084TIP3    H115195   4.632   5.606   3.477  0.0269  0.3130  1.8981
 5084TIP3    H215196   4.687   5.512   3.372 -3.1657  1.6808 -1.1973
 5085TIP3   OH215197   6.890   1.862   4.190 -0.4639  0.7855  0.5192
 5085TIP3    H115198   6.962   1.803   4.169  0.4287  1.9043  0.3575
 5085TIP3    H215199   6.865   1.902   4.107  1.6197  3.5787  1.0910
 5086TIP3   OH215200   5.035   4.013   2.914  0.6777 -0.7400  0.3234
 5086TIP3    H115201   5.088   4.019   2.994  1.4523  0.1959 -0.2322
 5086TIP3    H215202   5.072   3.938   2.867  0.3876 -1.1357  0.7218
 5087TIP3   OH215203   1.997   3.462   2.651 -0.7164 -0.2336  0.2015
 5087TIP3    H115204   2.058   3.426   2.715 -0.1431  0.0054 -0.2101
 5087TIP3    H215205   1.983   3.553   2.680  0.7786  0.3790 -0.8849
 5088TIP3   OH215206   7.155   7.562   5.505  0.4921 -0.0182  0.0399
 5088TIP3    H115207   7.190   7.474   5.517 -1.9687 -1.2706 -1.2109
 5088TIP3    H215208   7.067   7.549   5.470 -0.6115  2.9165  1.3071
 5089TIP3   OH215209   5.902   3.533   4.407 -0.5548  0.2986  0.0728
 5089TIP3    H115210   5.838   3.569   4.345 -0.6820  0.1843  0.1351
 5089TIP3    H215211   5.987   3.553   4.369 -0.6361 -0.0633 -0.3144
 5090TIP3   OH215212   6.193   1.259   3.956  0.8719  0.3045  0.0394
 5090TIP3    H115213   6.117   1.286   3.903  0.0569  0.3345  1.1760
 5090TIP3    H215214   6.159   1.189   4.013  1.8246 -0.0122  0.2415
 5091TIP3   OH215215   1.453   0.644   4.949 -0.2146  0.4771 -0.5651
 5091TIP3    H115216   1.421   0.579   5.011 -0.3760 -0.3961 -1.5412
 5091TIP3    H215217   1.548   0.632   4.948 -0.3019 -0.2570 -1.2740
 5092TIP3   OH215218   7.264   0.688   0.457  0.1886  0.2862 -0.0843
 5092TIP3    H115219   7.271   0.781   0.436  1.3120  0.5391  1.2809
 5092TIP3    H215220   7.173   0.676   0.483  0.2542  1.2133  0.6164
 5093TIP3   OH215221   1.220   2.602   1.625  0.0530  0.0693 -0.1957
 5093TIP3    H115222   1.139   2.574   1.582  0.8156 -5.0705  1.0294
 5093TIP3    H215223   1.199   2.601   1.718  1.2185 -0.1565  0.0726
 5094TIP3   OH215224   0.151   1.559   0.996  0.0071  0.0653 -0.0711
 5094TIP3    H115225   0.121   1.519   0.914 -1.7166  0.1162  0.4950
 5094TIP3    H215226   0.247   1.562   0.988 -0.1634  1.4613 -2.7394
 5095TIP3   OH215227   2.389   4.528   5.718 -0.5263  0.0131  0.0129
 5095TIP3    H115228   2.384   4.462   5.786 -0.0930  1.8070  1.8888
 5095TIP3    H215229   2.304   4.571   5.719  0.0434  1.1910  0.7042
 5096TIP3   OH215230   4.796   2.009   5.233  0.7285  1.0178 -0.3606
 5096TIP3    H115231   4.877   1.990   5.186 -0.0012  1.9116 -2.0377
 5096TIP3    H215232   4.738   1.937   5.211  0.8508  0.6979  0.3436
 5097TIP3   OH215233   1.390   7.798   5.893  0.0401 -0.3260  0.1296
 5097TIP3    H115234   1.366   7.817   5.983  0.1356  3.1417 -0.4393
 5097TIP3    H215235   1.485   7.809   5.890 -0.0371  0.2709 -0.4826
 5098TIP3   OH215236   7.630   3.812   0.926 -0.1069  0.4617  0.3928
 5098TIP3    H115237   7.642   3.772   1.012  0.5039 -0.8553 -0.2735
 5098TIP3    H215238   7.617   3.905   0.944  1.7940  0.5146  1.8153
 5099TIP3   OH215239   0.664   6.000   0.506 -0.4953 -0.1162 -0.5397
 5099TIP3    H115240   0.677   6.089   0.540 -2.6443  0.1269 -0.2001
 5099TIP3    H215241   0.700   5.943   0.574 -0.8409  0.4638  0.1501
 5100TIP3   OH215242   7.380   1.922   3.430  0.3427  0.6508  0.0458
 5100TIP3    H115243   7.434   1.856   3.386 -0.5174  0.4437 -0.7228
 5100TIP3    H215244   7.437   1.999   3.438  0.9894  0.1855 -0.0681
 5101TIP3   OH215245   8.280   5.525   1.836  0.4715 -0.1229 -0.0638
 5101TIP3    H115246   8.260   5.431   1.834  3.1319 -0.7561 -0.8414
 5101TIP3    H215247   8.247   5.555   1.921 -1.3739 -1.4866 -0.2269
 5102TIP3   OH215248   4.465   5.618   6.113  0.2038  0.5902  0.2663
 5102TIP3    H115249   4.501   5.606   6.201  0.7371  1.8372  0.2372
 5102TIP3    H215250   4.484   5.535   6.068 -1.2615 -0.5705  1.6977
 5103TIP3   OH215251   3.192   3.095   2.504 -0.2081  0.4529 -0.4334
 5103TIP3    H115252   3.196   3.190   2.506 -0.8910  0.4800  0.6665
 5103TIP3    H215253   3.206   3.072   2.412  1.2996  1.5327 -0.5012
 5104TIP3   OH215254   0.733   5.694   1.696 -0.4443 -0.0636  0.4027
 5104TIP3    H115255   0.754   5.748   1.772  1.2989  0.8625 -0.6745
 5104TIP3    H215256   0.817   5.676   1.656 -1.2429 -1.3971 -0.7570
 5105TIP3   OH215257   5.300   1.295   4.524  0.3447 -0.1241  0.2714
 5105TIP3    H115258   5.317   1.230   4.592  0.9979 -1.4988 -1.1584
 5105TIP3    H215259   5.206   1.286   4.505  0.0540  0.6061  1.3045
 5106TIP3   OH215260   0.696   2.569   2.633 -0.7984 -0.0676  0.5114
 5106TIP3    H115261   0.740   2.495   2.674 -0.1834  0.5667  1.0266
 5106TIP3    H215262   0.693   2.547   2.540  1.6321  0.3264  0.2764
 5107TIP3   OH215263   1.573   3.766   5.096 -0.0337  0.3866 -0.4092
 5107TIP3    H115264   1.614   3.690   5.055  0.1304 -0.0094  0.4688
 5107TIP3    H215265   1.604   3.764   5.187 -0.9930  0.8075 -0.0610
 5108TIP3   OH215266   4.633   4.713   1.148  0.3273 -0.8846 -0.0457
 5108TIP3    H115267   4.543   4.689   1.128  0.1554  0.4363 -1.0495
 5108TIP3    H215268   4.625   4.785   1.210  0.7383 -1.5683  0.8167
 5109TIP3   OH215269   6.958   6.446   0.528  0.0507  0.3578 -0.4800
 5109TIP3    H115270   6.944   6.524   0.473 -0.9093  0.4415 -0.1422
 5109TIP3    H215271   6.942   6.477   0.617  1.2100  0.1291 -0.1755
 5110TIP3   OH215272   4.888   2.127   5.476  0.6559 -0.3488  0.4182
 5110TIP3    H115273   4.803   2.172   5.473  0.3965 -0.7518  1.3811
 5110TIP3    H215274   4.903   2.098   5.386 -0.6940 -1.1301  0.4236
 5111TIP3   OH215275   0.196   5.905   3.748 -0.1780  0.0632  0.7259
 5111TIP3    H115276   0.118   5.849   3.746  1.2349 -2.0195 -0.6070
 5111TIP3    H215277   0.261   5.853   3.795  0.8891  1.0448  0.3737
 5112TIP3   OH215278   4.047   7.699   6.123  0.1353 -0.5188 -0.6690
 5112TIP3    H115279   4.134   7.659   6.135  0.8033  1.1910  0.5035
 5112TIP3    H215280   4.022   7.673   6.035  2.0228 -0.7570 -1.1915
 5113TIP3   OH215281   3.172   3.595   2.296  0.2078 -0.5201 -0.7424
 5113TIP3    H115282   3.133   3.524   2.245 -0.8292  0.1841 -0.9511
 5113TIP3    H215283   3.215   3.550   2.370 -1.6509 -1.2921 -0.0786
 5114TIP3   OH215284   5.145   4.822   4.621  0.0638  0.2089  0.2729
 5114TIP3    H115285   5.201   4.876   4.677  0.3103 -0.3613  0.5915
 5114TIP3    H215286   5.056   4.842   4.649  0.1938 -0.2270  1.0264
 5115TIP3   OH215287   0.601   1.280   2.124 -0.4024 -0.5233  0.1313
 5115TIP3    H115288   0.608   1.361   2.174  2.9145 -1.8582  2.1635
 5115TIP3    H215289   0.510   1.279   2.093 -1.5347  2.3377  2.7653
 5116TIP3   OH215290   2.585   4.154   3.236  0.1280 -0.0474 -0.0366
 5116TIP3    H115291   2.628   4.210   3.301  2.7130 -0.3709 -1.3183
 5116TIP3    H215292   2.580   4.068   3.279  1.3733 -0.1414 -0.0271
 5117TIP3   OH215293   3.182   6.525   6.667 -0.3702  0.5499  0.7926
 5117TIP3    H115294   3.209   6.463   6.600  2.4242  2.8093 -0.4230
 5117TIP3    H215295   3.128   6.474   6.728  1.1364 -2.8179 -0.4564
 5118TIP3   OH215296   0.416   1.865   6.724 -0.6348 -0.0315  0.0562
 5118TIP3    H115297   0.435   1.906   6.808 -0.5019 -0.4440  0.2334
 5118TIP3    H215298   0.468   1.914   6.660  0.9629 -1.0386  0.5106
 5119TIP3   OH215299   4.394   6.215   6.083 -0.0546  0.1251 -0.1423
 5119TIP3    H115300   4.391   6.307   6.055 -0.4005 -0.0871 -0.8183
 5119TIP3    H215301   4.410   6.166   6.002 -0.9714 -0.4897  0.0315
 5120TIP3   OH215302   1.250   3.787   3.435 -0.0596  0.1646  0.4134
 5120TIP3    H115303   1.295   3.872   3.431  1.4405 -0.6526 -1.3109
 5120TIP3    H215304   1.314   3.728   3.475 -0.3309 -0.5783 -0.2257
 5121TIP3   OH215305   6.984   2.188   2.012 -0.1318 -0.6249 -0.4071
 5121TIP3    H115306   7.001   2.272   1.970 -2.5195  0.3202  0.3531
 5121TIP3    H215307   6.985   2.124   1.940 -0.0991  0.3258 -1.2675
 5122TIP3   OH215308   8.168   6.839   1.564  0.0725  0.5372  0.5661
 5122TIP3    H115309   8.080   6.815   1.595  0.9577 -0.2727  2.6666
 5122TIP3    H215310   8.225   6.771   1.600  1.8976  2.4532  1.4892
 5123TIP3   OH215311   3.696   0.770   1.270  0.2514  0.1238  0.7094
 5123TIP3    H115312   3.665   0.708   1.204  0.0328 -0.4583  1.3452
 5123TIP3    H215313   3.620   0.786   1.326  0.6538 -0.0783  1.3320
 5124TIP3   OH215314   2.716   6.710   1.892 -0.1683  0.2274  0.2186
 5124TIP3    H115315   2.687   6.667   1.811  0.6664 -1.0960  0.5783
 5124TIP3    H215316   2.749   6.795   1.863  0.6149 -0.4332 -0.9156
 5125TIP3   OH215317   2.677   6.973   0.082  0.4583  0.0014  0.6400
 5125TIP3    H115318   2.708   6.892   0.122 -1.0902 -0.6166  0.6500
 5125TIP3    H215319   2.757   7.024   0.068  1.4193 -1.3148  1.0562
 5126TIP3   OH215320   7.136   6.710   6.243  0.0964 -0.0403 -0.1180
 5126TIP3    H115321   7.068   6.677   6.184  0.2425 -0.1222 -0.2408
 5126TIP3    H215322   7.116   6.804   6.251  0.6445  0.1700 -1.0698
 5127TIP3   OH215323   1.439   3.594   5.518 -0.2561  0.0719 -0.0650
 5127TIP3    H115324   1.457   3.607   5.425  1.1303 -1.0616  0.0213
 5127TIP3    H215325   1.428   3.683   5.553  2.0939  0.7136 -0.7702
 5128TIP3   OH215326   3.811   6.671   4.621 -0.0012 -0.1278  0.6334
 5128TIP3    H115327   3.897   6.661   4.578 -0.1650  1.9861 -0.2920
 5128TIP3    H215328   3.812   6.759   4.657 -2.1867  0.3751 -0.3826
 5129TIP3   OH215329   3.861   6.213   3.429 -0.0025 -0.2416  0.0291
 5129TIP3    H115330   3.796   6.170   3.373  0.9271 -2.8265  0.7590
 5129TIP3    H215331   3.945   6.195   3.387  0.6470 -1.6553  1.7956
 5130TIP3   OH215332   2.042   3.674   5.949 -0.0776  0.1427 -0.6502
 5130TIP3    H115333   2.050   3.637   6.037 -1.0374  1.3863 -0.0085
 5130TIP3    H215334   2.104   3.624   5.896  2.9617  1.4681  1.3899
 5131TIP3   OH215335   0.998   5.157   0.940 -0.4419  0.1452  0.1450
 5131TIP3    H115336   0.969   5.189   0.855  1.1923 -0.9137 -0.8375
 5131TIP3    H215337   0.943   5.080   0.957 -1.0160  0.5673  0.2521
 5132TIP3   OH215338   0.239   4.816   2.281  0.4473 -0.0987  0.0528
 5132TIP3    H115339   0.248   4.811   2.376 -2.0532 -0.4601  0.3541
 5132TIP3    H215340   0.205   4.904   2.264 -0.3053 -0.4523 -0.3431
 5133TIP3   OH215341   2.187   0.925   6.282  0.2630 -0.3928  0.5498
 5133TIP3    H115342   2.121   0.985   6.244 -0.9780 -2.8383 -1.4771
 5133TIP3    H215343   2.144   0.889   6.360 -0.3947 -1.1086 -0.1192
 5134TIP3   OH215344   0.602   2.657   3.682  0.0355  0.1056 -0.2816
 5134TIP3    H115345   0.615   2.698   3.768  2.6472  1.3231 -1.1459
 5134TIP3    H215346   0.651   2.575   3.686 -1.5724 -0.8845  0.0109
 5135TIP3   OH215347   0.373   4.038   5.382  0.4625  0.3782  0.4965
 5135TIP3    H115348   0.295   4.084   5.352  0.9501  1.6170  1.0258
 5135TIP3    H215349   0.416   4.101   5.441  0.9490 -0.9310  1.5923
 5136TIP3   OH215350   4.177   5.369   6.740  0.4602  0.2157  0.2889
 5136TIP3    H115351   4.239   5.437   6.765  0.9964 -0.3539  0.5222
 5136TIP3    H215352   4.139   5.340   6.823  0.3351  0.1331  0.2026
 5137TIP3   OH215353   1.412   2.955   4.719  0.3686  0.3207 -0.5246
 5137TIP3    H115354   1.429   3.026   4.656  0.0286 -0.0797 -1.0752
 5137TIP3    H215355   1.442   2.876   4.675  2.6787  0.3177  0.8841
 5138TIP3   OH215356   0.840   1.074   2.678  0.4709  0.0869  0.1316
 5138TIP3    H115357   0.821   1.005   2.614  1.5392 -0.1834  0.0869
 5138TIP3    H215358   0.792   1.048   2.756  0.2182 -0.2869 -0.1448
 5139TIP3   OH215359   2.524   1.575   5.091  0.2463 -0.5058 -0.0268
 5139TIP3    H115360   2.451   1.630   5.120  0.4464  1.0444 -2.2017
 5139TIP3    H215361   2.489   1.528   5.015  0.8015 -1.6538  0.4070
 5140TIP3   OH215362   3.047   2.873   5.145 -0.1315 -0.2257 -0.3605
 5140TIP3    H115363   3.089   2.828   5.219 -1.0537  0.5494  0.6557
 5140TIP3    H215364   3.120   2.904   5.092  0.5811  0.2293  0.8430
 5141TIP3   OH215365   1.068   5.204   1.818  0.4657 -0.4472  0.3931
 5141TIP3    H115366   1.044   5.246   1.736 -0.7336  0.8164  1.3352
 5141TIP3    H215367   1.140   5.257   1.852  1.0140 -1.0144  0.1307
 5142TIP3   OH215368   8.052   1.806   4.876  0.2765 -0.8265 -0.1216
 5142TIP3    H115369   8.066   1.713   4.860 -0.2987 -0.8754 -0.3752
 5142TIP3    H215370   8.079   1.849   4.794 -1.3795 -0.9604 -0.7932
 5143TIP3   OH215371   2.698   4.900   4.031  0.1419  0.4649  0.0214
 5143TIP3    H115372   2.664   4.866   4.114  1.3487  0.8907  0.7023
 5143TIP3    H215373   2.782   4.939   4.053  0.4501  0.6544 -1.3959
 5144TIP3   OH215374   0.757   0.905   4.085 -0.7094  0.3116 -0.7017
 5144TIP3    H115375   0.704   0.983   4.075 -0.3048  0.5558 -0.9716
 5144TIP3    H215376   0.759   0.865   3.998 -2.3391 -0.9501 -0.2198
 5145TIP3   OH215377   1.525   3.345   3.399 -0.1277 -0.2567  0.1011
 5145TIP3    H115378   1.559   3.434   3.403 -0.6719 -0.0438  0.0770
 5145TIP3    H215379   1.536   3.311   3.488 -0.5001  0.0586  0.2715
 5146TIP3   OH215380   4.136   1.112   5.941 -0.2632 -0.1723  0.0470
 5146TIP3    H115381   4.111   1.027   5.907  1.4482 -0.1046 -1.5081
 5146TIP3    H215382   4.152   1.096   6.035 -1.2144 -1.2420  0.0495
 5147TIP3   OH215383   2.051   2.768   3.144  0.1903  1.1700 -0.1129
 5147TIP3    H115384   2.073   2.698   3.206 -0.2951 -0.8276 -2.0266
 5147TIP3    H215385   2.123   2.766   3.080 -2.1588 -1.2006 -2.9933
 5148TIP3   OH215386   2.254   4.567   1.057  0.0333  0.1733  0.9102
 5148TIP3    H115387   2.235   4.593   0.966 -0.5902 -0.2849  0.9017
 5148TIP3    H215388   2.204   4.486   1.069 -2.0405  1.5717  2.4557
 5149TIP3   OH215389   2.770   2.854   0.818 -0.5043 -0.4301 -0.4348
 5149TIP3    H115390   2.696   2.803   0.850  0.4234 -1.0449  0.7938
 5149TIP3    H215391   2.845   2.821   0.867  0.1505  2.0883  0.4181
 5150TIP3   OH215392   7.510   0.525   5.150 -0.2569 -0.1608  0.2713
 5150TIP3    H115393   7.435   0.533   5.209  0.6427 -0.3257  1.4818
 5150TIP3    H215394   7.584   0.560   5.200  0.4569  0.1444 -0.9475
 5151TIP3   OH215395   6.733   1.336   2.218 -0.0427  0.1329 -0.1605
 5151TIP3    H115396   6.740   1.322   2.312  0.6525 -0.9249 -0.3546
 5151TIP3    H215397   6.728   1.431   2.208 -0.6511  0.2391  0.9663
 5152TIP3   OH215398   4.606   4.627   0.138 -0.1295 -0.1879  0.3492
 5152TIP3    H115399   4.648   4.565   0.078  1.6506 -0.5793  1.9224
 5152TIP3    H215400   4.629   4.597   0.225  0.9210  2.7118  1.2034
 5153TIP3   OH215401   6.662   1.043   1.854 -0.1519 -0.6832 -0.2589
 5153TIP3    H115402   6.659   0.984   1.929  1.6174  0.3314  0.6960
 5153TIP3    H215403   6.724   1.111   1.880  0.3753 -0.1786 -2.5714
 5154TIP3   OH215404   7.814   7.128   1.455 -0.3257  0.0634 -0.5798
 5154TIP3    H115405   7.835   7.046   1.411 -3.1234 -0.5102 -1.0324
 5154TIP3    H215406   7.834   7.196   1.391 -0.3993 -0.4574 -1.1553
 5155TIP3   OH215407   5.414   5.186   5.711 -0.2495  0.0074 -0.5490
 5155TIP3    H115408   5.493   5.199   5.764 -0.8540  2.7022 -0.1434
 5155TIP3    H215409   5.368   5.114   5.754  1.8784 -1.5791 -0.7580
 5156TIP3   OH215410   7.641   7.339   0.662  0.0229  0.0842  0.2561
 5156TIP3    H115411   7.600   7.422   0.640 -0.0667  0.4425  1.7049
 5156TIP3    H215412   7.732   7.360   0.678  0.1842 -0.2500 -0.1884
 5157TIP3   OH215413   0.932   2.875   4.172 -0.2673  0.1838 -0.3797
 5157TIP3    H115414   0.959   2.965   4.190  1.0747 -0.2377 -0.1896
 5157TIP3    H215415   0.896   2.879   4.083  2.3403  0.4590 -1.5291
 5158TIP3   OH215416   7.053   4.054   0.055 -0.0626 -0.3616  0.0140
 5158TIP3    H115417   7.096   4.122   0.003 -1.6849 -0.3446 -1.3697
 5158TIP3    H215418   7.088   4.067   0.143  2.2769  0.0183 -0.8913
 5159TIP3   OH215419   6.524   4.797   0.946  0.2266 -0.7620 -0.5297
 5159TIP3    H115420   6.432   4.769   0.942  0.2703 -0.9088 -0.4771
 5159TIP3    H215421   6.530   4.865   0.878  0.1070 -0.8312 -0.6105
 5160TIP3   OH215422   0.133   4.607   2.671 -0.1486 -0.7262 -0.6463
 5160TIP3    H115423   0.043   4.619   2.641 -0.7938  0.4034  1.4881
 5160TIP3    H215424   0.181   4.680   2.633 -0.2013 -1.1143 -1.4800
 5161TIP3   OH215425   7.967   7.670   0.809 -0.2113  0.4327 -0.1138
 5161TIP3    H115426   7.928   7.711   0.732 -1.2390 -0.5218 -0.1214
 5161TIP3    H215427   8.056   7.705   0.812  0.0335  0.0811 -2.0504
 5162TIP3   OH215428   8.183   1.201   4.393  0.2773  0.4651  0.5641
 5162TIP3    H115429   8.100   1.238   4.422 -0.2829 -0.3265  0.0123
 5162TIP3    H215430   8.231   1.275   4.356 -1.1517  0.5565 -1.2928
 5163TIP3   OH215431   4.698   1.734   0.318  0.2701  0.2462  0.1554
 5163TIP3    H115432   4.676   1.668   0.251 -0.4947  1.3915 -0.7736
 5163TIP3    H215433   4.672   1.817   0.278 -0.3846  0.9550  1.9620
 5164TIP3   OH215434   3.811   4.771   3.060  0.7148 -0.7109  0.3901
 5164TIP3    H115435   3.826   4.683   3.024  1.3678  0.6042 -2.8738
 5164TIP3    H215436   3.883   4.824   3.025 -0.8687  1.5907  0.4374
 5165TIP3   OH215437   4.783   6.458   0.737  0.0346 -0.2191  0.0688
 5165TIP3    H115438   4.856   6.419   0.689 -0.8255  0.9307 -2.3556
 5165TIP3    H215439   4.790   6.552   0.719 -1.1998  0.0918  1.0158
 5166TIP3   OH215440   1.740   7.430   5.345 -0.1129 -0.3356 -0.0832
 5166TIP3    H115441   1.705   7.514   5.376  0.3267  0.5476 -1.8617
 5166TIP3    H215442   1.662   7.379   5.324 -0.3814 -0.1792  0.4991
 5167TIP3   OH215443   7.760   1.547   3.864 -0.6956  0.0055 -0.4845
 5167TIP3    H115444   7.718   1.619   3.819 -0.1071  0.0301 -1.0136
 5167TIP3    H215445   7.787   1.583   3.948 -1.6072  0.0192 -0.1895
 5168TIP3   OH215446   2.167   0.573   3.109 -0.2848 -0.6317  0.0937
 5168TIP3    H115447   2.119   0.613   3.037 -0.3463 -1.5022 -0.3694
 5168TIP3    H215448   2.257   0.564   3.076  0.4698  1.7358  1.2419
 5169TIP3   OH215449   1.001   6.895   1.524 -0.2865 -0.1858 -0.6532
 5169TIP3    H115450   1.033   6.814   1.484 -1.0611 -0.5336 -0.5929
 5169TIP3    H215451   0.925   6.868   1.576 -2.1995  0.8971 -2.6806
 5170TIP3   OH215452   7.648   2.345   3.945  0.2618  0.3376 -0.3703
 5170TIP3    H115453   7.627   2.284   3.874  0.7780  0.2657 -0.4654
 5170TIP3    H215454   7.588   2.419   3.932 -1.3724 -0.7417  0.5662
 5171TIP3   OH215455   3.845   4.305   2.166  0.1515 -0.3242 -0.7056
 5171TIP3    H115456   3.926   4.344   2.198  0.3123 -0.8764 -0.4150
 5171TIP3    H215457   3.798   4.377   2.124  1.1039 -0.1458 -1.5003
 5172TIP3   OH215458   1.499   6.510   2.435 -0.2478 -0.1128  0.1632
 5172TIP3    H115459   1.518   6.578   2.371  4.7058 -1.5504 -0.3520
 5172TIP3    H215460   1.462   6.438   2.384 -0.7020  0.3936 -0.2243
 5173TIP3   OH215461   7.660   6.790   1.525  0.4712 -0.0569 -0.4987
 5173TIP3    H115462   7.596   6.860   1.539  0.8081 -0.0546  1.2882
 5173TIP3    H215463   7.611   6.722   1.479 -0.4124  0.5386 -0.4799
 5174TIP3   OH215464   2.228   3.535   1.572 -0.3596 -0.0477 -0.6479
 5174TIP3    H115465   2.148   3.576   1.540 -0.3381  0.7716  0.2913
 5174TIP3    H215466   2.203   3.492   1.653  0.3225  1.0956  0.2162
 5175TIP3   OH215467   1.728   2.831   1.906  0.5087  0.2794 -0.4131
 5175TIP3    H115468   1.791   2.784   1.961 -0.3557 -1.2176 -0.6493
 5175TIP3    H215469   1.775   2.847   1.824  1.3522  1.3296  0.2419
 5176TIP3   OH215470   1.547   1.106   0.725 -0.5966 -0.0997 -0.0718
 5176TIP3    H115471   1.576   1.051   0.651  0.5626 -0.2802  0.4872
 5176TIP3    H215472   1.491   1.048   0.776 -0.2180 -0.4498 -0.0403
 5177TIP3   OH215473   0.101   1.430   3.574  0.0143  0.3382 -0.5598
 5177TIP3    H115474   0.051   1.350   3.594 -0.7236  0.5988 -1.3147
 5177TIP3    H215475   0.061   1.497   3.629  0.5203  0.2323 -0.0561
 5178TIP3   OH215476   5.812   3.209   0.347 -0.3613  0.3903  0.0490
 5178TIP3    H115477   5.771   3.242   0.267 -1.9267 -1.9760 -0.2453
 5178TIP3    H215478   5.749   3.146   0.382  0.9033  0.3175  2.4014
 5179TIP3   OH215479   8.267   6.469   0.123 -0.5366 -0.1464  0.4145
 5179TIP3    H115480   8.188   6.430   0.162 -1.1764  2.2807  1.7446
 5179TIP3    H215481   8.295   6.535   0.186  1.9899 -0.1924 -0.5310
 5180TIP3   OH215482   6.530   1.926   3.418  0.4925 -0.3454 -0.2446
 5180TIP3    H115483   6.522   1.983   3.342  2.4391 -0.5909 -0.6656
 5180TIP3    H215484   6.519   1.985   3.493  2.5346  0.6468 -0.6650
 5181TIP3   OH215485   7.283   0.195   0.295 -0.6434 -0.2377  0.4517
 5181TIP3    H115486   7.231   0.233   0.367 -0.0120  0.2415  0.6660
 5181TIP3    H215487   7.291   0.266   0.232  1.9428  0.6060  1.5867
 5182TIP3   OH215488   5.259   2.050   2.806  0.9647  0.0076  0.4889
 5182TIP3    H115489   5.354   2.058   2.807  0.9463  0.2225  0.5264
 5182TIP3    H215490   5.231   2.090   2.888  0.7698  0.8837  0.0054
 5183TIP3   OH215491   0.222   1.917   0.086 -0.5640  0.0221 -0.3240
 5183TIP3    H115492   0.221   1.837   0.033 -0.6571 -0.7004  0.7334
 5183TIP3    H215493   0.304   1.911   0.135 -1.4759 -0.4221  1.2081
 5184TIP3   OH215494   0.832   0.545   1.319  0.1809  0.4538 -0.0210
 5184TIP3    H115495   0.862   0.477   1.380  1.6424  1.1810  0.1154
 5184TIP3    H215496   0.881   0.623   1.344  0.6276  0.8403 -1.9501
 5185TIP3   OH215497   5.699   5.016   4.695  0.0764 -0.2176  0.0645
 5185TIP3    H115498   5.703   5.102   4.653  1.2562 -0.5540 -0.5276
 5185TIP3    H215499   5.685   4.954   4.624 -1.3839 -0.4875  0.5529
 5186TIP3   OH215500   2.996   2.803   0.543  0.5477 -0.2338  0.3248
 5186TIP3    H115501   3.057   2.851   0.599 -0.3503 -1.1879  2.2387
 5186TIP3    H215502   3.029   2.713   0.545  0.0211 -0.4349  0.0270
 5187TIP3   OH215503   3.094   6.140   3.329 -0.4173  0.0875  0.0975
 5187TIP3    H115504   3.066   6.056   3.364 -0.0334 -0.4785 -0.8901
 5187TIP3    H215505   3.173   6.120   3.279 -0.0731  1.1110  0.1989
 5188TIP3   OH215506   0.591   2.434   6.427  0.2298  0.5826  0.3844
 5188TIP3    H115507   0.645   2.359   6.450  2.1039  0.9913 -2.2156
 5188TIP3    H215508   0.526   2.399   6.366 -1.6279  0.3911  2.3376
 5189TIP3   OH215509   5.110   6.717   5.124 -0.2087 -0.6387 -0.4732
 5189TIP3    H115510   5.084   6.650   5.061 -3.6847  0.3081 -0.2346
 5189TIP3    H215511   5.162   6.779   5.073  0.4319 -1.8970 -1.4017
 5190TIP3   OH215512   3.214   5.876   2.102 -0.3814  0.0154  0.0364
 5190TIP3    H115513   3.236   5.933   2.029  0.7210 -0.2335  0.1561
 5190TIP3    H215514   3.281   5.808   2.101  0.4434  0.7071  2.0439
 5191TIP3   OH215515   1.640   0.875   0.970 -0.7220 -0.1830 -0.2049
 5191TIP3    H115516   1.631   0.800   1.029 -2.1873 -0.7048 -1.0245
 5191TIP3    H215517   1.550   0.897   0.947 -0.2042 -0.0087 -2.2429
 5192TIP3   OH215518   5.965   4.859   2.762 -0.1953  0.1847  0.0191
 5192TIP3    H115519   5.902   4.915   2.808  1.1300  2.6481 -0.9813
 5192TIP3    H215520   6.037   4.850   2.824 -0.0976  0.1704 -0.0990
 5193TIP3   OH215521   6.493   5.428   5.826  0.0911  0.5849  0.2642
 5193TIP3    H115522   6.421   5.480   5.790  0.2389  0.1945 -0.6146
 5193TIP3    H215523   6.502   5.353   5.766  1.1343  0.5547  0.4276
 5194TIP3   OH215524   8.201   5.282   5.256  0.5737  0.5367  0.2309
 5194TIP3    H115525   8.180   5.188   5.253 -0.5838  0.7756  0.2914
 5194TIP3    H215526   8.118   5.324   5.278  0.8884  1.6390 -0.5880
 5195TIP3   OH215527   2.941   0.392   2.241  0.3128 -0.4633 -0.0534
 5195TIP3    H115528   2.848   0.387   2.217 -0.7349  0.5094  3.1692
 5195TIP3    H215529   2.971   0.475   2.205 -1.1377  0.8973  1.6347
 5196TIP3   OH215530   0.715   1.199   6.305  0.0147  0.3759  0.0293
 5196TIP3    H115531   0.772   1.135   6.261 -0.5471  0.0490 -0.2366
 5196TIP3    H215532   0.626   1.167   6.288 -0.2174 -0.5778  2.6447
 5197TIP3   OH215533   4.262   4.622   2.906  0.4708 -0.2155  0.2868
 5197TIP3    H115534   4.213   4.550   2.946  0.7274 -0.9902 -0.7502
 5197TIP3    H215535   4.327   4.579   2.851 -1.5139  0.7229 -3.0379
 5198TIP3   OH215536   2.343   5.968   2.181 -0.3997 -0.4346 -0.2459
 5198TIP3    H115537   2.321   5.889   2.133  0.5066 -0.0589 -1.3101
 5198TIP3    H215538   2.433   5.954   2.210  0.4507  0.9397 -2.0521
 5199TIP3   OH215539   4.842   2.393   2.198 -1.0045 -0.2560 -0.1623
 5199TIP3    H115540   4.815   2.424   2.112 -0.4284  4.7452  1.1532
 5199TIP3    H215541   4.761   2.391   2.249 -0.9571 -0.4385 -0.0922
 5200TIP3   OH215542   1.017   2.352   0.467 -0.1001  0.0423 -0.5132
 5200TIP3    H115543   0.993   2.429   0.520  1.3051 -0.4820  0.9524
 5200TIP3    H215544   1.093   2.380   0.416  0.0569 -0.2002 -0.4133
 5201TIP3   OH215545   2.377   1.550   2.706  0.1105  0.2159 -0.0140
 5201TIP3    H115546   2.430   1.623   2.676 -1.3876  0.6290 -1.8778
 5201TIP3    H215547   2.318   1.587   2.772 -0.1063  0.5382 -0.3814
 5202TIP3   OH215548   0.688   5.823   1.407  0.2366 -0.9510  0.0163
 5202TIP3    H115549   0.667   5.862   1.492 -1.6193 -1.8357  0.0066
 5202TIP3    H215550   0.640   5.876   1.343 -0.7531 -2.0363 -0.1728
 5203TIP3   OH215551   2.166   0.133   6.465 -0.3829  0.0309 -1.0307
 5203TIP3    H115552   2.229   0.071   6.429 -2.3018 -1.6266 -1.6922
 5203TIP3    H215553   2.117   0.083   6.530 -1.9398  0.8651 -1.5171
 5204TIP3   OH215554   3.168   3.416   2.054  0.0239  0.5236  0.0270
 5204TIP3    H115555   3.106   3.432   1.984  0.9234 -2.5353 -1.6275
 5204TIP3    H215556   3.250   3.453   2.023  0.5170 -1.1687 -0.8193
 5205TIP3   OH215557   4.318   7.088   5.166  0.0733 -0.3145 -0.6422
 5205TIP3    H115558   4.317   7.076   5.261 -1.7629  0.0772 -0.5704
 5205TIP3    H215559   4.339   7.001   5.131  3.9166  0.1666  0.1050
 5206TIP3   OH215560   7.052   1.112   3.137  0.1337 -0.0772 -0.2861
 5206TIP3    H115561   7.003   1.086   3.215  0.2032  1.2409  0.2288
 5206TIP3    H215562   7.042   1.207   3.134  0.5461 -0.0640 -1.6143
 5207TIP3   OH215563   4.600   7.004   3.766 -0.5173  0.0004 -0.3666
 5207TIP3    H115564   4.538   7.036   3.832 -1.3583  1.0001 -1.5826
 5207TIP3    H215565   4.600   6.909   3.777 -1.9728  0.0035 -0.0488
 5208TIP3   OH215566   1.692   5.455   4.807  0.3696  0.7404  0.6270
 5208TIP3    H115567   1.714   5.380   4.751  1.4204  1.8998 -0.5683
 5208TIP3    H215568   1.597   5.465   4.798  0.3786  0.2579 -0.0963
 5209TIP3   OH215569   6.161   0.373   1.489 -0.2785 -0.1331 -0.0812
 5209TIP3    H115570   6.142   0.463   1.514 -1.0627 -0.3774  0.2335
 5209TIP3    H215571   6.213   0.380   1.409  0.1492  0.6044  0.2506
 5210TIP3   OH215572   4.670   6.738   2.195  0.6052  0.5810 -0.1215
 5210TIP3    H115573   4.688   6.647   2.170  1.1081  0.6958 -0.1898
 5210TIP3    H215574   4.733   6.757   2.264  0.8911  1.0609 -0.5073
 5211TIP3   OH215575   7.156   7.672   6.159  0.4380 -0.0276 -0.0419
 5211TIP3    H115576   7.068   7.636   6.170  0.5772 -0.3414  0.0404
 5211TIP3    H215577   7.144   7.767   6.165  0.3865 -0.1316  1.9523
 5212TIP3   OH215578   6.269   1.710   2.073  0.3588 -0.5961 -0.2314
 5212TIP3    H115579   6.238   1.727   2.161  1.2915 -0.7504  0.1383
 5212TIP3    H215580   6.291   1.617   2.072 -0.2863 -0.7543 -0.8394
 5213TIP3   OH215581   6.488   5.071   5.039 -0.9964 -0.1689  0.3217
 5213TIP3    H115582   6.489   5.018   4.959  0.2006  2.5030 -1.5610
 5213TIP3    H215583   6.580   5.078   5.064 -1.0659  1.3262  0.2538
 5214TIP3   OH215584   3.184   3.400   4.382  0.6134 -0.5009 -0.4548
 5214TIP3    H115585   3.202   3.402   4.476 -1.2339  0.2776 -0.0743
 5214TIP3    H215586   3.145   3.485   4.363  0.2476 -0.9420 -1.7761
 5215TIP3   OH215587   1.309   3.568   1.467  0.0054 -0.3279  0.1750
 5215TIP3    H115588   1.254   3.508   1.415 -1.3512  1.7129 -0.8731
 5215TIP3    H215589   1.396   3.558   1.429 -0.3413 -1.1148 -0.4559
 5216TIP3   OH215590   3.684   0.938   3.600 -0.4955 -0.3718  0.3981
 5216TIP3    H115591   3.594   0.951   3.572 -0.3313  1.3336  0.5658
 5216TIP3    H215592   3.728   0.901   3.523 -0.6646  1.6595 -0.7371
 5217TIP3   OH215593   0.758   0.726   0.101  0.4805 -0.5950 -0.1774
 5217TIP3    H115594   0.786   0.813   0.129  0.2063  0.5895 -3.2156
 5217TIP3    H215595   0.840   0.681   0.078  0.5531 -0.8110  0.4865
 5218TIP3   OH215596   7.323   3.369   2.044 -0.0345  0.1472 -0.1389
 5218TIP3    H115597   7.344   3.462   2.057 -0.3705  0.4106 -1.3014
 5218TIP3    H215598   7.308   3.335   2.132  3.0599  0.4383  0.5858
 5219TIP3   OH215599   3.287   0.453   0.657  0.2605  0.2809 -0.1852
 5219TIP3    H115600   3.318   0.543   0.669 -0.3864  0.3334  1.3143
 5219TIP3    H215601   3.367   0.402   0.644  0.8737  0.7146  1.5840
 5220TIP3   OH215602   4.574   5.629   5.270 -0.1770  0.0005 -0.3220
 5220TIP3    H115603   4.549   5.693   5.203 -2.1550 -0.2494  0.1208
 5220TIP3    H215604   4.590   5.548   5.221 -0.7387  0.0477 -0.5894
 5221TIP3   OH215605   2.045   0.272   4.193  0.5425  0.2949  0.4000
 5221TIP3    H115606   2.101   0.271   4.116 -0.4850 -0.8056 -0.3651
 5221TIP3    H215607   1.956   0.266   4.159 -0.2062  3.2083  1.5125
 5222TIP3   OH215608   4.876   5.541   2.723 -0.1084 -0.6937 -0.0223
 5222TIP3    H115609   4.854   5.632   2.704  1.6979 -0.6573 -2.3237
 5222TIP3    H215610   4.801   5.508   2.772 -0.1634  2.4129  2.2739
 5223TIP3   OH215611   2.362   3.419   6.566 -0.0281  0.0031 -0.1970
 5223TIP3    H115612   2.351   3.340   6.512 -1.4618  0.4026 -0.5287
 5223TIP3    H215613   2.273   3.447   6.586  0.4559  0.3958  1.6330
 5224TIP3   OH215614   2.615   2.237   4.115  0.3311  0.1594  0.2567
 5224TIP3    H115615   2.565   2.217   4.036  1.1617 -0.0117 -0.2349
 5224TIP3    H215616   2.566   2.307   4.158 -0.9676 -0.8075  0.4034
 5225TIP3   OH215617   7.879   4.621   6.554  0.1207 -0.3365 -0.5121
 5225TIP3    H115618   7.939   4.663   6.617  1.4526  1.5587 -2.8622
 5225TIP3    H215619   7.927   4.622   6.471 -2.0027 -1.6451 -1.8473
 5226TIP3   OH215620   2.511   3.267   3.870  0.2577  0.2737 -0.1339
 5226TIP3    H115621   2.441   3.210   3.899  0.2468  0.6071  0.5002
 5226TIP3    H215622   2.496   3.278   3.776  0.8448 -1.5767 -0.4861
 5227TIP3   OH215623   8.033   4.138   5.102 -0.0954 -0.3441 -0.0631
 5227TIP3    H115624   7.999   4.054   5.132  0.4694 -0.7439 -0.5198
 5227TIP3    H215625   7.957   4.182   5.062 -1.0686  0.5201  2.4971
 5228TIP3   OH215626   4.613   1.592   6.218  0.1535 -0.2957 -0.2417
 5228TIP3    H115627   4.588   1.635   6.135 -0.0879 -0.9710 -0.5259
 5228TIP3    H215628   4.652   1.662   6.270 -4.6416  1.6762  1.3482
 5229TIP3   OH215629   0.049   7.504   3.353  0.3796 -0.3717 -0.5560
 5229TIP3    H115630  -0.014   7.472   3.288 -0.2515  1.0098 -0.6560
 5229TIP3    H215631   0.018   7.468   3.436  1.5107 -2.6225 -1.0381
 5230TIP3   OH215632   4.736   7.615   5.171  0.2673  0.2068  0.2001
 5230TIP3    H115633   4.777   7.592   5.088 -0.7831 -0.9565 -0.0219
 5230TIP3    H215634   4.726   7.710   5.168  2.1866  0.4557 -0.0641
 5231TIP3   OH215635   3.346   1.698   5.220 -0.0153 -0.2799 -0.0644
 5231TIP3    H115636   3.337   1.756   5.296  3.0992  0.4766 -0.1510
 5231TIP3    H215637   3.337   1.609   5.256 -1.2417  0.1158  0.6702
 5232TIP3   OH215638   0.206   4.044   0.089  0.8711 -0.1374 -0.0623
 5232TIP3    H115639   0.302   4.039   0.081  0.7614 -3.3496 -1.1573
 5232TIP3    H215640   0.183   3.968   0.143 -1.0626  0.6879  0.3440
 5233TIP3   OH215641   3.503   1.016   5.328 -0.4728  0.0893  0.2393
 5233TIP3    H115642   3.565   1.054   5.265 -2.1365  0.5530 -1.2098
 5233TIP3    H215643   3.468   1.092   5.376 -2.4542  0.3142 -1.4038
 5234TIP3   OH215644   2.632   4.818   3.074 -0.3381  0.4229  0.2546
 5234TIP3    H115645   2.625   4.840   2.981 -0.1954  2.3158  0.6484
 5234TIP3    H215646   2.721   4.843   3.098 -0.0349 -0.9963  0.6923
 5235TIP3   OH215647   5.287   5.449   4.572 -0.2789 -0.0437 -0.7164
 5235TIP3    H115648   5.212   5.432   4.515 -0.4082 -0.6242 -0.3838
 5235TIP3    H215649   5.341   5.511   4.523 -0.0042 -1.1060 -1.8237
 5236TIP3   OH215650   3.144   5.095   1.043  0.2740 -0.1583 -0.2564
 5236TIP3    H115651   3.053   5.123   1.052  0.6957  0.7002  1.6927
 5236TIP3    H215652   3.140   4.999   1.049 -0.4809 -0.1226 -0.0384
 5237TIP3   OH215653   3.396   5.370   5.699  0.1320 -0.5996 -0.1622
 5237TIP3    H115654   3.491   5.374   5.687  0.0675  0.6950 -0.4153
 5237TIP3    H215655   3.379   5.281   5.728  1.6506 -0.3544  1.7011
 5238TIP3   OH215656   6.243   6.336   1.964 -0.9669  0.0589  0.1443
 5238TIP3    H115657   6.237   6.300   2.052 -0.2487 -2.3636 -0.7027
 5238TIP3    H215658   6.230   6.260   1.906  1.6941  0.9185 -1.8030
 5239TIP3   OH215659   2.318   1.582   4.723 -0.3408  0.1183  0.0603
 5239TIP3    H115660   2.369   1.502   4.739 -1.1348 -0.6498 -1.0941
 5239TIP3    H215661   2.227   1.555   4.734 -0.6171  0.8730 -0.3071
 5240TIP3   OH215662   2.137   0.787   3.976  0.1132 -0.3907  0.1148
 5240TIP3    H115663   2.096   0.709   3.939 -0.9113  0.0543  0.2867
 5240TIP3    H215664   2.101   0.859   3.924  1.3490 -0.0430 -0.3087
 5241TIP3   OH215665   8.125   2.255   0.757  0.5812  0.0167 -0.1063
 5241TIP3    H115666   8.188   2.283   0.823  1.0754  1.7389 -1.2797
 5241TIP3    H215667   8.134   2.159   0.755  4.4285  0.2358 -1.4441
 5242TIP3   OH215668   5.897   5.147   0.511 -0.4190  0.2510 -0.5599
 5242TIP3    H115669   5.922   5.128   0.601 -0.3964 -0.3494 -0.6917
 5242TIP3    H215670   5.951   5.089   0.458 -2.9157 -2.0217 -0.8099
 5243TIP3   OH215671   7.907   5.965   3.169 -0.1457  0.9021 -0.0949
 5243TIP3    H115672   7.882   5.885   3.121  0.2787  0.0726  1.0300
 5243TIP3    H215673   7.877   6.036   3.112  1.7699  0.0176 -2.4125
 5244TIP3   OH215674   2.748   2.045   3.198  0.5590  0.0889  0.1664
 5244TIP3    H115675   2.824   2.014   3.247 -0.1143  0.1692  1.3129
 5244TIP3    H215676   2.761   2.140   3.191 -0.5726  0.4866  2.5247
 5245TIP3   OH215677   0.448   7.659   3.141 -0.0158 -0.1172  0.0815
 5245TIP3    H115678   0.467   7.568   3.163  1.3077  0.0038 -0.4270
 5245TIP3    H215679   0.382   7.654   3.071 -1.3151 -0.6023  1.3009
 5246TIP3   OH215680   1.580   0.412   3.472  0.1853  0.0916  0.5778
 5246TIP3    H115681   1.495   0.416   3.428  0.8701 -0.5791 -0.8908
 5246TIP3    H215682   1.643   0.439   3.405  1.3747 -1.9391  0.7883
 5247TIP3   OH215683   7.020   3.855   6.288  0.3662  0.5281 -0.7343
 5247TIP3    H115684   7.111   3.832   6.305  0.0747  0.3915  0.8100
 5247TIP3    H215685   7.023   3.914   6.214  1.3881 -2.3456 -3.1953
 5248TIP3   OH215686   4.466   2.684   4.112 -0.6685 -0.4962  0.3904
 5248TIP3    H115687   4.533   2.749   4.092 -1.0498 -0.2103  0.0159
 5248TIP3    H215688   4.473   2.670   4.206  2.0568 -2.8257  0.0021
 5249TIP3   OH215689   6.456   5.561   2.463  0.3639 -0.4385  0.4262
 5249TIP3    H115690   6.515   5.494   2.499 -0.9173 -1.2249  1.1097
 5249TIP3    H215691   6.370   5.540   2.499 -0.3831  0.6074 -0.6675
 5250TIP3   OH215692   2.469   5.669   2.609  0.0889  0.1520 -0.3457
 5250TIP3    H115693   2.543   5.729   2.620 -0.2674  0.8992 -1.6627
 5250TIP3    H215694   2.430   5.696   2.525 -1.8542 -0.0204  0.4632
 5251TIP3   OH215695   5.893   2.688   6.019  0.6132  0.3775  0.3140
 5251TIP3    H115696   5.922   2.766   6.066  0.1548  0.1374  1.0005
 5251TIP3    H215697   5.866   2.721   5.933  0.2401  1.0073  0.6615
 5252TIP3   OH215698   2.028   4.239   0.309  0.1730  0.0136  0.3612
 5252TIP3    H115699   1.977   4.318   0.290  1.3889  0.8828  0.5753
 5252TIP3    H215700   1.985   4.170   0.259 -0.0240  1.1253 -1.0848
 5253TIP3   OH215701   2.367   2.733   1.537  0.0160 -0.3344 -0.5468
 5253TIP3    H115702   2.375   2.689   1.452  2.0084 -0.6282 -0.2735
 5253TIP3    H215703   2.445   2.705   1.585  0.9586  2.7488 -0.0346
 5254TIP3   OH215704   3.277   6.489   5.290  0.1855 -0.3081 -0.1531
 5254TIP3    H115705   3.191   6.531   5.281 -0.5300 -0.7763  3.2594
 5254TIP3    H215706   3.263   6.399   5.259 -1.0350 -0.8062  1.6744
 5255TIP3   OH215707   1.893   1.180   0.845  0.0396  0.1220  0.0054
 5255TIP3    H115708   1.831   1.251   0.861 -0.9299 -0.6881 -0.0050
 5255TIP3    H215709   1.883   1.122   0.921  1.3119  0.3276  0.3474
 5256TIP3   OH215710   5.516   2.370   2.581  0.0352 -0.7878 -0.3270
 5256TIP3    H115711   5.424   2.376   2.555  0.0604  1.5875 -0.0497
 5256TIP3    H215712   5.543   2.282   2.553 -2.5217 -1.8914  0.3411
 5257TIP3   OH215713   0.287   5.573   2.074 -0.2330 -0.5793 -0.3364
 5257TIP3    H115714   0.257   5.577   2.165 -0.0453  0.2495 -0.3037
 5257TIP3    H215715   0.273   5.662   2.041  0.1380 -0.7598 -0.9751
 5258TIP3   OH215716   1.998   1.289   0.418 -0.1417 -0.1057  0.2186
 5258TIP3    H115717   1.962   1.201   0.430  0.2274 -0.2996 -0.0858
 5258TIP3    H215718   2.060   1.300   0.490 -0.7482  0.2083  0.7118
 5259TIP3   OH215719   2.114   0.972   0.321 -0.0797  0.5639  0.4636
 5259TIP3    H115720   2.209   0.984   0.314 -0.0726  0.3990  0.2710
 5259TIP3    H215721   2.104   0.890   0.368 -0.1296  1.0777  1.3805
 5260TIP3   OH215722   4.561   7.555   5.596 -0.2633 -0.2163 -0.3392
 5260TIP3    H115723   4.545   7.532   5.687 -0.5293  0.1638 -0.2896
 5260TIP3    H215724   4.512   7.491   5.545  1.0242 -1.3175 -0.2495
 5261TIP3   OH215725   7.700   5.884   2.833 -0.2542  0.6304  0.7302
 5261TIP3    H115726   7.666   5.795   2.841  2.3295 -0.3332  2.1714
 5261TIP3    H215727   7.664   5.930   2.909  1.2695 -0.2835  2.0572
 5262TIP3   OH215728   2.872   2.017   1.994 -0.5594  0.0832 -0.2552
 5262TIP3    H115729   2.930   2.007   1.918  1.6826  1.0782  1.2378
 5262TIP3    H215730   2.910   1.960   2.061 -0.0960  2.1989  1.3914
 5263TIP3   OH215731   1.417   1.401   2.586 -0.0794  0.0791  0.5991
 5263TIP3    H115732   1.463   1.349   2.520 -0.1589 -0.8182  1.2348
 5263TIP3    H215733   1.324   1.382   2.570 -0.0346 -2.4642  2.7567
 5264TIP3   OH215734   6.437   3.147   2.204 -0.5951  0.2602 -0.5270
 5264TIP3    H115735   6.408   3.072   2.254 -1.0563  0.7338 -0.0791
 5264TIP3    H215736   6.388   3.142   2.122 -0.4913 -0.0250 -0.5709
 5265TIP3   OH215737   7.185   5.269   3.967  0.4374  0.2908 -0.1298
 5265TIP3    H115738   7.092   5.290   3.967  0.1731 -0.7682  1.2981
 5265TIP3    H215739   7.212   5.276   4.059  1.4817 -0.6198 -0.3387
 5266TIP3   OH215740   3.413   5.079   5.510 -0.2333 -0.4297  0.1169
 5266TIP3    H115741   3.483   5.143   5.521  1.0900 -1.6517 -0.7743
 5266TIP3    H215742   3.368   5.078   5.595  0.9293  0.2881  0.7770
 5267TIP3   OH215743   6.557   2.828   4.457 -0.2718 -0.4851 -0.2581
 5267TIP3    H115744   6.563   2.864   4.545  0.1082 -0.4377 -0.3056
 5267TIP3    H215745   6.565   2.733   4.469 -0.3635 -0.4892 -0.2281
 5268TIP3   OH215746   2.462   6.409   0.684  0.5706 -0.0383 -0.3836
 5268TIP3    H115747   2.535   6.349   0.673  0.5335 -0.5758  1.7310
 5268TIP3    H215748   2.494   6.474   0.746 -1.1713 -1.2374  1.9346
 5269TIP3   OH215749   3.093   4.164   0.033 -0.1500  0.0969  0.1646
 5269TIP3    H115750   3.027   4.178   0.100 -1.3344  0.8674 -1.1203
 5269TIP3    H215751   3.116   4.252   0.003  3.0200  0.0378  1.9769
 5270TIP3   OH215752   3.993   1.086   1.463 -0.1889  0.5052  0.5691
 5270TIP3    H115753   4.056   1.157   1.471 -1.5670  1.7307  1.0525
 5270TIP3    H215754   3.910   1.130   1.441 -0.4122 -1.2391 -2.6531
 5271TIP3   OH215755   6.728   4.805   2.103  0.0221  0.6196  0.2489
 5271TIP3    H115756   6.798   4.844   2.051  1.6992  1.1665  2.7562
 5271TIP3    H215757   6.671   4.764   2.038  2.2870  0.6873 -1.9554
 5272TIP3   OH215758   3.586   5.981   5.787  0.3988 -0.1937  0.0247
 5272TIP3    H115759   3.496   6.008   5.769  0.4899 -0.4857 -0.8874
 5272TIP3    H215760   3.616   5.938   5.707  1.8557  1.2244 -0.2641
 5273TIP3   OH215761   6.754   0.020   1.044  0.2235  0.2671 -0.7276
 5273TIP3    H115762   6.818  -0.046   1.016 -0.8914 -0.2377 -2.1989
 5273TIP3    H215763   6.779   0.098   0.994  1.0964  0.7770  0.4667
 5274TIP3   OH215764   8.169   0.913   0.641 -0.1127  0.4530 -0.1804
 5274TIP3    H115765   8.137   0.852   0.707 -2.0244 -1.1086 -2.4059
 5274TIP3    H215766   8.262   0.891   0.631 -0.3840 -0.9820  0.2255
 5275TIP3   OH215767   3.059   4.139   5.609  0.2112  0.0156  0.9971
 5275TIP3    H115768   3.140   4.188   5.625  1.5958 -1.5786 -0.6686
 5275TIP3    H215769   3.041   4.096   5.692  1.9290 -0.7606  1.0085
 5276TIP3   OH215770   7.264   1.168   2.968  0.2658 -0.0886  0.1597
 5276TIP3    H115771   7.180   1.142   3.007  0.4169 -0.8924 -0.0268
 5276TIP3    H215772   7.246   1.171   2.874 -0.0763  1.7623  0.2395
 5277TIP3   OH215773   0.097   5.541   2.713 -0.2251 -0.4147 -0.2075
 5277TIP3    H115774   0.178   5.499   2.687 -0.7591 -1.4017 -0.3323
 5277TIP3    H215775   0.122   5.602   2.782  0.5111 -1.3034  0.3357
 5278TIP3   OH215776   3.772   2.399   2.674 -0.0390 -0.0037  0.0532
 5278TIP3    H115777   3.795   2.379   2.765 -1.5550  0.3755  0.5551
 5278TIP3    H215778   3.730   2.485   2.679 -0.1085  0.0358 -1.0142
 5279TIP3   OH215779   3.847   0.873   4.232  0.1133 -0.6193  0.1358
 5279TIP3    H115780   3.781   0.844   4.169 -0.6998 -0.1478  0.7459
 5279TIP3    H215781   3.920   0.812   4.221 -0.6432 -1.4912 -0.1750
 5280TIP3   OH215782   0.529   7.231   4.669 -0.7911  0.6688  0.3200
 5280TIP3    H115783   0.481   7.215   4.751 -2.0987 -0.8368 -0.6649
 5280TIP3    H215784   0.610   7.181   4.678 -0.7642  0.8010  0.8334
 5281TIP3   OH215785   1.496   7.013   1.981 -0.0012 -0.3914  0.0055
 5281TIP3    H115786   1.565   6.950   1.961  0.0675 -0.2594 -0.1711
 5281TIP3    H215787   1.454   7.031   1.896 -0.1603 -0.3629  0.0886
 5282TIP3   OH215788   0.833   0.668   2.840 -0.4381  0.5430 -0.2201
 5282TIP3    H115789   0.885   0.631   2.768 -0.1884  0.3090  0.0795
 5282TIP3    H215790   0.742   0.654   2.813 -0.4570 -2.8925  1.1243
 5283TIP3   OH215791   3.967   7.112   1.121 -0.2581  0.2826  0.4451
 5283TIP3    H115792   3.922   7.028   1.119  0.5545 -0.2952  2.7700
 5283TIP3    H215793   3.946   7.148   1.207  1.4022  1.2826  0.4847
 5284TIP3   OH215794   1.763   2.737   6.036 -0.5911  0.5223  0.2219
 5284TIP3    H115795   1.690   2.741   5.974  0.0684 -0.1797 -0.6473
 5284TIP3    H215796   1.829   2.795   5.999 -0.7345  1.2431  1.0637
 5285TIP3   OH215797   7.149   6.289   4.665 -0.0337  0.6600 -0.4078
 5285TIP3    H115798   7.216   6.221   4.662 -0.0330  0.5933  0.6483
 5285TIP3    H215799   7.070   6.244   4.694  0.0732  1.1729  0.7323
 5286TIP3   OH215800   6.667   2.833   6.794  0.2090  0.3052  0.0419
 5286TIP3    H115801   6.618   2.799   6.719  2.1030  0.0628 -1.1631
 5286TIP3    H215802   6.740   2.772   6.805  0.6795  1.0489  1.2854
 5287TIP3   OH215803   7.024   7.016   5.978  0.1246 -0.1533 -0.1519
 5287TIP3    H115804   7.114   7.017   5.946  0.0479 -1.7906 -0.4625
 5287TIP3    H215805   6.974   6.970   5.911 -0.7325 -0.2763  0.5448
 5288TIP3   OH215806   7.706   0.590   3.619  0.2730  0.0194  0.1456
 5288TIP3    H115807   7.627   0.550   3.584 -0.2770  1.1856 -0.0054
 5288TIP3    H215808   7.765   0.596   3.544  0.4691 -0.7381  0.2309
 5289TIP3   OH215809   3.881   6.580   3.885  0.1494  0.4651  0.2152
 5289TIP3    H115810   3.899   6.536   3.967  2.5933 -0.4042 -0.7027
 5289TIP3    H215811   3.826   6.518   3.836 -0.8706  0.7672  0.9421
 5290TIP3   OH215812   2.183   1.121   5.896 -0.3459 -0.2927  0.4298
 5290TIP3    H115813   2.212   1.152   5.810 -1.7877 -0.5865 -0.1841
 5290TIP3    H215814   2.192   1.026   5.891 -0.5154 -0.3156  0.5660
 5291TIP3   OH215815   3.489   4.810   5.497  0.4805 -0.8508  0.1471
 5291TIP3    H115816   3.475   4.901   5.469 -0.2670 -1.3537 -1.2163
 5291TIP3    H215817   3.428   4.797   5.569 -0.3371 -0.6372 -0.4949
 5292TIP3   OH215818   5.254   2.013   0.768 -0.3149 -0.5555  0.5187
 5292TIP3    H115819   5.255   1.918   0.782  0.3575 -0.5700  0.4438
 5292TIP3    H215820   5.218   2.024   0.680 -3.1638 -0.5468  1.5968
 5293TIP3   OH215821   4.643   0.718   1.171  0.9780  0.0608  0.3533
 5293TIP3    H115822   4.675   0.725   1.261  1.2310  0.5143  0.2320
 5293TIP3    H215823   4.558   0.763   1.172  1.8122  1.7187 -0.0342
 5294TIP3   OH215824   4.031   6.277   3.205  0.0189  0.3274 -0.3857
 5294TIP3    H115825   3.948   6.280   3.156  1.1760  2.5425 -2.4269
 5294TIP3    H215826   4.092   6.234   3.145  0.6717 -0.1673  0.6066
 5295TIP3   OH215827   4.375   5.483   3.781  0.6139  0.3240  0.4428
 5295TIP3    H115828   4.438   5.446   3.719 -0.5878  0.1347 -0.7140
 5295TIP3    H215829   4.334   5.406   3.821 -0.6578  0.3803 -0.6895
 5296TIP3   OH215830   2.828   7.000   1.806 -0.5553  0.5181 -0.2556
 5296TIP3    H115831   2.903   6.979   1.751  0.4488 -0.3012  1.3311
 5296TIP3    H215832   2.859   7.068   1.865 -1.1371  0.3568  0.2543
 5297TIP3   OH215833   2.406   3.232   4.290  0.1172  0.1925 -0.0439
 5297TIP3    H115834   2.415   3.325   4.310  1.0454  0.5849 -2.0432
 5297TIP3    H215835   2.449   3.187   4.363 -1.5576  1.2164  1.6722
 5298TIP3   OH215836   1.583   7.752   3.704  0.6565 -0.0417  0.1667
 5298TIP3    H115837   1.657   7.691   3.710  1.4968  0.6527 -2.2005
 5298TIP3    H215838   1.507   7.697   3.724  1.5251 -1.5255 -0.3958
 5299TIP3   OH215839   4.537   4.375   3.672 -0.6712  0.3038  0.1444
 5299TIP3    H115840   4.624   4.409   3.691  0.2660 -1.1268 -1.3767
 5299TIP3    H215841   4.525   4.389   3.578 -1.9952  0.2562  0.2820
 5300TIP3   OH215842   0.504   5.399   4.212  0.3302 -0.1612 -0.3803
 5300TIP3    H115843   0.533   5.482   4.173 -0.4908  0.1870 -0.2717
 5300TIP3    H215844   0.434   5.424   4.272  0.7802 -0.8250  0.4520
 5301TIP3   OH215845   2.353   4.379   4.380 -0.8605  0.7195  0.4303
 5301TIP3    H115846   2.301   4.373   4.300  0.9617 -0.6353 -0.7178
 5301TIP3    H215847   2.344   4.293   4.421  1.4254 -0.0310 -0.4771
 5302TIP3   OH215848   1.873   6.559   3.976  0.1308 -0.0154 -0.2132
 5302TIP3    H115849   1.796   6.572   3.921 -1.8382 -1.3558  2.0236
 5302TIP3    H215850   1.925   6.638   3.964 -1.7650  1.0995 -1.5742
 5303TIP3   OH215851   2.999   4.698   2.406  0.1122 -0.8549 -0.4828
 5303TIP3    H115852   3.088   4.682   2.437  0.2743 -2.0090 -1.4567
 5303TIP3    H215853   2.946   4.706   2.485  0.7070 -2.4728  0.1205
 5304TIP3   OH215854   0.698   7.812   0.753 -0.1910  0.0776  0.1560
 5304TIP3    H115855   0.702   7.721   0.781  0.1969 -0.0444 -0.2862
 5304TIP3    H215856   0.651   7.857   0.824 -0.2127 -0.4259  0.4655
 5305TIP3   OH215857   0.652   4.885   2.880  0.0136 -0.7642 -0.6465
 5305TIP3    H115858   0.694   4.943   2.943  1.0340 -1.9521 -0.1878
 5305TIP3    H215859   0.657   4.931   2.796  0.9416 -0.2736 -0.3246
 5306TIP3   OH215860   3.678   1.828   6.290 -0.0020 -0.7789 -0.3244
 5306TIP3    H115861   3.647   1.903   6.240 -1.4216 -1.4986 -0.5658
 5306TIP3    H215862   3.765   1.810   6.254  1.0119  1.5973  0.7121
 5307TIP3   OH215863   4.203   7.266   2.830  0.1301  0.0465 -0.7426
 5307TIP3    H115864   4.203   7.171   2.821 -1.5073  0.0321 -1.0378
 5307TIP3    H215865   4.189   7.281   2.924 -0.3910 -0.0387 -0.7992
 5308TIP3   OH215866   2.125   6.642   1.077  0.2191  0.3185 -0.1509
 5308TIP3    H115867   2.165   6.590   1.008 -0.4687  0.7904 -0.9267
 5308TIP3    H215868   2.045   6.676   1.038 -1.2016 -0.9516  1.4795
 5309TIP3   OH215869   0.130   7.095   3.360 -0.0266  0.0528  0.3438
 5309TIP3    H115870   0.065   7.113   3.292  1.0315  1.4371 -0.3528
 5309TIP3    H215871   0.170   7.012   3.333 -1.3805 -0.7482  0.7153
 5310TIP3   OH215872   5.270   1.032   2.792 -0.4394 -0.0818 -0.3405
 5310TIP3    H115873   5.354   1.010   2.831 -0.6697  0.3534  0.4153
 5310TIP3    H215874   5.241   0.951   2.750  0.0686 -0.4003 -0.0831
 5311TIP3   OH215875   0.657   6.285   5.179 -0.2631  0.2290 -0.0904
 5311TIP3    H115876   0.698   6.231   5.112 -1.0356 -0.7691  0.2267
 5311TIP3    H215877   0.699   6.260   5.261  0.0472  0.8030 -0.0653
 5312TIP3   OH215878   6.654   0.668   4.561 -0.1826 -0.6392 -0.0674
 5312TIP3    H115879   6.616   0.612   4.493  0.8126 -1.6633  0.1978
 5312TIP3    H215880   6.680   0.747   4.514  2.9756 -2.3828 -1.5076
 5313TIP3   OH215881   4.938   4.787   5.011  0.8776 -0.6379 -0.1570
 5313TIP3    H115882   5.023   4.767   4.971  0.7942 -0.3793 -0.4716
 5313TIP3    H215883   4.927   4.881   4.997  0.6276 -0.6341  0.0560
 5314TIP3   OH215884   4.734   0.052   6.470  0.1741 -0.0963 -0.5813
 5314TIP3    H115885   4.730  -0.043   6.458  1.1606 -0.5315  1.9472
 5314TIP3    H215886   4.667   0.070   6.536  0.8460  0.7794 -0.1263
 5315TIP3   OH215887   6.782   3.388   1.049 -0.4095 -0.0237  0.6868
 5315TIP3    H115888   6.802   3.453   0.981  1.6726  0.4019  1.6215
 5315TIP3    H215889   6.745   3.314   1.001  1.1491  0.1978 -0.9832
 5316TIP3   OH215890   6.388   6.625   3.802  0.4253  0.0301  0.0119
 5316TIP3    H115891   6.344   6.552   3.847  0.0540 -0.1222 -0.5846
 5316TIP3    H215892   6.323   6.695   3.802  0.5610  0.1547  0.0526
 5317TIP3   OH215893   6.607   5.038   3.464  0.2907 -0.3184  0.3948
 5317TIP3    H115894   6.616   5.006   3.553 -0.1517  1.3153  1.0603
 5317TIP3    H215895   6.513   5.038   3.447  0.1747  1.4653  0.7895
 5318TIP3   OH215896   1.905   1.133   1.670  0.8549  0.2025  0.0323
 5318TIP3    H115897   1.821   1.087   1.667  0.5808  0.5616  1.2583
 5318TIP3    H215898   1.938   1.130   1.581  0.0557 -0.9099 -0.2422
 5319TIP3   OH215899   3.388   1.195   0.404  0.0821 -0.7506 -0.5826
 5319TIP3    H115900   3.360   1.183   0.495  0.3063 -2.3682 -0.6838
 5319TIP3    H215901   3.322   1.253   0.365  0.9011  1.3638  1.0053
 5320TIP3   OH215902   6.578   7.349   3.152  0.0513 -0.0224 -0.6508
 5320TIP3    H115903   6.507   7.326   3.091  0.5424 -1.8367 -0.6056
 5320TIP3    H215904   6.533   7.371   3.234 -0.5169  0.1249 -0.9965
 5321TIP3   OH215905   4.459   0.373   4.196  0.1766 -0.1229  0.9498
 5321TIP3    H115906   4.370   0.366   4.162 -0.6898  0.8659  2.8495
 5321TIP3    H215907   4.500   0.289   4.174 -0.6878 -0.0047 -1.3033
 5322TIP3   OH215908   4.484   5.064   4.603  0.3330 -0.2573  0.2552
 5322TIP3    H115909   4.521   5.101   4.683 -0.1739 -0.5306  0.6241
 5322TIP3    H215910   4.459   5.139   4.550 -1.3219 -0.0403  1.2848
 5323TIP3   OH215911   4.540   4.460   4.389 -0.8926  0.3893  0.1612
 5323TIP3    H115912   4.592   4.399   4.441  0.9192  0.8777 -1.0030
 5323TIP3    H215913   4.450   4.449   4.423 -0.2355 -1.1771  1.5663
 5324TIP3   OH215914   6.247   2.473   3.715  0.2693  0.4911 -0.5079
 5324TIP3    H115915   6.210   2.561   3.702  0.6178  0.6285 -0.5792
 5324TIP3    H215916   6.176   2.423   3.755  0.8067  1.4432  1.7973
 5325TIP3   OH215917   7.047   7.269   5.817  0.0071 -0.4009  0.3676
 5325TIP3    H115918   7.011   7.277   5.729  0.7304  1.7671  0.2201
 5325TIP3    H215919   7.038   7.176   5.838  1.3424 -1.3564 -2.6655
 5326TIP3   OH215920   0.342   5.430   4.732  0.3109  0.6706 -0.4173
 5326TIP3    H115921   0.300   5.449   4.815  1.0078 -1.2434  0.4304
 5326TIP3    H215922   0.275   5.449   4.666 -1.9602 -2.1699  0.8476
 5327TIP3   OH215923   0.674   1.011   4.615  0.6647  0.2111 -0.7530
 5327TIP3    H115924   0.619   1.089   4.628 -0.2340  0.0208 -3.0682
 5327TIP3    H215925   0.761   1.039   4.643  0.5615  2.3712 -2.3290
 5328TIP3   OH215926   5.053   4.377   6.567 -0.0444 -0.2573  0.1258
 5328TIP3    H115927   5.088   4.390   6.655 -0.5464 -0.5812  0.3826
 5328TIP3    H215928   5.111   4.312   6.528  0.4769  0.2506  0.0311
 5329TIP3   OH215929   3.553   2.327   0.107  0.6733 -0.0360 -0.1741
 5329TIP3    H115930   3.547   2.420   0.129 -0.1065 -0.2201  0.4521
 5329TIP3    H215931   3.514   2.282   0.183 -0.9120 -0.7589 -1.3561
 5330TIP3   OH215932   0.484   7.746   4.832 -0.0550 -0.1585 -0.0747
 5330TIP3    H115933   0.523   7.666   4.797  1.0270  0.3448 -0.0413
 5330TIP3    H215934   0.406   7.760   4.777  1.1897  0.1962 -1.8310
 5331TIP3   OH215935   6.190   6.000   5.971  0.2613  0.3068  0.1623
 5331TIP3    H115936   6.200   5.924   5.914  0.7845  1.4012 -1.2412
 5331TIP3    H215937   6.205   5.965   6.059 -1.2372 -1.5441 -0.2599
 5332TIP3   OH215938   6.964   1.473   1.418 -0.7059 -0.2169  0.0760
 5332TIP3    H115939   7.021   1.457   1.343  1.5052  2.3536  1.0522
 5332TIP3    H215940   6.999   1.416   1.487  0.6828  1.1897  0.6053
 5333TIP3   OH215941   1.674   6.129   4.170 -0.0895 -0.4822 -0.0425
 5333TIP3    H115942   1.738   6.132   4.098 -0.5371  1.1133 -0.4229
 5333TIP3    H215943   1.690   6.210   4.218 -1.1276 -0.5806  0.4824
 5334TIP3   OH215944   1.422   3.585   3.156  0.4855 -0.2201  0.3318
 5334TIP3    H115945   1.445   3.510   3.209 -0.3758  0.0579  1.1186
 5334TIP3    H215946   1.490   3.589   3.088  1.2874 -0.8918  1.0871
 5335TIP3   OH215947   8.062   1.964   1.040  0.1310 -0.1628  0.4934
 5335TIP3    H115948   8.110   1.918   1.109  0.0138 -0.7401  0.1918
 5335TIP3    H215949   7.971   1.963   1.071 -0.2995 -2.3278 -0.6481
 5336TIP3   OH215950   2.241   1.335   3.951 -0.0418 -0.2516 -0.0491
 5336TIP3    H115951   2.180   1.350   4.022 -0.1738 -0.7497 -0.0492
 5336TIP3    H215952   2.294   1.415   3.946 -0.7610  0.2215 -0.1250
 5337TIP3   OH215953   4.370   6.493   1.101  0.0324 -0.9274  0.1231
 5337TIP3    H115954   4.335   6.425   1.159 -1.2844  0.1025  0.5913
 5337TIP3    H215955   4.460   6.506   1.131 -0.5540 -0.5626  1.8410
 5338TIP3   OH215956   6.174   1.183   1.008 -0.7003  0.3881 -0.5915
 5338TIP3    H115957   6.080   1.164   1.019 -0.6241 -0.5883 -1.4466
 5338TIP3    H215958   6.178   1.276   0.989 -1.4614  0.5274 -0.1081
 5339TIP3   OH215959   1.121   3.958   6.164 -0.0088  0.2054  0.4635
 5339TIP3    H115960   1.175   3.977   6.241  0.0340  0.3820  0.3896
 5339TIP3    H215961   1.184   3.952   6.092 -0.1124  0.6434  0.3363
 5340TIP3   OH215962   1.517   0.400   2.557 -0.0020  0.0548 -0.7254
 5340TIP3    H115963   1.462   0.361   2.489 -3.4944 -0.8810  2.2945
 5340TIP3    H215964   1.504   0.494   2.548 -2.2593 -0.1413 -0.1429
 5341TIP3   OH215965   6.483   1.858   1.968  0.2395 -0.0660 -0.5701
 5341TIP3    H115966   6.476   1.922   2.040 -1.8645  1.6548 -2.1629
 5341TIP3    H215967   6.403   1.806   1.975 -0.3178  0.5478 -1.9846
 5342TIP3   OH215968   7.396   4.614   1.683 -0.3741 -0.2565 -0.5706
 5342TIP3    H115969   7.354   4.536   1.719 -1.5916  0.4326 -0.4545
 5342TIP3    H215970   7.449   4.647   1.756 -0.9814 -0.1871 -0.1477
 5343TIP3   OH215971   2.059   0.191   4.649 -0.9178  0.0393  0.1448
 5343TIP3    H115972   2.117   0.123   4.684 -1.2724 -0.4568 -0.2226
 5343TIP3    H215973   2.113   0.237   4.584 -1.2658 -1.1594 -1.0354
 5344TIP3   OH215974   6.626   1.564   6.048 -0.1384 -0.0179 -0.1317
 5344TIP3    H115975   6.687   1.637   6.035  1.7564 -1.5988 -0.6433
 5344TIP3    H215976   6.660   1.495   5.991 -2.1988 -1.1176 -0.0882
 5345TIP3   OH215977   0.571   5.816   5.002 -0.3986  0.5137  0.1172
 5345TIP3    H115978   0.660   5.791   5.029  0.1122  1.1581 -0.8853
 5345TIP3    H215979   0.523   5.733   4.997  0.2673  0.1096  0.2798
 5346TIP3   OH215980   6.054   1.895   3.902 -0.3764  0.2703  0.6014
 5346TIP3    H115981   6.099   1.895   3.818 -2.6320 -2.3330 -0.7608
 5346TIP3    H215982   6.117   1.857   3.963  0.0931 -1.3256 -0.7913
 5347TIP3   OH215983   1.874   6.037   1.304  0.4719 -0.5116  0.2635
 5347TIP3    H115984   1.931   5.993   1.241 -1.4044 -0.5836 -1.4770
 5347TIP3    H215985   1.886   6.130   1.287 -1.1018 -0.5459 -1.2903
 5348TIP3   OH215986   7.114   0.446   5.561 -0.0925 -0.3546 -0.1367
 5348TIP3    H115987   7.168   0.524   5.550  0.9819 -0.9398  0.8285
 5348TIP3    H215988   7.100   0.414   5.472 -1.1444  1.3028 -0.6138
 5349TIP3   OH215989   2.610   3.726   5.467 -0.9392 -0.3122  0.5154
 5349TIP3    H115990   2.675   3.761   5.527  0.3696  0.4911 -1.2924
 5349TIP3    H215991   2.648   3.644   5.435  0.1248  1.0408 -1.9248
 5350TIP3   OH215992   8.243   1.768   3.741 -0.0109  0.4671 -0.0154
 5350TIP3    H115993   8.158   1.727   3.755 -0.1140  0.3115 -1.0400
 5350TIP3    H215994   8.305   1.695   3.742 -0.2209  0.1863 -2.0807
 5351TIP3   OH215995   0.275   0.007   1.355  0.6452 -0.1766  0.0925
 5351TIP3    H115996   0.370   0.004   1.343  0.6912  1.2745 -0.0899
 5351TIP3    H215997   0.245   0.076   1.296 -0.3004  0.5703  1.3788
 5352TIP3   OH215998   0.294   6.764   1.001 -0.6904  0.3431 -0.6062
 5352TIP3    H115999   0.211   6.726   1.030 -1.0143  2.2156  1.2151
 5352TIP3    H216000   0.361   6.705   1.036 -1.1961  0.7400  1.1263
 5353TIP3   OH216001   6.983   5.458   2.554 -0.0101  0.1793 -0.0143
 5353TIP3    H116002   6.906   5.516   2.552 -0.5128 -0.4724 -0.0494
 5353TIP3    H216003   6.959   5.389   2.615 -0.0424 -0.8303 -1.1224
 5354TIP3   OH216004   4.803   7.675   5.695 -0.3013  0.9978  0.3186
 5354TIP3    H116005   4.764   7.760   5.717 -0.0237  0.5831  2.5749
 5354TIP3    H216006   4.733   7.628   5.649 -0.6545  2.2062 -0.4216
 5355TIP3   OH216007   7.299   3.295   0.385 -0.4694  0.1559  0.5736
 5355TIP3    H116008   7.248   3.277   0.464  0.0894  0.8450  1.1164
 5355TIP3    H216009   7.378   3.338   0.418 -1.1898  2.4768 -0.5143
 5356TIP3   OH216010   2.346   5.330   2.940  0.5791 -0.3352  0.5260
 5356TIP3    H116011   2.260   5.332   2.980  0.5019  2.1357  0.3745
 5356TIP3    H216012   2.408   5.331   3.013  0.4414  0.9565  0.6452
 5357TIP3   OH216013   6.605   6.083   1.022  0.2387  0.4498  0.0096
 5357TIP3    H116014   6.518   6.089   1.060  0.2704 -0.3250  0.2034
 5357TIP3    H216015   6.596   6.023   0.948  0.9278 -0.9153  0.9912
 5358TIP3   OH216016   5.917   3.222   3.860 -0.8523  0.6810 -0.2410
 5358TIP3    H116017   5.827   3.252   3.857 -0.7413  0.9759 -0.6963
 5358TIP3    H216018   5.964   3.280   3.801 -0.2739  0.8354  0.3605
 5359TIP3   OH216019   7.677   5.060   0.270  0.2289  0.1305  0.6202
 5359TIP3    H116020   7.725   4.982   0.245  0.4894  0.2606  0.7073
 5359TIP3    H216021   7.609   5.070   0.203  1.0217  0.5724 -0.1287
 5360TIP3   OH216022   8.267   7.842   6.011  0.0840 -0.4252  0.5690
 5360TIP3    H116023   8.237   7.781   6.078  0.0611  0.6596  1.5845
 5360TIP3    H216024   8.191   7.854   5.954  0.0147 -1.1486  0.5039
 5361TIP3   OH216025   1.918   2.071   5.070  0.1508  0.1384  0.2972
 5361TIP3    H116026   1.917   2.115   5.155 -2.1978  1.8985 -0.5504
 5361TIP3    H216027   1.984   2.119   5.019  0.8309 -0.2756  0.7583
 5362TIP3   OH216028   0.651   5.702   3.579 -0.1670 -0.1180 -0.2343
 5362TIP3    H116029   0.630   5.785   3.622 -0.4824 -0.9077  1.1784
 5362TIP3    H216030   0.737   5.678   3.614  1.2069  0.8995 -2.6624
 5363TIP3   OH216031   6.744   7.583   3.146 -0.2066  0.0283  0.4764
 5363TIP3    H116032   6.744   7.623   3.059 -0.0349  0.4990  0.6938
 5363TIP3    H216033   6.702   7.498   3.132 -0.9273  0.4320  0.0842
 5364TIP3   OH216034   5.610   3.658   1.213  0.0988 -0.7140  0.0239
 5364TIP3    H116035   5.595   3.618   1.299  2.7646  0.5181  1.1816
 5364TIP3    H216036   5.570   3.744   1.219 -0.5340 -0.9696 -0.3570
 5365TIP3   OH216037   7.815   0.969   0.661 -0.1073  1.1635 -0.3946
 5365TIP3    H116038   7.727   1.002   0.641  0.0993  2.1980  0.3131
 5365TIP3    H216039   7.818   0.964   0.757  0.0333 -0.5423 -0.4486
 5366TIP3   OH216040   7.803   1.960   1.131  0.6307  0.3258  0.1904
 5366TIP3    H116041   7.790   1.907   1.209  1.3114  1.6056  1.2285
 5366TIP3    H216042   7.727   2.019   1.130 -0.2596 -0.7830 -1.1000
 5367TIP3   OH216043   0.938   6.682   4.604 -0.2741 -0.4510 -0.2241
 5367TIP3    H116044   0.907   6.727   4.682 -0.0682  0.6680 -0.7606
 5367TIP3    H216045   0.997   6.745   4.562  0.7704 -1.5891 -0.5172
 5368TIP3   OH216046   0.696   0.993   1.859 -0.0690 -0.3327  0.1662
 5368TIP3    H116047   0.645   1.072   1.842 -2.8912 -1.6844  1.6637
 5368TIP3    H216048   0.643   0.921   1.825  0.6366 -1.8675  2.0448
 5369TIP3   OH216049   5.340   3.079   0.415 -0.3890 -0.1259  0.5622
 5369TIP3    H116050   5.303   3.134   0.484 -1.8805 -0.5570  0.1525
 5369TIP3    H216051   5.297   3.110   0.335  1.3088  0.3718 -0.1984
 5370TIP3   OH216052   1.931   6.173   4.497 -0.6045 -0.3454  0.1687
 5370TIP3    H116053   1.979   6.182   4.415  1.7318 -0.2017  1.4502
 5370TIP3    H216054   1.869   6.246   4.497  0.8141  0.9143 -0.5631
 5371TIP3   OH216055   6.626   2.191   4.505  0.0542 -0.2089  0.3075
 5371TIP3    H116056   6.712   2.160   4.531 -0.1004  0.3370  1.5542
 5371TIP3    H216057   6.601   2.252   4.574 -0.3858  1.3452 -1.1538
 5372TIP3   OH216058   1.105   1.865   2.754  0.3421  0.1734 -0.1041
 5372TIP3    H116059   1.132   1.802   2.821  0.6597 -0.2844 -0.6528
 5372TIP3    H216060   1.182   1.873   2.697 -0.0806  0.2022 -0.6755
 5373TIP3   OH216061   6.562   7.731   3.268 -0.5588  0.2753 -0.8076
 5373TIP3    H116062   6.585   7.824   3.270  2.4025 -0.3455  2.9181
 5373TIP3    H216063   6.642   7.687   3.240 -0.2966 -1.3458  2.1189
 5374TIP3   OH216064   7.883   4.476   0.877 -0.3420 -0.1257 -0.5182
 5374TIP3    H116065   7.960   4.531   0.866  0.0402  0.1707  2.6671
 5374TIP3    H216066   7.907   4.414   0.946 -3.4396  1.1532  1.9680
 5375TIP3   OH216067   5.323   6.527   1.998 -0.2051 -0.0812  0.6826
 5375TIP3    H116068   5.335   6.435   2.019  1.0922 -0.2059 -0.4418
 5375TIP3    H216069   5.412   6.560   1.982 -0.7646  0.9258 -0.5878
 5376TIP3   OH216070   7.719   7.742   0.398  0.1165 -0.0024 -0.5954
 5376TIP3    H116071   7.696   7.652   0.379 -0.3103  0.1038 -0.5959
 5376TIP3    H216072   7.663   7.794   0.341 -0.6874  0.2944  0.4155
 5377TIP3   OH216073   3.172   6.235   3.584 -0.0764 -0.0971 -0.6029
 5377TIP3    H116074   3.156   6.219   3.491 -2.8172 -0.6404 -0.1255
 5377TIP3    H216075   3.189   6.148   3.621 -0.3214 -0.0535 -0.3839
 5378TIP3   OH216076   5.947   3.413   5.688  0.3954  0.3793  0.2599
 5378TIP3    H116077   5.874   3.353   5.705 -2.2685  2.5055 -2.6978
 5378TIP3    H216078   5.922   3.494   5.733  2.3191  0.4261  1.3769
 5379TIP3   OH216079   4.627   0.282   1.888  0.2275 -0.0383  0.0608
 5379TIP3    H116080   4.671   0.292   1.972  1.9719 -1.0725 -0.6796
 5379TIP3    H216081   4.617   0.188   1.876 -1.9465  0.1442  0.0291
 5380TIP3   OH216082   5.227   1.286   2.695  0.5972  0.7691  0.6065
 5380TIP3    H116083   5.313   1.310   2.731  0.7670 -0.1335  0.8295
 5380TIP3    H216084   5.209   1.200   2.732 -0.5591  1.0839  0.8064
 5381TIP3   OH216085   1.637   6.606   3.832  0.8245  0.4276 -0.1955
 5381TIP3    H116086   1.656   6.525   3.785  1.4165  0.8561 -0.7266
 5381TIP3    H216087   1.570   6.583   3.896  1.4763 -0.6189  0.1194
 5382TIP3   OH216088   5.899   3.985   6.372 -0.0674 -0.1055  0.1885
 5382TIP3    H116089   5.935   3.956   6.455  3.0934 -0.0266 -0.9898
 5382TIP3    H216090   5.894   4.080   6.379 -3.3045 -0.2436  1.4355
 5383TIP3   OH216091   6.435   3.728   5.209 -1.4917  0.6639  0.8423
 5383TIP3    H116092   6.451   3.637   5.233 -2.0067  0.3219 -0.0456
 5383TIP3    H216093   6.342   3.742   5.227 -1.9737  0.3065 -1.1032
 5384TIP3   OH216094   7.002   2.119   3.139 -0.0572 -0.3219  0.0676
 5384TIP3    H116095   7.016   2.027   3.165  0.4754 -0.5627 -1.0186
 5384TIP3    H216096   7.076   2.166   3.178 -1.4147  0.0558  2.4186
 5385TIP3   OH216097   1.184   1.417   6.495  0.2291 -0.5106  0.0593
 5385TIP3    H116098   1.132   1.354   6.545  0.1449 -1.3493 -1.0295
 5385TIP3    H216099   1.198   1.490   6.555  0.5356 -1.6685  1.4525
 5386TIP3   OH216100   4.619   6.054   0.279 -0.0045 -0.3688 -0.1599
 5386TIP3    H116101   4.672   6.125   0.243 -0.4704 -0.1014 -0.3164
 5386TIP3    H216102   4.576   6.015   0.204 -0.8039  0.0491  0.0701
 5387TIP3   OH216103   6.947   2.699   0.718  0.3523  0.1427  0.0019
 5387TIP3    H116104   6.955   2.610   0.752 -0.3118 -0.2826 -0.8960
 5387TIP3    H216105   7.015   2.749   0.763  0.8251 -0.8495  0.4134
 5388TIP3   OH216106   0.479   2.480   3.238  0.3898  0.0675 -0.3398
 5388TIP3    H116107   0.400   2.506   3.191 -0.5212 -1.8051  0.0350
 5388TIP3    H216108   0.484   2.540   3.312 -0.1659  0.7849 -0.8785
 5389TIP3   OH216109   5.309   4.895   2.611 -0.4449 -0.4646 -0.1586
 5389TIP3    H116110   5.243   4.887   2.681 -0.4149 -1.3737 -0.2220
 5389TIP3    H216111   5.317   4.989   2.597 -0.5072 -0.2626  1.0131
 5390TIP3   OH216112   2.107   2.993   0.847 -0.2489  0.2259  0.0461
 5390TIP3    H116113   2.040   3.040   0.797  0.5384  1.6099  0.2483
 5390TIP3    H216114   2.087   3.013   0.938  0.6774  1.0212  0.0900
 5391TIP3   OH216115   7.390   5.697   2.598  0.0860 -0.2512  1.3056
 5391TIP3    H116116   7.388   5.610   2.639  0.8188 -0.7563  0.3155
 5391TIP3    H216117   7.390   5.679   2.504  1.3751  0.7718  1.0721
 5392TIP3   OH216118   7.097   5.778   3.608  0.4406 -0.0617  0.2283
 5392TIP3    H116119   7.067   5.726   3.682  0.4262 -0.6162 -0.1638
 5392TIP3    H216120   7.029   5.765   3.541  1.7751 -1.7594 -0.8708
 5393TIP3   OH216121   7.122   2.975   1.708  0.5618  0.3842 -0.6717
 5393TIP3    H116122   7.191   2.983   1.642  0.7054  0.0263 -0.5671
 5393TIP3    H216123   7.091   3.064   1.721  1.5221  0.6655 -0.1666
 5394TIP3   OH216124   2.750   3.975   0.492  0.3794  0.1774 -0.3115
 5394TIP3    H116125   2.817   3.927   0.540 -0.7029 -1.9378 -0.8013
 5394TIP3    H216126   2.691   4.007   0.559  2.1352  2.6629  0.1892
 5395TIP3   OH216127   2.154   4.513   4.970  0.3691 -0.4258  0.4896
 5395TIP3    H116128   2.071   4.556   4.948  1.7245  1.5297 -1.2170
 5395TIP3    H216129   2.150   4.428   4.926  0.1630  0.6138 -1.6300
 5396TIP3   OH216130   4.574   1.849   5.471  0.0193  0.0478  0.4544
 5396TIP3    H116131   4.667   1.857   5.491 -0.4288 -0.3027  2.9806
 5396TIP3    H216132   4.568   1.870   5.378  2.3837  1.8783  0.6082
 5397TIP3   OH216133   7.458   7.099   0.646  0.0290  0.1875 -0.2006
 5397TIP3    H116134   7.475   7.035   0.716  0.0992 -0.7544 -1.0494
 5397TIP3    H216135   7.530   7.161   0.653  1.5425 -1.3762 -1.0700
 5398TIP3   OH216136   6.386   5.838   3.893  0.6740 -0.5301  0.2468
 5398TIP3    H116137   6.324   5.887   3.947 -0.6554 -0.7703 -0.9776
 5398TIP3    H216138   6.470   5.880   3.909 -0.3004  1.8511 -0.3467
 5399TIP3   OH216139   4.959   2.425   1.792 -0.0028  0.0996 -0.1259
 5399TIP3    H116140   4.946   2.432   1.697  1.6736 -0.9815 -0.4792
 5399TIP3    H216141   5.037   2.478   1.809 -0.7319  0.9077  0.7964
 5400TIP3   OH216142   2.889   7.008   4.646  0.6911  0.2626  0.0547
 5400TIP3    H116143   2.852   7.034   4.731 -2.1741 -1.3749 -0.5848
 5400TIP3    H216144   2.897   7.090   4.597  3.4399  1.4150  2.1367
 5401TIP3   OH216145   6.012   0.593   3.615 -0.0341  0.4842 -0.0730
 5401TIP3    H116146   6.041   0.543   3.539  1.4885  1.5440 -0.2148
 5401TIP3    H216147   6.045   0.544   3.690  1.7923  1.4135 -0.2217
 5402TIP3   OH216148   6.898   7.527   5.951 -0.2752  0.3487  0.2112
 5402TIP3    H116149   6.889   7.574   6.034  0.7715 -0.1272  0.6165
 5402TIP3    H216150   6.964   7.577   5.903 -0.8181  0.5742 -0.3023
 5403TIP3   OH216151   2.414   6.903   0.027  0.0182 -0.2112  0.2935
 5403TIP3    H116152   2.507   6.922   0.038  0.3511  0.3860 -2.7039
 5403TIP3    H216153   2.409   6.807   0.024  0.5234 -0.2423  0.4532
 5404TIP3   OH216154   6.634   4.481   4.096 -0.3500  0.5463 -0.3824
 5404TIP3    H116155   6.582   4.495   4.176 -1.0549 -0.9747 -0.5445
 5404TIP3    H216156   6.649   4.387   4.093 -0.3853  0.5656 -2.0954
 5405TIP3   OH216157   4.905   5.704   3.408  0.0746 -0.2823  0.2260
 5405TIP3    H116158   4.909   5.690   3.314  2.0291  1.6713 -0.0749
 5405TIP3    H216159   4.843   5.776   3.419  1.5513  1.0761  0.1163
 5406TIP3   OH216160   7.257   7.307   3.204  0.7738  0.3055 -0.2900
 5406TIP3    H116161   7.226   7.324   3.294  0.2557 -0.0549 -0.3937
 5406TIP3    H216162   7.177   7.311   3.151  0.7030 -1.6954 -0.4250
 5407TIP3   OH216163   3.614   0.749   2.919 -0.1968 -0.2426 -0.1118
 5407TIP3    H116164   3.555   0.677   2.940 -0.3683  0.3878  1.7905
 5407TIP3    H216165   3.589   0.776   2.831 -0.8177 -1.8091 -0.4470
 5408TIP3   OH216166   3.680   6.848   1.515  0.0488 -0.3328 -1.1093
 5408TIP3    H116167   3.590   6.865   1.542 -0.3768  0.2360 -2.7444
 5408TIP3    H216168   3.729   6.836   1.596 -1.3857 -0.0542 -0.1874
 5409TIP3   OH216169   5.767   1.842   1.543 -0.0681  0.0532 -0.0594
 5409TIP3    H116170   5.747   1.899   1.617 -1.6624  1.6486 -1.6205
 5409TIP3    H216171   5.732   1.888   1.467  0.8219 -1.8760 -1.7355
 5410TIP3   OH216172   3.044   0.875   4.568  0.1590  0.6694 -0.2830
 5410TIP3    H116173   2.961   0.848   4.609  0.2325 -0.1946 -0.6873
 5410TIP3    H216174   3.081   0.938   4.630 -0.1890  0.1033  0.5348
 5411TIP3   OH216175   4.732   2.179   6.172 -0.2824 -0.2804 -0.0513
 5411TIP3    H116176   4.639   2.182   6.150 -0.6771  1.5340  1.5667
 5411TIP3    H216177   4.776   2.210   6.094 -0.9841 -1.4558 -0.9482
 5412TIP3   OH216178   5.875   2.266   0.039 -0.1828  0.1787  0.5096
 5412TIP3    H116179   5.935   2.316   0.094  0.8161 -1.0792  0.6220
 5412TIP3    H216180   5.868   2.317  -0.041  0.9167  0.4562  0.5652
 5413TIP3   OH216181   3.964   5.190   6.030 -0.1806  0.3573 -0.0762
 5413TIP3    H116182   4.022   5.210   6.103 -0.8313 -2.1152  1.2042
 5413TIP3    H216183   4.023   5.177   5.955  0.6775  0.6986  0.5331
 5414TIP3   OH216184   7.201   0.089   0.967 -0.5590 -0.2732 -0.4226
 5414TIP3    H116185   7.145   0.015   0.988  0.1476 -0.6775  0.0674
 5414TIP3    H216186   7.288   0.052   0.959  0.2286  0.8091  2.1755
 5415TIP3   OH216187   4.756   1.094   0.393  0.6212  0.0036  0.2223
 5415TIP3    H116188   4.719   1.151   0.325  1.1521 -0.2586 -0.3016
 5415TIP3    H216189   4.685   1.080   0.454  0.0252 -0.0230 -0.4619
 5416TIP3   OH216190   1.049   0.337   0.063  0.4124 -0.0872 -0.0925
 5416TIP3    H116191   0.955   0.323   0.056  0.4074  0.2260 -0.6916
 5416TIP3    H216192   1.068   0.325   0.156 -0.1627 -0.4804 -0.0184
 5417TIP3   OH216193   4.633   4.714   6.301 -0.5733 -0.1534  0.2170
 5417TIP3    H116194   4.671   4.799   6.279 -0.2702 -0.3250  0.0797
 5417TIP3    H216195   4.691   4.678   6.368 -0.3374 -0.5332 -0.1911
 5418TIP3   OH216196   7.351   4.428   2.860 -0.4317  0.2212  0.3159
 5418TIP3    H116197   7.304   4.345   2.859 -2.0542  1.0855  0.9852
 5418TIP3    H216198   7.403   4.428   2.780  0.1448 -1.7255  0.6485
 5419TIP3   OH216199   6.066   1.319   2.465  0.3732  0.1048  0.1157
 5419TIP3    H116200   6.018   1.249   2.509 -0.1189 -1.6297 -2.8983
 5419TIP3    H216201   6.006   1.394   2.469 -1.5233 -1.2362 -1.2087
 5420TIP3   OH216202   5.380   3.137   3.014 -0.1207 -0.5769  0.6359
 5420TIP3    H116203   5.431   3.185   3.079  1.7319 -1.1048 -0.3616
 5420TIP3    H216204   5.443   3.114   2.946 -1.7875 -0.9233 -0.8683
 5421TIP3   OH216205   1.301   4.393   1.775 -0.5435  0.4841  0.0087
 5421TIP3    H116206   1.372   4.452   1.751 -0.4111  1.4015  2.3859
 5421TIP3    H216207   1.223   4.432   1.735 -0.4824  2.4150  1.6451
 5422TIP3   OH216208   4.981   2.507   1.471  0.3157 -0.0921  0.5319
 5422TIP3    H116209   4.915   2.445   1.441  1.1536 -1.7972  2.0528
 5422TIP3    H216210   4.931   2.586   1.493 -0.7310 -0.0382 -1.7755
 5423TIP3   OH216211   7.076   3.562   5.472 -0.1446  0.1795  0.0896
 5423TIP3    H116212   7.072   3.514   5.389  0.5485  1.2427 -0.5891
 5423TIP3    H216213   7.109   3.498   5.535  1.1226 -0.1647 -0.8685
 5424TIP3   OH216214   5.015   3.189   5.369 -0.5859 -0.8925  0.8464
 5424TIP3    H116215   4.926   3.157   5.354 -0.6647 -0.4134  0.2289
 5424TIP3    H216216   5.064   3.157   5.293 -1.0543  1.8446 -0.7371
 5425TIP3   OH216217   5.480   7.266   1.814  0.6530  0.5353  0.6497
 5425TIP3    H116218   5.469   7.242   1.722  1.9427  1.6684  0.1614
 5425TIP3    H216219   5.434   7.198   1.862 -0.5544  0.2300 -0.8452
 5426TIP3   OH216220   3.628   5.640   4.747  0.3957  0.1068  0.2564
 5426TIP3    H116221   3.707   5.595   4.778  1.0541  0.7107 -0.5038
 5426TIP3    H216222   3.560   5.572   4.748 -0.0373  0.3204  4.2407
 5427TIP3   OH216223   6.799   1.772   6.750 -0.8316 -0.2271 -0.7069
 5427TIP3    H116224   6.865   1.754   6.817 -0.8858  0.6030 -0.4151
 5427TIP3    H216225   6.738   1.698   6.757 -0.8542 -0.1427  0.1827
 5428TIP3   OH216226   3.900   7.494   4.300 -0.7091  0.0065  0.0385
 5428TIP3    H116227   3.843   7.456   4.368  2.0132 -0.2158  2.4082
 5428TIP3    H216228   3.855   7.574   4.273 -2.9627 -1.0430  0.4557
 5429TIP3   OH216229   5.001   0.075   5.831  0.2382 -0.0795 -0.0205
 5429TIP3    H116230   5.084   0.058   5.787  0.6265  1.3711  0.1106
 5429TIP3    H216231   4.950   0.125   5.768  0.2668  0.8214  0.6545
 5430TIP3   OH216232   5.698   4.523   4.775 -0.6685 -0.2204  0.3656
 5430TIP3    H116233   5.614   4.522   4.821 -0.2076 -0.4478  1.2302
 5430TIP3    H216234   5.760   4.485   4.837 -0.1380 -1.1430 -0.6988
 5431TIP3   OH216235   4.426   2.188   6.140  0.0178  0.3929  0.4516
 5431TIP3    H116236   4.423   2.209   6.047  2.9569  3.7993  0.8936
 5431TIP3    H216237   4.371   2.255   6.182 -0.6115 -0.5865  1.2167
 5432TIP3   OH216238   4.445   0.476   5.990  0.5849 -0.0141 -0.2274
 5432TIP3    H116239   4.368   0.523   6.022  0.0705 -0.4818 -0.7751
 5432TIP3    H216240   4.441   0.390   6.033  1.9554  0.6709  1.4026
 5433TIP3   OH216241   1.670   5.778   6.427 -0.2931 -0.2500  0.1664
 5433TIP3    H116242   1.627   5.863   6.417  2.0063  0.7054 -2.7517
 5433TIP3    H216243   1.734   5.792   6.497  1.3319  1.1115 -1.4744
 5434TIP3   OH216244   5.729   4.441   4.506 -0.4664 -0.2202  0.3922
 5434TIP3    H116245   5.769   4.509   4.452 -0.6973 -0.7349 -0.4362
 5434TIP3    H216246   5.730   4.478   4.595  1.0435  0.1370  0.2578
 5435TIP3   OH216247   6.785   1.302   4.637 -0.1909  0.1733 -0.5627
 5435TIP3    H116248   6.796   1.396   4.649 -0.5667  0.0726  0.7181
 5435TIP3    H216249   6.691   1.290   4.625 -0.1732 -0.0647 -0.4634
 5436TIP3   OH216250   6.168   1.084   4.650 -0.0410 -0.5165 -0.3579
 5436TIP3    H116251   6.204   1.018   4.591 -1.8309 -1.4847 -0.4366
 5436TIP3    H216252   6.110   1.136   4.594  1.5161  1.3317 -0.3530
 5437TIP3   OH216253   6.373   7.374   4.312 -0.4767  0.1430 -0.2541
 5437TIP3    H116254   6.345   7.310   4.247 -0.4936 -1.1201  0.9777
 5437TIP3    H216255   6.389   7.324   4.391  0.1655  1.5699  0.5616
 5438TIP3   OH216256   6.268   7.562   4.729 -0.3077 -0.2338  0.0232
 5438TIP3    H116257   6.331   7.517   4.785  0.3970  0.5244 -0.1364
 5438TIP3    H216258   6.200   7.497   4.712  0.3312 -1.0073  0.3578
 5439TIP3   OH216259   0.583   6.425   4.777  0.0638  0.0725  0.2790
 5439TIP3    H116260   0.626   6.360   4.833  1.0593  0.7077  0.2729
 5439TIP3    H216261   0.514   6.463   4.832 -0.3303 -0.7685  0.3768
 5440TIP3   OH216262   6.826   4.553   4.552  0.0706 -0.3249 -0.3761
 5440TIP3    H116263   6.746   4.602   4.570  0.7300  0.6654 -0.0338
 5440TIP3    H216264   6.840   4.563   4.458  0.2057  0.1527 -0.3055
 5441TIP3   OH216265   2.008   5.116   2.593 -0.1698  0.6789  0.0959
 5441TIP3    H116266   1.934   5.177   2.591 -0.7907  0.0773  2.3422
 5441TIP3    H216267   2.078   5.164   2.638 -0.7443 -0.2901  2.1021
 5442TIP3   OH216268   0.361   4.102   5.963 -0.1412  0.7401 -0.0656
 5442TIP3    H116269   0.280   4.057   5.988 -0.4577  2.1379  1.5820
 5442TIP3    H216270   0.332   4.187   5.931  0.6478  1.0882  0.1209
 5443TIP3   OH216271   2.780   2.330   6.075  0.0820  0.4198  0.1395
 5443TIP3    H116272   2.784   2.420   6.045  2.0432 -0.3387 -2.1737
 5443TIP3    H216273   2.848   2.324   6.143  0.7683  0.4203 -0.5422
 5444TIP3   OH216274   3.787   5.225   5.082 -0.4200 -0.1030 -0.4616
 5444TIP3    H116275   3.740   5.167   5.022  2.1572 -1.7605 -1.0558
 5444TIP3    H216276   3.743   5.214   5.166 -1.9634 -0.4233 -1.2762
 5445TIP3   OH216277   3.211   6.845   4.297  0.2430 -0.2114  0.2710
 5445TIP3    H116278   3.157   6.784   4.347  2.7143 -2.0628  0.8785
 5445TIP3    H216279   3.217   6.923   4.353 -0.5876 -0.5349  0.8294
 5446TIP3   OH216280   5.873   1.918   4.590  0.1412  0.3851  0.1081
 5446TIP3    H116281   5.822   1.846   4.626 -0.3000 -0.5692 -2.1969
 5446TIP3    H216282   5.812   1.992   4.587 -0.1172  0.1851  0.3912
 5447TIP3   OH216283   2.281   3.077   2.569  0.2433  0.4527  0.0082
 5447TIP3    H116284   2.322   3.006   2.520 -0.6563  0.0504 -0.1870
 5447TIP3    H216285   2.224   3.032   2.632  0.7446  0.9805  0.8649
 5448TIP3   OH216286   2.908   7.088   4.181  0.0061  0.3158 -0.2718
 5448TIP3    H116287   2.837   7.062   4.240 -0.5581 -1.0928 -1.4950
 5448TIP3    H216288   2.865   7.136   4.111 -0.0749 -1.8892 -1.8555
 5449TIP3   OH216289   4.804   0.158   0.993 -0.0933 -0.1093  0.2415
 5449TIP3    H116290   4.751   0.235   0.973 -0.7374 -0.4706  0.5178
 5449TIP3    H216291   4.831   0.171   1.084 -0.3877 -0.3050  0.3612
 5450TIP3   OH216292   3.037   7.162   4.912  0.1802  0.2021 -0.3414
 5450TIP3    H116293   3.019   7.204   4.996 -0.1288  0.6852 -0.6411
 5450TIP3    H216294   3.006   7.225   4.847 -0.9414 -0.7745 -0.7965
 5451TIP3   OH216295   1.841   5.460   1.756  0.0925  0.0829  0.0765
 5451TIP3    H116296   1.893   5.501   1.825  0.7811 -0.0314 -0.3674
 5451TIP3    H216297   1.822   5.532   1.696 -1.0078  0.3078  0.6710
 5452TIP3   OH216298   1.545   0.171   1.302 -0.5009  0.2451 -0.0890
 5452TIP3    H116299   1.588   0.145   1.221 -0.7766 -0.9220  0.1092
 5452TIP3    H216300   1.523   0.263   1.290  0.4309  0.3757 -0.9020
 5453TIP3   OH216301   1.962   7.416   2.287  0.5849 -0.1562 -0.2441
 5453TIP3    H116302   2.020   7.340   2.279  0.1801 -0.6529  1.3306
 5453TIP3    H216303   2.015   7.482   2.332  0.0697 -0.4658  0.8242
 5454TIP3   OH216304   6.298   0.933   1.019  0.0871  0.5555  0.0610
 5454TIP3    H116305   6.230   0.999   1.023 -0.4486  0.0668 -0.6553
 5454TIP3    H216306   6.289   0.884   1.101  0.1316  1.0180  0.3462
 5455TIP3   OH216307   5.088   2.571   2.393 -0.6004  0.7614  0.9455
 5455TIP3    H116308   5.020   2.631   2.363 -0.0745  0.1310 -1.7560
 5455TIP3    H216309   5.157   2.627   2.428 -0.9035  1.6394  0.1708
 5456TIP3   OH216310   3.586   0.321   2.339 -0.3454 -0.1362  0.3447
 5456TIP3    H116311   3.535   0.290   2.264 -0.9722 -0.6922  0.9843
 5456TIP3    H216312   3.601   0.414   2.321 -0.4010 -0.2852 -0.5142
 5457TIP3   OH216313   7.116   1.954   5.258 -0.0710  0.1946  0.1894
 5457TIP3    H116314   7.046   1.910   5.307 -0.2508 -0.1733 -0.3778
 5457TIP3    H216315   7.171   1.882   5.226 -0.2522  0.3862 -0.5751
 5458TIP3   OH216316   7.292   3.657   4.271  0.0315 -0.2173  0.1363
 5458TIP3    H116317   7.200   3.629   4.273  0.1581 -0.7920 -1.0148
 5458TIP3    H216318   7.288   3.749   4.247 -0.2825  0.1203  1.3953
 5459TIP3   OH216319   7.358   2.523   4.821 -0.1090  0.1345  0.8286
 5459TIP3    H116320   7.441   2.561   4.847  0.6079  0.7389 -1.9921
 5459TIP3    H216321   7.370   2.429   4.833  1.4767  0.1021 -0.5908
 5460TIP3   OH216322   1.765   1.259   5.460  0.2164  0.1952  0.2745
 5460TIP3    H116323   1.793   1.194   5.396 -0.8749 -1.2001  1.1630
 5460TIP3    H216324   1.830   1.253   5.531 -0.6928 -1.0466  1.0459
 5461TIP3   OH216325   1.048   1.207   4.319 -0.3128  0.2793 -0.2138
 5461TIP3    H116326   1.140   1.178   4.318 -0.1775  0.4148  2.3417
 5461TIP3    H216327   1.016   1.186   4.231  1.9023 -0.5742 -0.9041
 5462TIP3   OH216328   0.717   5.226   2.517 -0.3111  0.8723 -0.2691
 5462TIP3    H116329   0.684   5.307   2.556  0.2962  1.0993 -0.2075
 5462TIP3    H216330   0.756   5.253   2.434 -2.0926  0.3055 -1.3324
 5463TIP3   OH216331   5.583   0.780   5.280 -0.5476 -0.0762 -0.5686
 5463TIP3    H116332   5.649   0.848   5.270  0.2681 -0.6052  0.9161
 5463TIP3    H216333   5.613   0.727   5.354 -1.3326 -1.8494 -1.4414
 5464TIP3   OH216334   6.290   3.326   4.380 -0.0114  0.7268  0.3384
 5464TIP3    H116335   6.333   3.327   4.294  1.5225  1.7345  1.0523
 5464TIP3    H216336   6.354   3.283   4.437 -1.4274 -0.8260  0.8179
 5465TIP3   OH216337   7.226   0.403   1.550 -0.0518 -0.1873  0.2045
 5465TIP3    H116338   7.313   0.363   1.550  0.3689  0.6346  2.2104
 5465TIP3    H216339   7.166   0.329   1.557  0.5885 -0.6463  0.9671
 5466TIP3   OH216340   6.872   5.422   4.950  0.1056 -0.1249 -0.1786
 5466TIP3    H116341   6.801   5.454   5.005 -2.1015  0.7540 -3.3108
 5466TIP3    H216342   6.919   5.360   5.007 -2.9401 -0.5400  2.1648
 5467TIP3   OH216343   7.438   2.516   3.872 -0.2981  0.6892  0.3619
 5467TIP3    H116344   7.506   2.559   3.821 -1.1577  1.3751 -0.2254
 5467TIP3    H216345   7.423   2.576   3.946  0.0988  0.2802  0.7813
 5468TIP3   OH216346   3.257   1.700   3.201 -0.3793 -0.4568 -0.0609
 5468TIP3    H116347   3.163   1.685   3.209 -0.6573 -0.0970 -2.0339
 5468TIP3    H216348   3.271   1.790   3.230 -0.8974 -0.0115 -1.1575
 5469TIP3   OH216349   8.142   6.316   0.327 -0.4997  0.2023  0.4775
 5469TIP3    H116350   8.075   6.252   0.302  2.4235 -2.9564 -0.0598
 5469TIP3    H216351   8.164   6.293   0.418  1.1183 -0.1150  0.0324
 5470TIP3   OH216352   7.576   3.684   4.299 -0.1229 -0.1705  0.0582
 5470TIP3    H116353   7.491   3.674   4.255 -0.6716  0.2938  0.9834
 5470TIP3    H216354   7.585   3.779   4.310 -0.0268 -0.2832  0.9986
 5471TIP3   OH216355   2.715   4.232   0.386  0.2308  0.6579  0.1470
 5471TIP3    H116356   2.733   4.146   0.423 -1.9764 -0.2942 -0.8370
 5471TIP3    H216357   2.761   4.231   0.301 -0.5695  0.0293 -0.2999
 5472TIP3   OH216358   4.196   3.747   6.736  0.0250 -0.1729  0.2694
 5472TIP3    H116359   4.217   3.795   6.816  2.2181 -0.5549 -0.0109
 5472TIP3    H216360   4.259   3.780   6.671 -0.9291 -0.7188 -0.9785
 5473TIP3   OH216361   6.347   2.009   5.703 -0.3242  0.1204  0.0809
 5473TIP3    H116362   6.431   1.966   5.715 -0.2958 -0.3734 -1.5516
 5473TIP3    H216363   6.308   2.012   5.790  1.4732  0.5875  0.9186
 5474TIP3   OH216364   8.088   7.463   2.014  0.0608  0.4548 -0.3704
 5474TIP3    H116365   8.132   7.411   1.946 -4.2779 -1.2685 -2.2673
 5474TIP3    H216366   8.093   7.553   1.981  0.8649  0.1067 -1.2652
 5475TIP3   OH216367   6.615   2.294   2.148 -0.2192  0.0992  0.3737
 5475TIP3    H116368   6.606   2.211   2.101  0.9153 -0.5254  1.2076
 5475TIP3    H216369   6.618   2.361   2.079  1.1998 -0.7708 -0.4451
 5476TIP3   OH216370   2.038   0.319   3.171 -0.7344  0.0193 -0.0678
 5476TIP3    H116371   2.049   0.277   3.086  0.2383 -0.0073  0.0539
 5476TIP3    H216372   2.071   0.408   3.158 -0.6359  0.0321  0.2649
 5477TIP3   OH216373   0.219   1.107   0.905  0.5640 -0.3948 -0.0834
 5477TIP3    H116374   0.254   1.187   0.867  1.1466 -0.5176  0.1916
 5477TIP3    H216375   0.126   1.108   0.880  0.5999  0.2779 -0.2169
 5478TIP3   OH216376   7.055   7.011   6.260 -0.1145  0.5047 -0.6392
 5478TIP3    H116377   7.050   7.050   6.172 -0.3248 -1.5899 -1.6364
 5478TIP3    H216378   7.134   7.048   6.298  0.0392  1.3946 -1.7650
 5479TIP3   OH216379   1.418   1.583   2.892  0.3260 -0.5193  0.6347
 5479TIP3    H116380   1.437   1.522   2.964  0.1363 -0.5140  0.6900
 5479TIP3    H216381   1.323   1.595   2.896  0.3622 -0.2231  0.6207
 5480TIP3   OH216382   4.972   5.202   2.782  0.7571 -0.3541  0.2980
 5480TIP3    H116383   4.914   5.132   2.814  0.1630  0.1573  0.3473
 5480TIP3    H216384   4.923   5.282   2.797  1.4788  0.0885  0.3226
 5481TIP3   OH216385   0.703   2.610   3.973 -0.2019  0.4893  0.1038
 5481TIP3    H116386   0.794   2.622   3.998 -0.4431 -2.4503  3.0034
 5481TIP3    H216387   0.654   2.666   4.032 -0.4369 -2.3707  2.9240
 5482TIP3   OH216388   1.268   1.168   3.380 -0.2847 -0.1110 -0.2393
 5482TIP3    H116389   1.352   1.198   3.413 -0.6318 -0.3622  0.9000
 5482TIP3    H216390   1.281   1.075   3.361 -0.2297 -0.0818 -0.3483
 5483TIP3   OH216391   0.553   0.758   2.718 -0.2893 -0.8471 -0.4517
 5483TIP3    H116392   0.472   0.709   2.704 -1.5248  0.5823  1.2262
 5483TIP3    H216393   0.587   0.774   2.630 -3.6496  1.3407 -1.5465
 5484TIP3   OH216394   7.788   5.248   0.929 -0.4032 -0.0850  0.0178
 5484TIP3    H116395   7.807   5.155   0.929  2.8310  0.4717 -0.1381
 5484TIP3    H216396   7.839   5.284   0.856 -1.6862  1.8131 -0.0402
 5485TIP3   OH216397   5.561   5.569   4.270 -0.0527 -0.0364  0.0013
 5485TIP3    H116398   5.598   5.610   4.191  0.9211 -0.1353  0.3839
 5485TIP3    H216399   5.469   5.556   4.249 -0.0491  0.9264 -0.7185
 5486TIP3   OH216400   4.017   7.479   0.969 -0.4986  0.7265  0.3179
 5486TIP3    H116401   4.095   7.440   0.930 -1.2729 -1.1330  0.5108
 5486TIP3    H216402   3.971   7.521   0.896 -0.0673  0.5069 -0.0830
 5487TIP3   OH216403   6.844   5.424   1.299  0.2801 -0.3967  0.2557
 5487TIP3    H116404   6.905   5.497   1.308  0.6794 -0.5957 -0.6942
 5487TIP3    H216405   6.841   5.385   1.386  0.7887  0.1767  0.5436
 5488TIP3   OH216406   7.311   3.334   4.098 -0.1715 -0.2429  0.4208
 5488TIP3    H116407   7.292   3.244   4.072 -0.0800 -0.5799  1.4800
 5488TIP3    H216408   7.232   3.383   4.075 -0.1619 -0.5461 -0.3110
 5489TIP3   OH216409   5.724   5.528   0.482 -0.0972 -0.0428 -0.5114
 5489TIP3    H116410   5.809   5.489   0.504  0.5367  1.2769 -0.5157
 5489TIP3    H216411   5.737   5.564   0.394 -0.0516  1.7973  0.2128
 5490TIP3   OH216412   6.804   1.606   4.047  0.0027 -0.1804  0.2181
 5490TIP3    H116413   6.772   1.525   4.007 -2.3968  1.7839 -2.1654
 5490TIP3    H216414   6.785   1.595   4.140 -2.0527 -1.6113 -0.3000
 5491TIP3   OH216415   4.187   6.585   4.215 -0.2030  0.5253  0.0470
 5491TIP3    H116416   4.118   6.591   4.280 -0.8206 -1.1110 -0.3949
 5491TIP3    H216417   4.148   6.622   4.135 -0.6583 -0.5515 -0.2467
 5492TIP3   OH216418   1.794   3.294   6.559  0.2364 -0.6397 -0.3848
 5492TIP3    H116419   1.742   3.216   6.580  0.3720 -0.4210  0.8554
 5492TIP3    H216420   1.854   3.265   6.491  0.4285 -1.6930  0.2091
 5493TIP3   OH216421   5.882   2.476   0.647 -0.0236  0.3154 -0.3243
 5493TIP3    H116422   5.866   2.392   0.690  0.1300 -0.0363 -0.9454
 5493TIP3    H216423   5.795   2.515   0.638 -0.0552  0.3938  0.3052
 5494TIP3   OH216424   4.188   6.281   2.438  0.3643  0.1256 -0.3743
 5494TIP3    H116425   4.153   6.277   2.526 -1.2083 -2.2238 -1.0152
 5494TIP3    H216426   4.212   6.372   2.425 -0.5823  0.7667  2.0047
 5495TIP3   OH216427   1.966   5.438   3.441  0.0555 -0.0602  0.3467
 5495TIP3    H116428   1.990   5.482   3.360 -0.0622  0.1261  0.4121
 5495TIP3    H216429   1.903   5.497   3.483  2.8538  1.7038  2.4150
 5496TIP3   OH216430   3.782   7.640   1.089 -0.5299  0.5591  0.0233
 5496TIP3    H116431   3.782   7.734   1.110 -1.0446  0.7494 -0.7603
 5496TIP3    H216432   3.872   7.620   1.066 -0.5023  0.9854 -0.2594
 5497TIP3   OH216433   7.768   2.345   1.344 -1.1371  0.1099 -0.2048
 5497TIP3    H116434   7.824   2.403   1.395 -1.9681 -0.5966  1.5815
 5497TIP3    H216435   7.805   2.348   1.256  0.9406  0.6483  0.6181
 5498TIP3   OH216436   1.933   2.339   1.084  0.1610 -0.2975  0.6539
 5498TIP3    H116437   1.843   2.364   1.064  0.4227  0.3922  0.3177
 5498TIP3    H216438   1.937   2.340   1.180 -0.0566  0.1567  0.6592
 5499TIP3   OH216439   6.819   6.135   2.496 -0.2474 -0.0250 -0.0252
 5499TIP3    H116440   6.766   6.166   2.423 -0.9202  1.8652  1.1891
 5499TIP3    H216441   6.895   6.094   2.455  0.5884  3.0215 -1.8866
 5500TIP3   OH216442   2.112   6.154   3.468  0.3351  0.4154 -0.3974
 5500TIP3    H116443   2.129   6.129   3.377 -1.1581 -0.1211 -0.5590
 5500TIP3    H216444   2.199   6.171   3.505  0.9197  1.5156 -2.1575
 5501TIP3   OH216445   0.347   0.519   6.753 -0.0910  0.1624  0.4057
 5501TIP3    H116446   0.281   0.577   6.715 -1.0158 -0.7218  0.6316
 5501TIP3    H216447   0.410   0.579   6.793 -1.3681  1.0164  1.2172
 5502TIP3   OH216448   5.387   1.851   2.071 -0.1036 -0.0017 -0.0898
 5502TIP3    H116449   5.373   1.787   2.140  0.4056 -0.0693 -0.0470
 5502TIP3    H216450   5.323   1.920   2.088 -1.3583 -0.9628 -0.7178
 5503TIP3   OH216451   6.781   0.665   5.457  0.0188  0.0664 -0.2601
 5503TIP3    H116452   6.701   0.692   5.502 -1.1219 -0.0754 -2.0917
 5503TIP3    H216453   6.846   0.658   5.526 -1.5709  0.0736  1.3162
 5504TIP3   OH216454   2.695   0.735   2.423 -0.8417 -0.0929 -0.3727
 5504TIP3    H116455   2.674   0.811   2.477 -1.3737  0.1018 -0.8297
 5504TIP3    H216456   2.657   0.756   2.337  2.4824  0.9231 -1.7552
 5505TIP3   OH216457   0.731   7.113   1.439  0.0758 -0.0098 -0.1535
 5505TIP3    H116458   0.661   7.152   1.387 -1.0951 -1.2000  0.4816
 5505TIP3    H216459   0.785   7.066   1.375  0.9259  1.7254 -0.7841
 5506TIP3   OH216460   5.044   2.674   2.838 -0.4586 -0.4146  0.2850
 5506TIP3    H116461   5.128   2.674   2.791 -0.7686 -0.6479 -0.2767
 5506TIP3    H216462   5.033   2.764   2.868 -0.4646 -0.1550 -0.4778
 5507TIP3   OH216463   6.788   4.887   6.091 -0.2280 -0.3866 -0.1921
 5507TIP3    H116464   6.721   4.952   6.071 -0.3692 -0.3334  0.4287
 5507TIP3    H216465   6.781   4.874   6.186 -0.8076 -1.9564 -0.4117
 5508TIP3   OH216466   2.549   3.353   1.285 -0.0947 -0.5125 -0.0131
 5508TIP3    H116467   2.514   3.384   1.202 -0.0473 -1.5163 -0.4182
 5508TIP3    H216468   2.483   3.292   1.318  0.2789 -0.7750  0.2686
 5509TIP3   OH216469   2.343   6.223   3.644 -0.3985 -0.2041 -0.0947
 5509TIP3    H116470   2.400   6.154   3.679  0.1463  1.2877  2.2076
 5509TIP3    H216471   2.402   6.279   3.594 -0.8093 -1.2558 -1.8186
 5510TIP3   OH216472   0.418   7.679   1.570  0.3108  0.3649 -0.2906
 5510TIP3    H116473   0.389   7.712   1.485 -0.7832  0.0390 -0.0603
 5510TIP3    H216474   0.356   7.716   1.633  0.5735 -0.1166  0.2664
 5511TIP3   OH216475   6.722   5.115   4.572 -0.1390  0.6814 -0.7570
 5511TIP3    H116476   6.725   5.194   4.626  0.7997 -0.1198  0.4203
 5511TIP3    H216477   6.719   5.043   4.635  0.6260 -0.2721 -1.7721
 5512TIP3   OH216478   5.994   3.388   3.523  0.3880 -0.0810  0.3990
 5512TIP3    H116479   5.903   3.374   3.548  0.3382 -0.2559  0.1254
 5512TIP3    H216480   5.998   3.479   3.494  0.0087 -0.4348 -0.8251
 5513TIP3   OH216481   0.692   6.771   0.527  0.2719 -0.6784 -0.2804
 5513TIP3    H116482   0.787   6.775   0.535  0.0926  2.0717  2.2683
 5513TIP3    H216483   0.661   6.750   0.615 -1.4916  1.8595 -0.1939
 5514TIP3   OH216484   5.944   0.845   6.522 -0.0600  0.1655 -0.1109
 5514TIP3    H116485   5.976   0.863   6.610 -0.0179  4.0891 -0.7338
 5514TIP3    H216486   6.021   0.854   6.466 -0.5330  0.2360 -0.7657
 5515TIP3   OH216487   5.277   3.207   2.547  0.3052 -0.5886  0.7216
 5515TIP3    H116488   5.290   3.171   2.634 -0.1337  0.3230  1.1760
 5515TIP3    H216489   5.228   3.289   2.561 -0.7744 -0.9881 -0.4552
 5516TIP3   OH216490   6.611   1.578   2.811  0.6332 -0.2373 -0.1940
 5516TIP3    H116491   6.557   1.652   2.839 -0.4729 -1.3509  0.7721
 5516TIP3    H216492   6.654   1.608   2.731 -0.3573  1.1840 -0.2298
 5517TIP3   OH216493   5.564   1.042   5.082  0.4365 -0.0811  0.0948
 5517TIP3    H116494   5.498   1.029   5.151 -0.3921 -1.7010 -0.9383
 5517TIP3    H216495   5.647   1.051   5.129 -0.3055  0.4523  1.3605
 5518TIP3   OH216496   6.911   4.652   1.918  0.0520  0.2435 -0.4135
 5518TIP3    H116497   6.993   4.602   1.916 -0.9162 -1.4057 -0.0053
 5518TIP3    H216498   6.940   4.743   1.922  1.9104 -0.3391  2.1454
 5519TIP3   OH216499   1.101   1.538   5.400 -0.2085  0.2721 -0.6576
 5519TIP3    H116500   1.158   1.474   5.356  0.0892 -1.1603  1.6489
 5519TIP3    H216501   1.161   1.592   5.451 -0.6522  1.0858 -0.9813
 5520TIP3   OH216502   1.730   0.914   1.338  0.3472  0.1504  0.2435
 5520TIP3    H116503   1.738   0.935   1.431 -0.4577  1.5265  0.0240
 5520TIP3    H216504   1.638   0.929   1.318  0.5351 -0.0248 -0.8036
 5521TIP3   OH216505   2.144   1.898   4.366 -0.2885  0.4235  0.7362
 5521TIP3    H116506   2.208   1.838   4.405  2.7465  2.9607  0.1270
 5521TIP3    H216507   2.117   1.954   4.438  0.8104  1.4247  0.4051
 5522TIP3   OH216508   3.947   4.829   2.124 -0.0625 -0.1767 -0.2041
 5522TIP3    H116509   3.981   4.906   2.170  0.9015  0.2225 -1.5214
 5522TIP3    H216510   4.020   4.799   2.070 -0.5631 -1.7758 -0.0437
 5523TIP3   OH216511   0.921   2.319   2.532 -0.1871  0.4274 -0.3925
 5523TIP3    H116512   0.866   2.307   2.610 -2.1561 -0.0798 -1.7670
 5523TIP3    H216513   0.985   2.385   2.558  0.2326 -0.8477  2.1306
 5524TIP3   OH216514   4.709   6.192   6.207 -0.2492 -0.0315 -0.1403
 5524TIP3    H116515   4.682   6.150   6.125  0.1449 -0.0697 -0.2525
 5524TIP3    H216516   4.628   6.228   6.243 -0.6501 -1.1708  0.1264
 5525TIP3   OH216517   4.527   7.437   4.297 -0.5029  0.0727  0.4988
 5525TIP3    H116518   4.501   7.347   4.316 -0.6014  0.2132  1.0567
 5525TIP3    H216519   4.583   7.430   4.220  0.9404 -0.6933  1.5617
 5526TIP3   OH216520   4.906   0.178   0.254 -0.4332 -0.2610 -0.5872
 5526TIP3    H116521   4.904   0.146   0.164 -1.5759 -2.0530  0.0102
 5526TIP3    H216522   4.999   0.176   0.278 -0.2700 -1.3267 -1.2221
 5527TIP3   OH216523   5.508   3.973   2.036  0.4709  0.0431 -0.4944
 5527TIP3    H116524   5.488   4.067   2.034  0.6395  0.0825 -0.3607
 5527TIP3    H216525   5.598   3.968   2.005  0.2963 -0.1230 -0.9884
 5528TIP3   OH216526   6.729   0.309   6.310 -0.8248  0.7694 -0.5989
 5528TIP3    H116527   6.705   0.316   6.402 -1.5767  0.3660 -0.7582
 5528TIP3    H216528   6.672   0.241   6.275  0.3007  0.0366 -1.0804
 5529TIP3   OH216529   3.344   6.342   6.311  0.1866 -0.3780 -0.0717
 5529TIP3    H116530   3.263   6.300   6.281 -0.2202 -0.9006  1.6071
 5529TIP3    H216531   3.382   6.278   6.372  0.3870  1.0095  1.3073
 5530TIP3   OH216532   1.846   3.047   4.930 -0.7599 -0.3472  0.4414
 5530TIP3    H116533   1.758   3.017   4.904 -0.8387 -1.9851  2.3385
 5530TIP3    H216534   1.873   2.984   4.997  2.0230 -0.0627 -0.3182
 5531TIP3   OH216535   1.725   7.230   4.748  0.0189 -0.2781 -0.1511
 5531TIP3    H116536   1.645   7.241   4.698 -0.4309  0.5931  0.7293
 5531TIP3    H216537   1.719   7.294   4.818  2.7187  1.7443 -1.5758
 5532TIP3   OH216538   6.561   0.337   2.525 -0.2247 -0.1572 -0.3902
 5532TIP3    H116539   6.473   0.375   2.532 -1.2219 -2.4495  0.5739
 5532TIP3    H216540   6.595   0.372   2.442 -1.3876  1.9840 -0.0509
 5533TIP3   OH216541   6.854   6.581   0.756 -0.0572  0.0941 -0.4243
 5533TIP3    H116542   6.772   6.629   0.761  0.5201  0.9994  1.6796
 5533TIP3    H216543   6.903   6.610   0.833  0.5571 -3.4642  0.7084
 5534TIP3   OH216544   7.335   1.301   6.341 -0.0307  0.0548 -0.2814
 5534TIP3    H116545   7.259   1.245   6.324 -1.1310  0.9053  1.5013
 5534TIP3    H216546   7.397   1.244   6.386 -0.2283 -0.2720 -0.4190
 5535TIP3   OH216547   3.308   7.237   5.178 -0.0870 -0.4901  0.1004
 5535TIP3    H116548   3.250   7.307   5.210  0.5004 -0.6525  1.6488
 5535TIP3    H216549   3.316   7.253   5.084 -0.7432  0.9464  0.2612
 5536TIP3   OH216550   7.009   4.039   0.339  0.4203  0.3993  0.2186
 5536TIP3    H116551   7.081   3.992   0.381  0.8329  1.2030  0.4318
 5536TIP3    H216552   7.014   4.128   0.375  0.2123  0.8545 -0.8436
 5537TIP3   OH216553   5.758   7.782   5.107 -0.1107  0.1648 -0.0507
 5537TIP3    H116554   5.704   7.706   5.127  1.4799 -1.4385 -1.4158
 5537TIP3    H216555   5.802   7.803   5.189  0.4463 -1.2833  0.0469
 5538TIP3   OH216556   4.146   3.432   3.583  0.0095  0.1828 -0.5550
 5538TIP3    H116557   4.111   3.498   3.522 -0.6767 -0.4085 -0.8114
 5538TIP3    H216558   4.225   3.400   3.540 -0.0720  0.2896 -0.7869
 5539TIP3   OH216559   6.034   7.505   4.468 -0.0155 -0.0823 -0.0865
 5539TIP3    H116560   5.963   7.505   4.404 -2.0203 -1.6519  1.9654
 5539TIP3    H216561   6.037   7.595   4.501 -1.8640 -0.2122  0.5592
 5540TIP3   OH216562   5.333   3.232   5.395  0.6072  0.0104  0.5113
 5540TIP3    H116563   5.256   3.265   5.350  0.7223  0.5604  0.7022
 5540TIP3    H216564   5.299   3.171   5.460  0.4316 -0.6925 -0.2204
 5541TIP3   OH216565   7.784   4.881   3.813  0.3399  0.0247 -0.3113
 5541TIP3    H116566   7.721   4.864   3.742 -0.1016 -0.6303  0.2180
 5541TIP3    H216567   7.734   4.931   3.878 -0.2061 -1.9997  0.9142
 5542TIP3   OH216568   3.473   1.461   3.565  0.2728 -0.4159 -0.1425
 5542TIP3    H116569   3.542   1.454   3.630  0.1764  1.7359  0.2721
 5542TIP3    H216570   3.409   1.520   3.604 -1.5351 -1.8542 -0.7790
 5543TIP3   OH216571   2.327   6.362   2.666 -0.0577  0.2126  0.2896
 5543TIP3    H116572   2.279   6.279   2.670  1.1752 -0.5355  0.2277
 5543TIP3    H216573   2.267   6.427   2.701 -1.0786 -0.6989  0.2758
 5544TIP3   OH216574   3.734   1.373   4.561  0.0093 -0.0368 -0.2872
 5544TIP3    H116575   3.644   1.376   4.527 -0.8260 -0.8238  1.6839
 5544TIP3    H216576   3.737   1.291   4.611  2.3393 -0.8198 -1.5885
 5545TIP3   OH216577   4.600   2.953   4.394  0.1826  0.4238 -0.9233
 5545TIP3    H116578   4.610   2.893   4.468 -0.7218 -0.9546 -1.8630
 5545TIP3    H216579   4.683   2.946   4.347  1.3914  2.5083  0.7399
 5546TIP3   OH216580   1.210   0.876   6.006 -0.7417 -0.1167  0.2389
 5546TIP3    H116581   1.171   0.885   5.919 -4.7703  0.9441  1.9440
 5546TIP3    H216582   1.136   0.856   6.064  1.7179 -0.6019  3.4929
 5547TIP3   OH216583   4.389   6.460   5.941 -0.3371  0.6030  0.1178
 5547TIP3    H116584   4.379   6.474   5.847  0.1002  0.6322  0.0728
 5547TIP3    H216585   4.478   6.492   5.961 -0.4995  0.7851  0.5743
 5548TIP3   OH216586   3.888   0.614   2.226  0.2746 -0.4594  0.3965
 5548TIP3    H116587   3.973   0.653   2.206  0.5586 -1.2609 -0.0037
 5548TIP3    H216588   3.866   0.563   2.148 -0.3635 -0.6165  0.6769
 5549TIP3   OH216589   6.721   0.109   0.435  0.0207 -0.5625  0.1647
 5549TIP3    H116590   6.807   0.109   0.477  0.4312 -0.1784 -0.6413
 5549TIP3    H216591   6.740   0.101   0.342 -0.6462  2.1089 -0.2899
 5550TIP3   OH216592   2.160   4.279   1.685 -0.1794 -0.2763  0.2670
 5550TIP3    H116593   2.172   4.358   1.632  2.9299  0.1900  1.4700
 5550TIP3    H216594   2.192   4.304   1.772  0.1977 -2.6530  0.8683
 5551TIP3   OH216595   2.265   4.963   1.721 -0.4124 -0.0558  0.2939
 5551TIP3    H116596   2.215   5.043   1.736 -2.4722 -1.4164  1.1673
 5551TIP3    H216597   2.310   4.978   1.637 -0.4683  2.0971  0.6031
 5552TIP3   OH216598   3.589   0.034   5.602 -0.0554 -0.0072 -0.0505
 5552TIP3    H116599   3.600   0.109   5.543 -1.1517  0.4316  0.2803
 5552TIP3    H216600   3.499   0.004   5.586  0.4480 -1.4207 -0.3579
 5553TIP3   OH216601   0.099   3.780   5.732 -0.3978 -0.1080 -0.2011
 5553TIP3    H116602   0.126   3.719   5.663  0.1687 -0.1333  0.0394
 5553TIP3    H216603   0.114   3.867   5.695 -0.6464 -0.1157 -0.3240
 5554TIP3   OH216604   1.431   3.875   3.082  0.3320 -0.0038  0.1035
 5554TIP3    H116605   1.431   3.785   3.114  1.5413 -0.0227  0.1109
 5554TIP3    H216606   1.521   3.906   3.097  0.0473  1.0654 -0.2784
 5555TIP3   OH216607   1.138   5.572   1.383  0.2148  0.1036  0.5476
 5555TIP3    H116608   1.064   5.525   1.343  0.0406  0.6064  0.2613
 5555TIP3    H216609   1.204   5.505   1.397 -0.4025 -0.4064  1.0678
 5556TIP3   OH216610   4.746   3.032   3.095  0.0752 -0.1202 -0.4469
 5556TIP3    H116611   4.797   2.955   3.118 -1.0227 -0.8141 -0.2817
 5556TIP3    H216612   4.708   3.011   3.010 -0.9588 -0.1487  0.0074
 5557TIP3   OH216613   1.301   4.169   2.659 -0.5446  0.2461  0.3418
 5557TIP3    H116614   1.271   4.245   2.709  0.2628  0.4461  0.5272
 5557TIP3    H216615   1.319   4.102   2.726  1.6306  0.8806  0.4459
 5558TIP3   OH216616   7.031   6.091   2.275 -0.5180  0.2359 -0.2365
 5558TIP3    H116617   7.110   6.038   2.286 -0.3733  0.6111  0.6663
 5558TIP3    H216618   7.058   6.179   2.300 -1.2728  0.3248  0.2948
 5559TIP3   OH216619   6.820   1.574   1.893 -0.1189 -0.5339 -0.5388
 5559TIP3    H116620   6.776   1.659   1.883  0.4451 -0.1479  0.1805
 5559TIP3    H216621   6.911   1.596   1.914  0.3334 -1.3254 -1.5787
 5560TIP3   OH216622   4.452   0.010   1.585 -0.5225 -0.0478  0.0616
 5560TIP3    H116623   4.366   0.022   1.544 -0.3845 -2.4820 -1.1027
 5560TIP3    H216624   4.433  -0.004   1.677 -1.2123  1.1366  0.1210
 5561TIP3   OH216625   0.487   1.027   0.973 -0.4722 -0.0161 -0.2868
 5561TIP3    H116626   0.395   1.042   0.950 -0.8232 -0.9128  0.4341
 5561TIP3    H216627   0.502   1.082   1.050 -0.7705 -0.7723  0.3233
 5562TIP3   OH216628   6.425   3.458   2.666 -0.3818  0.2190  0.9249
 5562TIP3    H116629   6.499   3.399   2.678 -0.5240  0.2016  1.8003
 5562TIP3    H216630   6.453   3.520   2.598  0.3549  0.0934  1.1143
 5563TIP3   OH216631   5.097   6.867   5.633 -0.6753 -0.0603 -0.0976
 5563TIP3    H116632   5.188   6.841   5.646 -0.4017  1.0477  0.4118
 5563TIP3    H216633   5.086   6.874   5.539  0.1550  1.0221 -0.1315
 5564TIP3   OH216634   3.232   5.124   2.685  0.4540 -0.2004  0.1846
 5564TIP3    H116635   3.313   5.092   2.725 -0.3305 -0.8766  1.2909
 5564TIP3    H216636   3.231   5.082   2.599  1.7437  0.5935 -0.2529
 5565TIP3   OH216637   7.462   5.788   3.734  0.3581  0.5449 -0.3487
 5565TIP3    H116638   7.447   5.848   3.807  2.6159  2.9512 -1.7078
 5565TIP3    H216639   7.398   5.815   3.668 -0.8054 -0.7727  0.1905
 5566TIP3   OH216640   6.995   1.456   4.329  0.2237 -0.3867  0.1138
 5566TIP3    H116641   6.922   1.519   4.331  0.7816  0.2463  1.0899
 5566TIP3    H216642   7.073   1.509   4.343  0.9077 -1.0371 -1.1505
 5567TIP3   OH216643   1.574   6.365   4.935 -0.3743  0.0610 -0.7150
 5567TIP3    H116644   1.487   6.367   4.896  0.0905  0.0719 -1.8056
 5567TIP3    H216645   1.613   6.449   4.911  0.2646 -0.3183 -1.0412
 5568TIP3   OH216646   0.130   1.286   6.303 -0.1379 -0.5315  0.0611
 5568TIP3    H116647   0.191   1.332   6.361 -1.2197 -0.8177  1.5024
 5568TIP3    H216648   0.151   1.193   6.314 -1.1375 -0.6734  0.9979
 5569TIP3   OH216649   0.175   5.325   1.738  0.1204 -0.1549 -0.4237
 5569TIP3    H116650   0.192   5.365   1.653 -0.2442 -1.9980 -1.4296
 5569TIP3    H216651   0.083   5.299   1.735  0.0291 -0.0233  0.6541
 5570TIP3   OH216652   1.585   6.902   1.539  0.4674  0.0437  0.3475
 5570TIP3    H116653   1.596   6.828   1.480  0.8313  0.8360 -0.6151
 5570TIP3    H216654   1.629   6.876   1.620  1.3340 -0.4538 -0.2715
 5571TIP3   OH216655   4.271   2.614   3.067  0.2454  0.2385  0.6187
 5571TIP3    H116656   4.339   2.663   3.113  0.5231  0.9273 -0.5009
 5571TIP3    H216657   4.244   2.546   3.129  1.7598  0.1249  1.1825
 5572TIP3   OH216658   0.110   6.625   0.320  0.1753 -0.5370 -0.4923
 5572TIP3    H116659   0.107   6.566   0.394  1.0342  0.0929  0.0658
 5572TIP3    H216660   0.127   6.711   0.359 -1.0208  0.0825 -1.2813
 5573TIP3   OH216661   3.742   6.088   1.520 -0.0764 -0.1072 -0.0466
 5573TIP3    H116662   3.833   6.067   1.500 -0.5096 -2.6888  0.3119
 5573TIP3    H216663   3.725   6.045   1.604 -1.1428  1.9114  0.8524
 5574TIP3   OH216664   6.753   0.347   4.350 -0.6148  0.1203 -0.3331
 5574TIP3    H116665   6.802   0.278   4.395 -0.2409  0.7198  0.1855
 5574TIP3    H216666   6.817   0.388   4.292 -0.4568  1.0121  0.4631
 5575TIP3   OH216667   7.939   7.807   0.584  0.1040  0.5063  0.0519
 5575TIP3    H116668   7.995   7.737   0.552 -1.0676 -2.1552  3.2468
 5575TIP3    H216669   7.864   7.808   0.524  1.1620  0.6426 -1.3132
 5576TIP3   OH216670   7.228   7.367   6.691 -0.5830 -0.2033  0.0225
 5576TIP3    H116671   7.146   7.322   6.667 -0.2011 -0.3518 -1.0485
 5576TIP3    H216672   7.203   7.424   6.763 -1.3542 -1.2318  0.6018
 5577TIP3   OH216673   6.721   2.638   2.192 -0.0461 -0.2586  0.6564
 5577TIP3    H116674   6.628   2.636   2.213 -1.0047  1.3090 -2.7426
 5577TIP3    H216675   6.754   2.715   2.239 -1.2734  1.1070 -0.6128
 5578TIP3   OH216676   0.453   7.064   6.658  0.8073  0.5032 -0.8493
 5578TIP3    H116677   0.363   7.044   6.685  1.2488 -1.1466 -0.4475
 5578TIP3    H216678   0.477   7.141   6.710  0.0159  0.2533 -0.0835
 5579TIP3   OH216679   4.318   3.355   0.245 -0.3209  0.2701  0.3144
 5579TIP3    H116680   4.320   3.264   0.217 -0.1416  0.3451  0.0827
 5579TIP3    H216681   4.225   3.378   0.244 -0.4189 -0.0791  0.9297
 5580TIP3   OH216682   4.615   7.047   2.154 -0.5925 -0.5196  0.1787
 5580TIP3    H116683   4.630   7.127   2.204 -1.9210  0.1664 -0.4807
 5580TIP3    H216684   4.671   7.057   2.076 -2.1736  0.6986 -0.8568
 5581TIP3   OH216685   5.261   6.577   1.505 -0.2449  0.5317 -0.5380
 5581TIP3    H116686   5.253   6.656   1.559  0.6178  0.1808  0.1251
 5581TIP3    H216687   5.240   6.505   1.564  2.3535  0.0094 -0.1479
 5582TIP3   OH216688   4.537   1.603   4.263  0.0656  0.0992 -1.1778
 5582TIP3    H116689   4.506   1.583   4.175  2.6390  1.3061 -2.4807
 5582TIP3    H216690   4.569   1.520   4.297 -0.1789 -0.2259 -1.7316
 5583TIP3   OH216691   3.527   6.695   3.715 -0.1123  0.8258 -0.1236
 5583TIP3    H116692   3.474   6.751   3.658 -0.1147  0.9602  0.0091
 5583TIP3    H216693   3.611   6.742   3.722 -0.1367  0.8444  0.0389
 5584TIP3   OH216694  -0.007   0.201   5.362 -0.2141  0.4423 -1.1878
 5584TIP3    H116695   0.011   0.224   5.271  1.0702 -0.8762 -1.3078
 5584TIP3    H216696   0.074   0.160   5.393 -1.5408 -1.7553 -0.3623
 5585TIP3   OH216697   3.596   2.541   6.176  0.0291  0.0382  0.3520
 5585TIP3    H116698   3.548   2.515   6.255 -2.5328  0.0775 -1.0755
 5585TIP3    H216699   3.646   2.619   6.203 -1.3582  0.4878  1.7748
 5586TIP3   OH216700   7.548   0.239   5.450  0.2896 -0.0181  0.8052
 5586TIP3    H116701   7.489   0.257   5.377  3.3767 -0.5274 -2.0583
 5586TIP3    H216702   7.622   0.297   5.436  2.5233 -2.4943  1.5200
 5587TIP3   OH216703   6.825   2.646   3.513  0.9202 -0.6042  0.7069
 5587TIP3    H116704   6.837   2.664   3.606  0.8505  0.1528  0.5719
 5587TIP3    H216705   6.731   2.650   3.499  1.0096  0.5713  0.3568
 5588TIP3   OH216706   0.421   6.583   1.154 -0.7461  0.2621  0.2062
 5588TIP3    H116707   0.485   6.625   1.212 -1.4730  2.5887 -0.5498
 5588TIP3    H216708   0.469   6.512   1.112  0.6603  0.4777  1.3677
 5589TIP3   OH216709   2.622   5.394   0.780 -0.3133 -0.7089 -0.3341
 5589TIP3    H116710   2.536   5.430   0.800 -0.5871 -1.3658 -0.2846
 5589TIP3    H216711   2.638   5.331   0.850  0.6722  0.1499  0.2344
 5590TIP3   OH216712   4.182   6.498   3.270  0.0041  0.4609 -0.2759
 5590TIP3    H116713   4.173   6.548   3.189 -0.8755  0.8140  0.0359
 5590TIP3    H216714   4.116   6.429   3.264 -0.0782  0.5006  0.1529
 5591TIP3   OH216715   6.556   3.089   3.629 -0.0482  0.2062  0.1439
 5591TIP3    H116716   6.510   3.129   3.703  0.8741  0.4491  0.5900
 5591TIP3    H216717   6.560   3.158   3.563 -2.0852 -0.4024 -0.7247
 5592TIP3   OH216718   6.003   4.096   5.287  0.2838  0.2894  0.3336
 5592TIP3    H116719   6.069   4.062   5.347 -0.1231 -0.2271  0.4944
 5592TIP3    H216720   6.042   4.176   5.251  1.3752 -0.4867 -0.2724
 5593TIP3   OH216721   1.703   5.354   5.082  0.7987 -0.0086  0.0710
 5593TIP3    H116722   1.617   5.390   5.061  1.3113  1.3585  0.2232
 5593TIP3    H216723   1.754   5.366   5.002  0.6622 -1.4885 -0.2697
 5594TIP3   OH216724   1.207   0.232   3.210  0.1018 -0.3414 -0.3766
 5594TIP3    H116725   1.224   0.319   3.175  0.3563 -0.4676 -0.5793
 5594TIP3    H216726   1.180   0.246   3.300  0.9264 -0.1024 -0.1589
 5595TIP3   OH216727   2.507   0.356   5.557 -0.5409  0.1423  0.3483
 5595TIP3    H116728   2.585   0.393   5.515  0.5741 -2.0987  0.3177
 5595TIP3    H216729   2.504   0.400   5.642 -0.5915  1.8975 -0.5049
 5596TIP3   OH216730   6.424   1.444   5.305 -0.4358 -0.3546  0.1468
 5596TIP3    H116731   6.444   1.352   5.324  0.0857 -0.6296 -1.5582
 5596TIP3    H216732   6.508   1.482   5.279 -1.0557 -0.0804 -1.6275
 5597TIP3   OH216733   0.425   7.777   6.162 -0.1042  0.8270  0.7450
 5597TIP3    H116734   0.432   7.703   6.101  2.1707  0.5450  1.2441
 5597TIP3    H216735   0.388   7.848   6.110 -1.1957 -0.3064 -0.0724
 5598TIP3   OH216736   1.536   6.751   6.583 -0.3521 -0.1659  0.5793
 5598TIP3    H116737   1.453   6.778   6.544  0.1645 -1.4000 -1.5456
 5598TIP3    H216738   1.556   6.820   6.647 -1.2911  2.0120 -1.3316
 5599TIP3   OH216739   5.171   5.710   6.033 -0.1454  0.2799  0.0120
 5599TIP3    H116740   5.151   5.784   6.091 -0.4525  0.5684 -0.4502
 5599TIP3    H216741   5.266   5.698   6.040  0.0890  1.4871 -0.7972
 5600TIP3   OH216742   6.122   4.773   2.972  0.3201 -0.3647  0.0199
 5600TIP3    H116743   6.198   4.719   2.949  0.3997  0.7188 -2.6283
 5600TIP3    H216744   6.053   4.709   2.991  0.9644 -1.4259 -1.0217
 5601TIP3   OH216745   6.651   2.167   6.092  0.0730 -0.3485 -0.3295
 5601TIP3    H116746   6.561   2.200   6.086 -0.1500 -0.3723  1.9235
 5601TIP3    H216747   6.647   2.100   6.160  1.3883 -2.0237 -1.7904
 5602TIP3   OH216748   1.478   2.193   2.360 -0.2668  0.0822 -0.1553
 5602TIP3    H116749   1.451   2.228   2.445  0.9142 -0.9154  0.6645
 5602TIP3    H216750   1.479   2.098   2.372  0.5444 -0.0436 -1.0864
 5603TIP3   OH216751   3.861   3.680   4.029  0.1523 -0.2961 -0.0488
 5603TIP3    H116752   3.886   3.588   4.040 -0.0761 -0.2358  1.1869
 5603TIP3    H216753   3.808   3.699   4.107  0.3809  0.9445 -0.1779
 5604TIP3   OH216754   3.514   0.322   0.589 -0.2080 -0.3240 -0.2787
 5604TIP3    H116755   3.566   0.293   0.514 -1.0993 -1.5482 -0.4475
 5604TIP3    H216756   3.530   0.257   0.657 -0.0735  0.3126  0.3128
 5605TIP3   OH216757   7.659   3.244   5.221  0.1920  0.4572  0.1830
 5605TIP3    H116758   7.707   3.186   5.161  1.2213 -0.2175  1.5879
 5605TIP3    H216759   7.713   3.322   5.228  0.5140  0.1844  0.8589
 5606TIP3   OH216760   0.759   7.797  -0.008  0.2198 -0.5017 -0.4111
 5606TIP3    H116761   0.763   7.712   0.036 -0.6591 -0.2009  0.2915
 5606TIP3    H216762   0.701   7.849   0.047 -0.0411  0.2422 -1.3722
 5607TIP3   OH216763   1.245   3.126   4.418  0.4780  0.3390 -0.1618
 5607TIP3    H116764   1.327   3.132   4.369  0.7065  0.5424  0.2400
 5607TIP3    H216765   1.177   3.143   4.352  0.8387  1.7828 -0.1877
 5608TIP3   OH216766   3.220   0.684   4.461  0.5751 -1.0584  0.3604
 5608TIP3    H116767   3.152   0.746   4.488  0.9946  0.3941 -1.7253
 5608TIP3    H216768   3.302   0.728   4.480  0.8789 -0.8404 -1.3280
 5609TIP3   OH216769   4.982   3.406   4.051 -0.7251  0.6525 -0.1486
 5609TIP3    H116770   4.921   3.382   3.981 -1.8366 -0.6029  1.1859
 5609TIP3    H216771   5.042   3.332   4.056 -0.3153  0.9841 -0.1259
 5610TIP3   OH216772   3.687   6.147   0.882 -0.0715 -0.5771  0.3009
 5610TIP3    H116773   3.639   6.230   0.874 -2.3913 -2.0132 -2.2525
 5610TIP3    H216774   3.767   6.171   0.929  0.9005  3.7673 -2.8653
 5611TIP3   OH216775   7.956   0.848   3.343 -0.0007  0.4807 -0.1693
 5611TIP3    H116776   7.868   0.877   3.366 -0.5042 -2.1900  1.6937
 5611TIP3    H216777   8.007   0.859   3.424  0.9280  0.3758 -0.7255
 5612TIP3   OH216778   7.679   5.143   5.412 -0.6090  0.2096 -0.2752
 5612TIP3    H116779   7.727   5.201   5.354 -0.5697  1.6526  1.1143
 5612TIP3    H216780   7.747   5.097   5.462 -0.6033  1.6682  1.1355
 5613TIP3   OH216781   2.501   3.883   1.269  0.0684 -0.2836 -0.1173
 5613TIP3    H116782   2.482   3.791   1.289  1.7788 -0.7480 -0.4648
 5613TIP3    H216783   2.454   3.900   1.188 -1.2387 -0.4712  0.5726
 5614TIP3   OH216784   3.783   4.427   6.304  0.0379  0.2077  0.2589
 5614TIP3    H116785   3.726   4.424   6.228  0.0517  2.8344  0.0734
 5614TIP3    H216786   3.872   4.426   6.268  0.0438  1.5911  0.2065
 5615TIP3   OH216787   7.818   3.708   6.141  0.3576  0.5475 -0.3684
 5615TIP3    H116788   7.772   3.792   6.140 -1.4542 -0.4022 -0.5910
 5615TIP3    H216789   7.861   3.705   6.226 -0.4412  1.2427  0.0694
 5616TIP3   OH216790   8.057   3.429   2.277 -0.3373 -0.3019  0.8073
 5616TIP3    H116791   7.971   3.388   2.281 -2.4097  3.5980  0.0689
 5616TIP3    H216792   8.081   3.426   2.185 -1.2089  1.3410  0.4973
 5617TIP3   OH216793   3.685   3.187   2.077 -0.2780  0.1674  1.1254
 5617TIP3    H116794   3.676   3.099   2.041 -0.1793  0.3301  0.6993
 5617TIP3    H216795   3.608   3.198   2.133 -0.8534  0.2057  0.3388
 5618TIP3   OH216796   5.369   3.158   0.925 -0.0465 -0.3786 -0.2844
 5618TIP3    H116797   5.388   3.228   0.987  0.7548 -0.9284  0.0984
 5618TIP3    H216798   5.275   3.165   0.909 -0.0217  0.6102 -0.0466
 5619TIP3   OH216799   3.495   7.693   2.933  0.4038  0.2172 -0.2534
 5619TIP3    H116800   3.533   7.644   3.005 -0.0060  0.8597  0.4190
 5619TIP3    H216801   3.569   7.713   2.876  0.5557 -1.2932 -0.6323
 5620TIP3   OH216802   3.137   3.365   6.588 -0.2153  0.5127  0.2198
 5620TIP3    H116803   3.149   3.454   6.623  2.2500  0.6868 -0.8048
 5620TIP3    H216804   3.143   3.308   6.664 -0.9711  1.1767  0.7859
 5621TIP3   OH216805   8.277   5.446   3.706  0.5744  0.0442  0.1139
 5621TIP3    H116806   8.185   5.458   3.733  0.2475  0.5887 -1.1466
 5621TIP3    H216807   8.279   5.359   3.667 -0.2959  1.3033 -3.0405
 5622TIP3   OH216808   2.222   5.683   5.793 -0.0584 -0.0462  0.2526
 5622TIP3    H116809   2.148   5.646   5.841 -0.4795 -1.0187 -1.0820
 5622TIP3    H216810   2.195   5.680   5.702  1.3188  0.3262 -0.1888
 5623TIP3   OH216811   2.692   1.843   2.330  0.5361  0.3376  0.1819
 5623TIP3    H116812   2.643   1.914   2.289 -0.4002  0.0526  0.7707
 5623TIP3    H216813   2.731   1.883   2.408  0.3855  0.3189  0.2673
 5624TIP3   OH216814   3.113   5.573   1.787  0.5963 -0.2584 -0.2581
 5624TIP3    H116815   3.038   5.586   1.845 -0.2781  1.3751 -1.6613
 5624TIP3    H216816   3.109   5.480   1.764 -0.0163 -0.5531  0.9542
 5625TIP3   OH216817   4.089   6.172   6.407  0.2338 -0.0950  0.0195
 5625TIP3    H116818   4.108   6.130   6.323  1.8806 -1.9412  1.2188
 5625TIP3    H216819   4.052   6.102   6.461 -3.0728  1.6215  0.1915
 5626TIP3   OH216820   6.006   2.548   3.984 -0.1772  0.2577 -0.2359
 5626TIP3    H116821   5.920   2.545   4.026 -0.1929 -1.0617 -0.3297
 5626TIP3    H216822   6.045   2.463   4.003  0.1804 -0.0440 -2.1066
 5627TIP3   OH216823   1.320   2.167   6.053  0.3411  0.0016  0.1778
 5627TIP3    H116824   1.377   2.239   6.080  0.7132 -0.7470  1.4401
 5627TIP3    H216825   1.372   2.088   6.068 -0.3095 -0.5870 -0.5488
 5628TIP3   OH216826   4.668   1.158   6.562  0.0050  0.3022 -0.1445
 5628TIP3    H116827   4.603   1.181   6.495 -2.1468 -0.8494  1.4269
 5628TIP3    H216828   4.744   1.129   6.512 -1.3205 -0.0203 -2.0924
 5629TIP3   OH216829   2.555   2.822   4.424  0.0807  0.7731 -0.2463
 5629TIP3    H116830   2.497   2.754   4.389 -0.0153  1.1458 -0.8304
 5629TIP3    H216831   2.589   2.786   4.506 -1.4206  0.7686  0.4080
 5630TIP3   OH216832   2.433   5.551   1.403  0.2942  0.3717  0.0931
 5630TIP3    H116833   2.414   5.503   1.323  1.1908  0.2947 -0.0869
 5630TIP3    H216834   2.349   5.590   1.429  0.0127  0.4742 -0.9302
 5631TIP3   OH216835   7.970   3.877   0.117  0.2154 -0.2419 -0.3399
 5631TIP3    H116836   7.966   3.967   0.085 -0.1583  0.7953  2.4198
 5631TIP3    H216837   7.906   3.830   0.063 -1.8739  1.8472  0.1370
 5632TIP3   OH216838   0.461   2.448   0.208 -0.2021 -0.0306  0.1147
 5632TIP3    H116839   0.484   2.540   0.196  0.0882  0.5918  3.9713
 5632TIP3    H216840   0.366   2.446   0.205 -0.3282  0.8576  1.7910
 5633TIP3   OH216841   5.514   2.116   4.960  0.2226 -0.0515  0.2948
 5633TIP3    H116842   5.542   2.197   4.919 -0.6880  0.2780  0.2990
 5633TIP3    H216843   5.594   2.064   4.969  0.5723  0.2190 -1.0928
 5634TIP3   OH216844   4.698   6.512   0.471 -0.1199 -0.3219  0.0315
 5634TIP3    H116845   4.715   6.417   0.474  2.1052  0.0282  2.7622
 5634TIP3    H216846   4.758   6.549   0.536  0.2866  3.1870 -2.1007
 5635TIP3   OH216847   3.121   0.894   3.534 -0.2965 -0.2645  0.3673
 5635TIP3    H116848   3.036   0.937   3.538 -0.4856 -0.2454 -1.9968
 5635TIP3    H216849   3.101   0.800   3.529 -0.0960 -0.3629  1.3434
 5636TIP3   OH216850   7.648   2.773   1.782  0.2823 -0.0136  0.0401
 5636TIP3    H116851   7.642   2.718   1.860 -1.4422  0.9528  0.6548
 5636TIP3    H216852   7.622   2.715   1.710  2.5788 -1.1145 -0.0002
 5637TIP3   OH216853   5.054   7.540   4.469 -0.4285 -0.4911 -0.4094
 5637TIP3    H116854   5.145   7.548   4.498 -0.6955  0.7700  0.1344
 5637TIP3    H216855   5.054   7.577   4.380 -0.4041 -0.5213 -0.4221
 5638TIP3   OH216856   0.356   4.751   5.480  0.2960  0.1951 -0.4379
 5638TIP3    H116857   0.425   4.686   5.469 -0.0685 -0.0426 -1.4982
 5638TIP3    H216858   0.400   4.835   5.474  0.4350  0.0489 -1.7181
 5639TIP3   OH216859   0.111   2.009   2.609  0.2954  0.2271  0.1470
 5639TIP3    H116860   0.151   2.075   2.665  0.0354  0.2210  0.3416
 5639TIP3    H216861   0.018   2.014   2.629  0.3460 -0.7219  0.7219
 5640TIP3   OH216862   1.751   2.836   2.515  0.4125  0.0881  0.0069
 5640TIP3    H116863   1.793   2.754   2.540  2.3764  1.0728  0.1426
 5640TIP3    H216864   1.787   2.856   2.428  0.6383  1.2229  0.3450
 5641TIP3   OH216865   5.866   1.678   6.185  0.5759  0.3065 -0.3203
 5641TIP3    H116866   5.925   1.742   6.144 -1.5065  2.4871 -0.1277
 5641TIP3    H216867   5.878   1.691   6.279  1.2503 -0.7168 -0.2494
 5642TIP3   OH216868   2.284   7.619   0.498  0.4877  0.2842 -0.0043
 5642TIP3    H116869   2.289   7.541   0.553  0.1054  0.7791  0.7524
 5642TIP3    H216870   2.374   7.634   0.470  0.6822  0.0019  0.4542
 5643TIP3   OH216871   5.235   0.052   5.693 -0.5643 -0.7134 -0.2060
 5643TIP3    H116872   5.205  -0.002   5.619  0.0851 -1.4059  0.0284
 5643TIP3    H216873   5.327   0.031   5.703 -0.6943 -0.8109  0.9639
 5644TIP3   OH216874   2.356   2.650   1.245  0.1878 -0.4607 -0.4707
 5644TIP3    H116875   2.298   2.597   1.190 -1.1332 -0.4088  0.8129
 5644TIP3    H216876   2.345   2.739   1.213  0.0469 -0.5363 -0.6315
 5645TIP3   OH216877   1.723   5.334   2.121  0.0342  0.1378  0.4109
 5645TIP3    H116878   1.683   5.361   2.038  1.2604  0.8988  0.0369
 5645TIP3    H216879   1.649   5.306   2.175 -1.1174  2.2552  0.0438
 5646TIP3   OH216880   1.249   2.481   2.107  0.0207  0.1718  0.0485
 5646TIP3    H116881   1.282   2.426   2.035 -0.5146  1.0910 -0.9355
 5646TIP3    H216882   1.165   2.441   2.130 -0.3071  0.4731 -0.5766
 5647TIP3   OH216883   2.880   5.490   2.056  0.5460  0.1950 -0.8466
 5647TIP3    H116884   2.796   5.526   2.026 -0.3456  1.0981  2.3639
 5647TIP3    H216885   2.856   5.410   2.103  1.3178  0.9323  0.8790
 5648TIP3   OH216886   4.851   2.071   4.851  0.4943  0.0789 -0.1722
 5648TIP3    H116887   4.786   2.007   4.820  1.7569 -0.3087 -2.1433
 5648TIP3    H216888   4.907   2.020   4.910  0.6614 -0.2990 -0.6487
 5649TIP3   OH216889   5.137   6.339   5.914  0.5804 -0.0355 -0.4656
 5649TIP3    H116890   5.192   6.411   5.946  0.5290 -0.1836 -0.0387
 5649TIP3    H216891   5.170   6.261   5.959  0.0238 -0.1258 -0.2068
 5650TIP3   OH216892   7.073   3.444   4.047  0.1111  0.0745  0.1265
 5650TIP3    H116893   7.002   3.382   4.063  0.7241 -0.6194  0.1743
 5650TIP3    H216894   7.031   3.530   4.054 -0.9887 -0.3338 -1.1310
 5651TIP3   OH216895   5.940   4.289   1.612 -0.1174  0.1925 -0.1737
 5651TIP3    H116896   5.853   4.285   1.573  0.2747 -0.0365 -1.0333
 5651TIP3    H216897   5.953   4.382   1.632  0.0776  0.4629 -1.5098
 5652TIP3   OH216898   5.016   1.162   2.931 -0.1579 -0.4094  0.0021
 5652TIP3    H116899   4.930   1.194   2.956  0.0872  0.1141  0.2120
 5652TIP3    H216900   4.999   1.091   2.870 -0.7306  0.0783 -0.4242
 5653TIP3   OH216901   7.114   2.576   6.174  0.1835  0.2140 -0.3891
 5653TIP3    H116902   7.113   2.627   6.093 -0.8652 -0.5984 -0.9065
 5653TIP3    H216903   7.049   2.617   6.230 -0.3763 -0.2943 -0.6542
 5654TIP3   OH216904   4.556   7.043   5.852 -0.1741 -0.1777 -0.0287
 5654TIP3    H116905   4.613   7.106   5.897  1.9993 -1.7553 -0.4111
 5654TIP3    H216906   4.491   7.017   5.918  0.5323  0.4750  0.9485
 5655TIP3   OH216907   4.964   0.085   3.860  0.2270  0.2157  0.1215
 5655TIP3    H116908   4.925   0.027   3.925  1.8337  0.0604  0.9954
 5655TIP3    H216909   5.056   0.058   3.856  0.9683  2.5168  0.3494
 5656TIP3   OH216910   5.574   6.187   0.481 -0.2743 -0.1311 -0.2657
 5656TIP3    H116911   5.647   6.144   0.437  1.1071  2.2241 -0.4353
 5656TIP3    H216912   5.502   6.186   0.417 -0.2877 -2.0995 -0.2547
 5657TIP3   OH216913   6.837   1.520   2.955  0.2227 -0.4288  0.0115
 5657TIP3    H116914   6.749   1.533   2.920  0.4981  1.3088 -0.0850
 5657TIP3    H216915   6.882   1.603   2.940  1.6475 -1.0351  0.7476
 5658TIP3   OH216916   5.172   6.974   6.710  0.0724  0.2640  0.1151
 5658TIP3    H116917   5.181   6.961   6.805  3.9857 -1.5162 -0.2753
 5658TIP3    H216918   5.120   6.900   6.680 -2.4643  1.6280  0.9327
 5659TIP3   OH216919   5.574   6.643   6.629  0.2084  0.1691 -0.7858
 5659TIP3    H116920   5.508   6.662   6.695  0.9762 -0.8541  0.3101
 5659TIP3    H216921   5.566   6.715   6.566 -1.2360  0.6092 -0.1452
 5660TIP3   OH216922   1.305   4.172   0.812  0.2827 -0.1137 -0.2307
 5660TIP3    H116923   1.284   4.082   0.836 -0.8085  0.1452 -0.1382
 5660TIP3    H216924   1.250   4.190   0.735 -1.5718  1.2856  1.3074
 5661TIP3   OH216925   0.998   7.093   5.534 -1.4802 -0.3812 -0.3093
 5661TIP3    H116926   1.084   7.097   5.491 -2.3465 -1.3888 -2.2529
 5661TIP3    H216927   0.954   7.018   5.493 -3.5324  0.4810  0.1973
 5662TIP3   OH216928   6.677   2.952   0.697  0.6674  0.1561 -0.2071
 5662TIP3    H116929   6.758   2.913   0.663 -0.7275 -1.7834 -1.4416
 5662TIP3    H216930   6.657   3.022   0.635  0.2786 -0.7611 -1.1374
 5663TIP3   OH216931   4.262   1.503   3.375 -0.2696 -0.5410 -0.1058
 5663TIP3    H116932   4.264   1.538   3.465 -1.9109 -0.9020  0.1001
 5663TIP3    H216933   4.262   1.581   3.320  4.2837 -0.2188 -0.0592
 5664TIP3   OH216934   1.566   4.865   3.160 -0.0606  0.1082 -0.5188
 5664TIP3    H116935   1.553   4.954   3.194 -0.5635 -0.3584  0.5665
 5664TIP3    H216936   1.661   4.852   3.162 -0.0458  0.2648  0.2944
 5665TIP3   OH216937   3.689   6.625   5.178 -0.6068  0.3812  0.1347
 5665TIP3    H116938   3.681   6.580   5.262 -0.0020 -0.7178 -0.3808
 5665TIP3    H216939   3.730   6.709   5.199 -2.4274  1.0670  1.2095
 5666TIP3   OH216940   5.913   1.581   4.466  0.3650  0.3346  0.2313
 5666TIP3    H116941   5.900   1.665   4.422 -2.9249  0.2187  0.6688
 5666TIP3    H216942   5.861   1.519   4.414 -0.2229 -0.6352  1.8882
 5667TIP3   OH216943   4.277   5.986   3.871  0.0647  0.0347  0.1550
 5667TIP3    H116944   4.304   5.907   3.824 -1.1533 -1.1990  1.4253
 5667TIP3    H216945   4.319   6.057   3.824  0.1156 -1.2477 -1.8698
 5668TIP3   OH216946   5.632   1.829   6.086 -0.6786  0.2582  0.0551
 5668TIP3    H116947   5.546   1.830   6.128 -1.7329  0.4626 -1.9673
 5668TIP3    H216948   5.689   1.785   6.148 -2.4168 -0.5228  1.1656
 5669TIP3   OH216949   6.468   0.628   0.925  0.0883 -0.2099 -1.0246
 5669TIP3    H116950   6.421   0.673   0.855  0.5305 -0.6558 -1.6200
 5669TIP3    H216951   6.496   0.698   0.984 -0.8279  0.1093 -0.9565
 5670TIP3   OH216952   7.129   1.989   1.291 -0.1481  0.5185 -0.0857
 5670TIP3    H116953   7.126   1.894   1.298  1.1106  0.3382 -1.4932
 5670TIP3    H216954   7.135   2.020   1.382 -0.6948 -0.7171  0.3918
 5671TIP3   OH216955   4.313   0.407   6.506  0.3380 -0.2312  0.0098
 5671TIP3    H116956   4.284   0.490   6.468 -0.8510 -0.8035 -0.3980
 5671TIP3    H216957   4.405   0.400   6.483 -0.1245 -0.1463 -2.0921
 5672TIP3   OH216958   8.207   5.982   2.809  0.1862 -0.6332 -0.1021
 5672TIP3    H116959   8.138   5.922   2.782 -0.4849 -0.4061  1.0339
 5672TIP3    H216960   8.161   6.062   2.834  0.6957 -0.9032  1.9099
 5673TIP3   OH216961   3.381   3.517   2.645 -0.0538  0.1818 -0.0736
 5673TIP3    H116962   3.423   3.603   2.643  0.6163 -0.1484 -0.6955
 5673TIP3    H216963   3.431   3.467   2.709 -1.5406  0.7670  1.6464
 5674TIP3   OH216964   0.743   4.746   4.459 -0.2550 -0.3434 -0.1257
 5674TIP3    H116965   0.677   4.702   4.513 -1.6404 -0.2296 -1.6374
 5674TIP3    H216966   0.734   4.838   4.482 -3.5056  0.2790 -3.0090
 5675TIP3   OH216967   7.958   5.808   5.688 -0.9187 -0.7240  0.4227
 5675TIP3    H116968   7.900   5.760   5.747 -0.0716 -0.8599  1.1689
 5675TIP3    H216969   7.970   5.893   5.731 -2.2566  0.1224 -0.7911
 5676TIP3   OH216970   0.884   2.053   2.797  0.5678  0.2427  0.0169
 5676TIP3    H116971   0.960   1.998   2.779 -0.9510 -1.5995 -1.0752
 5676TIP3    H216972   0.886   2.066   2.892  1.2538 -1.2799  0.2334
 5677TIP3   OH216973   7.226   3.921   2.680 -0.4871  0.6484  0.0121
 5677TIP3    H116974   7.150   3.869   2.653  0.2493  0.6368 -2.2833
 5677TIP3    H216975   7.283   3.857   2.723 -0.9817  0.2552  0.1008
 5678TIP3   OH216976   2.045   1.629   6.366 -0.3166 -0.3192  0.5814
 5678TIP3    H116977   2.139   1.634   6.381 -0.6259 -0.4041  2.8962
 5678TIP3    H216978   2.021   1.717   6.337  0.1601  0.3935  2.2420
 5679TIP3   OH216979   4.861   6.696   0.606 -0.3813 -0.2498  0.2607
 5679TIP3    H116980   4.941   6.737   0.575 -0.1536 -0.1049  1.0232
 5679TIP3    H216981   4.857   6.718   0.700  0.4319 -3.0004  1.0422
 5680TIP3   OH216982   1.958   5.554   4.776  0.1353  0.3156 -0.4386
 5680TIP3    H116983   1.866   5.528   4.786  0.3738 -1.2011 -1.8271
 5680TIP3    H216984   1.964   5.638   4.821 -2.4216  1.4420 -1.9908
 5681TIP3   OH216985   0.678   3.923   1.129 -0.3417  0.2247 -0.6007
 5681TIP3    H116986   0.655   3.886   1.044 -1.5332 -0.1479 -0.1410
 5681TIP3    H216987   0.633   3.866   1.192 -0.0287  0.8965  0.2422
 5682TIP3   OH216988   5.429   2.534   4.623  0.0535  0.5138 -0.2857
 5682TIP3    H116989   5.436   2.627   4.602 -1.8086  0.4931 -1.1696
 5682TIP3    H216990   5.462   2.490   4.544  0.2078  0.4101 -0.1648
 5683TIP3   OH216991   2.008   6.893   0.594  0.2006 -0.1059  0.2226
 5683TIP3    H116992   2.097   6.928   0.585  0.3232 -0.3491  0.4650
 5683TIP3    H216993   1.958   6.964   0.635  0.2293  0.1110 -0.1159
 5684TIP3   OH216994   3.055   4.066   3.737 -0.7343 -0.1698 -0.3022
 5684TIP3    H116995   3.077   4.088   3.827 -0.2646 -0.0620 -0.4395
 5684TIP3    H216996   3.066   3.971   3.732  1.5612  0.0613 -0.8394
 5685TIP3   OH216997   2.806   6.717   3.558 -0.2706  0.2615 -0.2828
 5685TIP3    H116998   2.881   6.719   3.619  1.2071  1.7164 -2.0157
 5685TIP3    H216999   2.806   6.628   3.523  1.4628  0.5356 -1.1150
 5686TIP3   OH217000   2.177   7.621   3.124  0.2888  0.0369  0.5734
 5686TIP3    H117001   2.228   7.555   3.078 -0.6217 -0.0289 -0.3753
 5686TIP3    H217002   2.094   7.578   3.144 -1.0432  1.3594 -1.6445
 5687TIP3   OH217003   7.460   0.378   4.148 -0.3576 -0.1555  0.4203
 5687TIP3    H117004   7.483   0.285   4.143 -0.7018 -0.2148 -0.2575
 5687TIP3    H217005   7.544   0.424   4.145 -0.2380 -0.3879 -1.4006
 5688TIP3   OH217006   2.888   1.390   3.909 -0.2530  0.3981  0.2226
 5688TIP3    H117007   2.935   1.357   3.986  2.0488 -1.0963 -1.6549
 5688TIP3    H217008   2.816   1.328   3.897  1.3690 -1.4364 -0.6577
 5689TIP3   OH217009   1.577   5.154   6.258  0.3262  0.1657  0.3655
 5689TIP3    H117010   1.497   5.186   6.301  0.9487 -0.6233  2.1962
 5689TIP3    H217011   1.633   5.231   6.252 -0.5994  0.7585 -1.0619
 5690TIP3   OH217012   0.322   4.995   0.406 -0.1579  0.2745 -0.1453
 5690TIP3    H117013   0.335   4.904   0.377 -1.0958 -0.4923  1.7316
 5690TIP3    H217014   0.398   5.042   0.370 -0.9118 -0.6616 -3.3103
 5691TIP3   OH217015   4.284   7.546   6.067 -0.1258  0.1526 -0.6540
 5691TIP3    H117016   4.319   7.576   5.983  1.0515  0.2739 -0.1309
 5691TIP3    H217017   4.299   7.452   6.068 -0.9742  0.0027 -0.9545
 5692TIP3   OH217018   2.750   2.961   6.493 -0.1988  0.4904 -0.0077
 5692TIP3    H117019   2.827   2.933   6.443 -0.6875  0.7451 -0.9181
 5692TIP3    H217020   2.714   3.034   6.444 -2.3156 -1.0158 -0.8487
 5693TIP3   OH217021   5.478   5.527   0.649  0.0722  0.3460  0.5575
 5693TIP3    H117022   5.407   5.563   0.596 -0.7864 -0.0084  1.4445
 5693TIP3    H217023   5.553   5.524   0.589 -0.1427  2.4070  0.0906
 5694TIP3   OH217024   1.457   0.164   2.990 -0.6131 -0.6765  0.6537
 5694TIP3    H117025   1.503   0.113   3.057 -0.5351 -0.6895  0.5900
 5694TIP3    H217026   1.371   0.123   2.984  0.1074 -2.0609 -0.8188
 5695TIP3   OH217027   0.465   2.710   1.758  0.1672 -0.0104 -0.0732
 5695TIP3    H117028   0.406   2.785   1.758 -1.1574 -0.7699 -4.1775
 5695TIP3    H217029   0.548   2.744   1.726  0.1224  0.0176 -0.1591
 5696TIP3   OH217030   5.941   5.753   6.753 -0.8114  0.1182 -0.3323
 5696TIP3    H117031   5.914   5.734   6.663  0.4389  0.4549 -0.8078
 5696TIP3    H217032   5.998   5.830   6.745 -0.4503 -0.0243  0.7121
 5697TIP3   OH217033   5.547   7.601   0.214  0.0748 -0.3058 -0.4247
 5697TIP3    H117034   5.471   7.583   0.269  0.5503  0.2319  0.4260
 5697TIP3    H217035   5.609   7.531   0.234  0.3381  0.0150 -0.0827
 5698TIP3   OH217036   6.171   0.067   2.396 -0.4109 -0.8413 -0.0014
 5698TIP3    H117037   6.218   0.027   2.469  0.9080  0.6631  0.0268
 5698TIP3    H217038   6.192   0.160   2.402 -1.4860 -0.4696 -1.4388
 5699TIP3   OH217039   4.407   6.817   1.325 -0.4086 -0.3431 -0.1340
 5699TIP3    H117040   4.492   6.775   1.338 -0.7223 -1.0871 -0.3819
 5699TIP3    H217041   4.344   6.745   1.333 -1.1968  0.5098  2.1756
 5700TIP3   OH217042   7.261   2.916   4.575  0.0017  0.4138 -0.2411
 5700TIP3    H117043   7.190   2.973   4.605  0.1911  0.8113 -0.5287
 5700TIP3    H217044   7.222   2.864   4.504 -0.6859 -1.1344  1.2109
 5701TIP3   OH217045   3.481   2.888   2.042 -0.5202 -0.4933 -0.2211
 5701TIP3    H117046   3.456   2.873   1.951 -0.5075 -2.5591  0.0478
 5701TIP3    H217047   3.574   2.907   2.039 -0.5764 -0.2792 -0.6531
 5702TIP3   OH217048   2.942   6.436   2.283 -0.2070  0.5290  0.7514
 5702TIP3    H117049   2.892   6.482   2.215  2.1799 -0.6760 -2.0686
 5702TIP3    H217050   2.888   6.443   2.361 -2.9632  2.4455 -1.1152
 5703TIP3   OH217051   6.943   1.314   5.093 -0.3147  0.3375  0.3777
 5703TIP3    H117052   6.934   1.405   5.120  1.4890  0.3644  1.0356
 5703TIP3    H217053   7.014   1.280   5.147  1.0014 -0.6532 -1.8253
 5704TIP3   OH217054   3.319   0.554   2.212  0.3723  0.2691  0.2765
 5704TIP3    H117055   3.309   0.462   2.188 -2.8545  0.9156 -1.3992
 5704TIP3    H217056   3.290   0.558   2.304 -0.9070 -0.2239 -0.0814
 5705TIP3   OH217057   5.762   7.175   2.946  0.1293  0.2935 -0.0278
 5705TIP3    H117058   5.768   7.079   2.949 -1.0276  0.1844 -0.5496
 5705TIP3    H217059   5.845   7.205   2.984  0.2996 -0.9072  0.6306
 5706TIP3   OH217060   4.205   4.138   5.352  0.5686  0.0988 -0.1227
 5706TIP3    H117061   4.219   4.154   5.446  1.1078 -2.5409  0.3066
 5706TIP3    H217062   4.110   4.139   5.341  0.5007  2.8090 -0.0933
 5707TIP3   OH217063   1.140   3.215   6.227 -0.5110  0.0139  0.4872
 5707TIP3    H117064   1.176   3.262   6.302  1.1502 -0.2403 -0.1054
 5707TIP3    H217065   1.046   3.233   6.230  0.0537  4.5286 -0.4008
 5708TIP3   OH217066   3.574   1.636   1.862  0.3753  0.2324  0.4103
 5708TIP3    H117067   3.510   1.648   1.932  0.3874 -1.5998  0.7814
 5708TIP3    H217068   3.654   1.608   1.908  0.0899 -2.0404 -0.3521
 5709TIP3   OH217069   7.294   6.090   2.752 -0.0354  0.3562 -0.3909
 5709TIP3    H117070   7.354   6.127   2.816  0.2348 -1.1254  0.2627
 5709TIP3    H217071   7.267   6.006   2.790  0.5573 -0.8380 -2.4305
 5710TIP3   OH217072   8.265   3.275   5.678  0.0319  0.2872 -0.0899
 5710TIP3    H117073   8.243   3.354   5.727 -1.5908 -0.1920 -0.0048
 5710TIP3    H217074   8.242   3.296   5.587 -4.5491 -1.3976  0.4411
 5711TIP3   OH217075   4.889   2.898   5.164 -0.1621 -0.0979 -0.1086
 5711TIP3    H117076   4.832   2.975   5.161 -0.3003 -0.1932  0.0367
 5711TIP3    H217077   4.847   2.834   5.106 -1.2606 -0.8733  1.4609
 5712TIP3   OH217078   1.811   2.862   4.558  0.6382  0.3507  0.1028
 5712TIP3    H117079   1.842   2.951   4.570  1.2645 -0.0133  1.2918
 5712TIP3    H217080   1.740   2.852   4.621  0.1818  0.1724 -0.4226
 5713TIP3   OH217081   7.866   1.125   5.288 -0.5129 -0.4153  0.2272
 5713TIP3    H117082   7.906   1.152   5.205  0.1701 -0.2683  0.5935
 5713TIP3    H217083   7.797   1.065   5.263 -0.4171 -0.2486 -0.4617
 5714TIP3   OH217084   3.871   6.069   2.894 -0.3895  0.0292 -0.3421
 5714TIP3    H117085   3.853   6.098   2.983  3.8130 -3.0378  1.8826
 5714TIP3    H217086   3.795   6.016   2.870 -1.6513  0.9873  1.3405
 5715TIP3   OH217087   5.378   4.800   0.492  0.6561 -0.1775 -0.0676
 5715TIP3    H117088   5.295   4.786   0.447  0.2504  0.1246  0.5686
 5715TIP3    H217089   5.353   4.832   0.579  1.4417  0.2366  0.0176
 5716TIP3   OH217090   6.720   3.835   3.426 -0.3933 -0.3881 -0.3267
 5716TIP3    H117091   6.752   3.919   3.458  0.4510 -1.3283  1.4225
 5716TIP3    H217092   6.627   3.835   3.447 -0.2323 -0.1972  0.4260
 5717TIP3   OH217093   2.363   5.604   4.137  0.1684  0.1581  0.1329
 5717TIP3    H117094   2.313   5.540   4.086  0.4304  0.0130  0.0535
 5717TIP3    H217095   2.374   5.678   4.077 -0.3834  0.3964  0.3238
 5718TIP3   OH217096   3.545   5.369   3.095  0.3868 -0.1624 -0.2955
 5718TIP3    H117097   3.548   5.424   3.017  3.0523  0.2622 -0.0085
 5718TIP3    H217098   3.515   5.427   3.164  1.8755  0.6423 -0.2717
 5719TIP3   OH217099   5.453   5.662   6.067 -0.9161  0.5105 -0.2887
 5719TIP3    H117100   5.501   5.585   6.097  3.3529  3.5692  1.8334
 5719TIP3    H217101   5.505   5.695   5.993 -1.7521  2.1278 -0.1859
 5720TIP3   OH217102   2.207   6.128   3.198 -1.0616 -0.1274  0.1725
 5720TIP3    H117103   2.147   6.157   3.129 -1.5825  0.5079  0.8824
 5720TIP3    H217104   2.253   6.207   3.225  0.4029 -0.6569 -0.6132
 5721TIP3   OH217105   3.355   3.821   5.288 -0.0900  0.0309 -0.2042
 5721TIP3    H117106   3.271   3.809   5.244 -0.3219 -0.5237  0.3828
 5721TIP3    H217107   3.341   3.894   5.348  0.2257  0.7863 -1.0279
 5722TIP3   OH217108   6.031   5.054   5.322  0.0207  0.4056  0.2072
 5722TIP3    H117109   5.969   5.097   5.382 -0.3819 -1.2110  1.0134
 5722TIP3    H217110   6.040   4.965   5.357  1.4074  0.0507 -0.9556
 5723TIP3   OH217111   3.240   1.469   5.386  0.6037  0.1412 -0.1585
 5723TIP3    H117112   3.228   1.446   5.478  0.0656 -2.4140 -0.7948
 5723TIP3    H217113   3.156   1.506   5.360  0.4109 -0.0721  0.1447
 5724TIP3   OH217114   4.068   6.874   1.349  0.2217  0.4196 -0.0412
 5724TIP3    H117115   4.082   6.779   1.343  0.0406  0.3317  0.8318
 5724TIP3    H217116   4.080   6.905   1.260 -0.5299 -0.5357 -0.4980
 5725TIP3   OH217117   3.032   2.685   4.510  0.2995  0.0697 -0.2976
 5725TIP3    H117118   3.007   2.773   4.483 -2.5025  0.1940  2.1799
 5725TIP3    H217119   2.998   2.628   4.441 -2.5502  0.6804  0.4713
 5726TIP3   OH217120   6.612   5.816   5.097 -0.0373 -0.0088  0.5126
 5726TIP3    H117121   6.564   5.742   5.135 -0.4040  0.3693  0.7847
 5726TIP3    H217122   6.694   5.819   5.145  0.9210 -1.5584 -0.8993
 5727TIP3   OH217123   7.063   5.472   5.258 -0.5858 -0.2784  0.2265
 5727TIP3    H117124   7.150   5.499   5.230 -0.2215 -1.0654  0.5950
 5727TIP3    H217125   7.050   5.386   5.219 -1.2611 -0.1079  0.0553
 5728TIP3   OH217126   2.530   6.372   5.917  0.5316 -0.0656 -0.3813
 5728TIP3    H117127   2.506   6.302   5.856  0.1613 -0.7984  0.5672
 5728TIP3    H217128   2.446   6.410   5.944  0.6315 -0.3213  0.3124
 5729TIP3   OH217129   3.962   1.739   0.081  1.0000  0.0780 -0.2570
 5729TIP3    H117130   3.936   1.828   0.103  1.8993  0.2025  0.3126
 5729TIP3    H217131   3.913   1.684   0.143 -0.3789  0.0767 -1.2938
 5730TIP3   OH217132   5.291   0.588   1.831 -0.4938 -0.0940  0.5273
 5730TIP3    H117133   5.347   0.514   1.856 -0.6095 -0.1620  0.5935
 5730TIP3    H217134   5.317   0.659   1.890  0.0280  0.1008  0.0587
 5731TIP3   OH217135   5.953   0.887   4.471  0.4137 -0.0578 -0.0877
 5731TIP3    H117136   6.018   0.885   4.400  0.2655  0.4151 -0.2379
 5731TIP3    H217137   5.956   0.799   4.508  2.5450  0.4619  1.1792
 5732TIP3   OH217138   7.213   4.308   2.496  0.5648 -0.3211  0.5034
 5732TIP3    H117139   7.127   4.307   2.454 -0.0809  0.4455  1.7699
 5732TIP3    H217140   7.234   4.401   2.506  0.7438 -0.4820  1.7701
 5733TIP3   OH217141   4.180   7.211   4.545  0.4339 -0.1839  0.8022
 5733TIP3    H117142   4.172   7.276   4.475  0.0435  0.9434  1.8682
 5733TIP3    H217143   4.171   7.127   4.500 -2.4084  0.5487 -0.2132
 5734TIP3   OH217144   4.846   4.773   0.839 -0.2426 -0.0365 -0.0151
 5734TIP3    H117145   4.786   4.704   0.868  0.3035 -0.8245 -0.7133
 5734TIP3    H217146   4.933   4.737   0.853  0.0782  0.9680  0.6708
 5735TIP3   OH217147   2.937   0.384   2.512 -0.1414  0.6549 -0.0279
 5735TIP3    H117148   2.923   0.387   2.417  0.8016  1.2834 -0.1540
 5735TIP3    H217149   2.865   0.435   2.548 -0.6483  0.2079 -0.3791
 5736TIP3   OH217150   3.762   2.928   2.024  0.1726 -0.5525  0.1205
 5736TIP3    H117151   3.769   2.902   1.932 -1.4178 -4.5200  0.8808
 5736TIP3    H217152   3.842   2.896   2.064  1.1328  1.6965  0.1052
 5737TIP3   OH217153   3.996   4.038   4.406  0.4047 -0.0776  0.0622
 5737TIP3    H117154   4.016   4.040   4.312 -0.0495 -0.0429 -0.0323
 5737TIP3    H217155   3.934   4.110   4.419 -2.0253 -2.0041 -0.1865
 5738TIP3   OH217156   0.610   3.638   4.510 -0.4721  0.8445 -0.2010
 5738TIP3    H117157   0.639   3.556   4.550 -1.3752 -0.2136 -1.6582
 5738TIP3    H217158   0.672   3.703   4.543 -0.0281 -0.3130  1.3720
 5739TIP3   OH217159   0.944   4.746   3.675  0.2151 -0.1643  0.1932
 5739TIP3    H117160   0.885   4.819   3.691 -1.9319 -2.0075  1.2107
 5739TIP3    H217161   0.902   4.696   3.605  1.1070 -1.0151  0.2407
 5740TIP3   OH217162   5.508   0.339   5.923  0.2179 -0.5837 -0.4299
 5740TIP3    H117163   5.504   0.398   5.998 -0.3637 -0.6322 -0.4238
 5740TIP3    H217164   5.556   0.263   5.955 -1.1754 -1.1765  0.2890
 5741TIP3   OH217165   0.817   4.966   0.998  0.4417  0.2963 -0.0924
 5741TIP3    H117166   0.746   5.021   1.030  0.4785  0.6347 -0.5988
 5741TIP3    H217167   0.827   4.898   1.066 -0.3439  0.2597 -0.0094
 5742TIP3   OH217168   6.799   1.674   5.745  0.1900 -0.2721  0.2422
 5742TIP3    H117169   6.890   1.655   5.723  1.2170  3.1210  0.9987
 5742TIP3    H217170   6.752   1.662   5.662  1.6803 -0.2248 -0.6487
 5743TIP3   OH217171   3.241   0.294   5.684  0.3486  0.4862  0.0532
 5743TIP3    H117172   3.198   0.375   5.658 -0.6409 -0.2869 -0.7979
 5743TIP3    H217173   3.297   0.271   5.610  0.7088  0.4389  0.3351
 5744TIP3   OH217174   2.953   1.609   3.723  0.2807 -0.1088  0.4356
 5744TIP3    H117175   2.941   1.542   3.790  1.0188 -1.6508 -0.8837
 5744TIP3    H217176   2.992   1.562   3.650 -1.1343  1.3359 -1.3562
 5745TIP3   OH217177   5.536   4.707   3.106  0.2610 -0.4153 -0.2886
 5745TIP3    H117178   5.444   4.683   3.112 -0.0444  0.9289  1.2871
 5745TIP3    H217179   5.584   4.625   3.112 -0.8071 -1.0060  0.3305
 5746TIP3   OH217180   0.271   3.851   2.689 -0.1373  0.2467 -0.5528
 5746TIP3    H117181   0.180   3.836   2.716 -0.6770 -0.5073 -2.6122
 5746TIP3    H217182   0.296   3.772   2.642  2.3301 -0.4132  1.6521
 5747TIP3   OH217183   7.107   2.954   4.043  0.3270  0.5164 -0.1133
 5747TIP3    H117184   7.113   3.020   3.974 -0.4260  0.6665 -0.0409
 5747TIP3    H217185   7.084   2.873   3.996  2.9522 -0.1465 -0.4399
 5748TIP3   OH217186   7.223   1.719   5.848 -0.1863 -0.3732 -0.1897
 5748TIP3    H117187   7.236   1.790   5.786  0.1754 -0.7667 -0.5674
 5748TIP3    H217188   7.215   1.762   5.933  0.9996  0.0554 -0.2858
 5749TIP3   OH217189   1.678   0.589   5.952  0.3886  0.1300  0.4238
 5749TIP3    H117190   1.695   0.605   5.859  1.9953  1.3286  0.8774
 5749TIP3    H217191   1.648   0.674   5.986  1.5934  0.2183  1.3446
 5750TIP3   OH217192   6.267   0.119   3.891 -0.1185 -0.2140 -0.0755
 5750TIP3    H117193   6.344   0.149   3.843 -0.7871 -1.0032 -1.7392
 5750TIP3    H217194   6.194   0.164   3.849 -0.6624 -0.3126  0.7500
 5751TIP3   OH217195   0.342   2.022   1.793 -0.1945 -0.1146 -0.0955
 5751TIP3    H117196   0.414   2.066   1.838  0.5732 -0.5482 -0.8658
 5751TIP3    H217197   0.289   1.985   1.863  1.2809 -1.2581  0.4831
 5752TIP3   OH217198   3.294   6.339   5.524  0.1388  0.0095  0.0170
 5752TIP3    H117199   3.287   6.376   5.436 -0.0314  0.7688  0.3442
 5752TIP3    H217200   3.227   6.385   5.575 -0.7701 -1.4496  0.2108
 5753TIP3   OH217201   6.830   3.148   3.763  0.6068  0.0260 -0.3074
 5753TIP3    H117202   6.747   3.105   3.784  0.8674 -0.1393  0.4341
 5753TIP3    H217203   6.852   3.116   3.675 -0.0243 -0.0540 -0.4438
 5754TIP3   OH217204   2.259   3.651   4.655 -0.2092 -0.1044  0.1238
 5754TIP3    H117205   2.243   3.574   4.601 -1.1284 -0.0087  0.2424
 5754TIP3    H217206   2.353   3.669   4.645 -0.0386 -1.0733 -0.1117
 5755TIP3   OH217207   2.398   7.303   0.327  0.6516 -0.7398 -0.3692
 5755TIP3    H117208   2.429   7.252   0.252 -0.0302 -1.8425  0.0787
 5755TIP3    H217209   2.303   7.308   0.314  0.6653  0.1303 -0.2137
 5756TIP3   OH217210   2.191   6.427   4.053  0.0255 -0.1998  0.2847
 5756TIP3    H117211   2.151   6.486   3.990 -0.0697  1.5917  1.9279
 5756TIP3    H217212   2.127   6.421   4.124  0.9313 -0.6294  1.0852
 5757TIP3   OH217213   1.066   4.532   2.703 -0.2205 -0.1453  0.2747
 5757TIP3    H117214   1.043   4.484   2.623  1.4809 -1.4713  0.5127
 5757TIP3    H217215   0.985   4.531   2.755 -1.2096  0.3117 -1.1984
 5758TIP3   OH217216   5.470   5.253   4.171 -0.4477 -0.6567  0.8336
 5758TIP3    H117217   5.500   5.342   4.153 -1.3542 -0.5313 -0.1487
 5758TIP3    H217218   5.450   5.253   4.265  0.4614 -0.1202  1.0413
 5759TIP3   OH217219   7.019   4.684   6.045  0.1131  0.3554  0.2903
 5759TIP3    H117220   6.972   4.759   6.081  0.6618  2.2390 -2.5507
 5759TIP3    H217221   6.957   4.612   6.049 -1.2049  1.4884  1.1732
 5760TIP3   OH217222   4.466   5.042   3.724 -0.0716 -0.7449  0.6281
 5760TIP3    H117223   4.521   5.002   3.657  1.0481  1.2709  0.2526
 5760TIP3    H217224   4.398   5.089   3.675 -1.4031 -2.1370  1.0565
 5761TIP3   OH217225   4.306   4.191   2.718  0.1600 -0.1609 -0.0954
 5761TIP3    H117226   4.381   4.238   2.755  0.8132 -0.9104 -0.4396
 5761TIP3    H217227   4.281   4.243   2.641  0.5968 -0.1326 -0.2183
 5762TIP3   OH217228   0.403   4.997   4.900 -0.1899 -0.1567  0.1884
 5762TIP3    H117229   0.450   5.060   4.845 -0.0454  1.3071  1.8761
 5762TIP3    H217230   0.362   4.937   4.838  2.9129 -0.8366 -1.4279
 5763TIP3   OH217231   6.401   7.257   4.543 -0.4488  0.5627 -0.2692
 5763TIP3    H117232   6.482   7.218   4.576  0.1203  1.3065 -0.7472
 5763TIP3    H217233   6.331   7.213   4.592  0.2040 -0.5147 -0.2810
 5764TIP3   OH217234   4.146   0.875   4.480 -0.2195  0.0605  0.0993
 5764TIP3    H117235   4.134   0.808   4.547  1.5173 -1.4662 -1.0236
 5764TIP3    H217236   4.240   0.873   4.460 -0.1937  2.4603 -0.3943
 5765TIP3   OH217237   0.491   2.371   0.823 -0.3283 -0.2672 -0.2036
 5765TIP3    H117238   0.406   2.415   0.810  0.5827  1.1132 -1.9811
 5765TIP3    H217239   0.531   2.372   0.736  1.5402 -0.8664  0.6156
 5766TIP3   OH217240   1.892   0.617   1.964 -1.1313  0.1617 -0.4813
 5766TIP3    H117241   1.855   0.555   1.900  2.4035 -0.6614 -1.9299
 5766TIP3    H217242   1.928   0.688   1.911 -1.8059  1.6424  0.9534
 5767TIP3   OH217243   3.652   5.622   5.623 -0.1834 -0.3913  0.4119
 5767TIP3    H117244   3.662   5.590   5.533  2.6506 -1.1914  0.9253
 5767TIP3    H217245   3.727   5.680   5.636 -1.9014  1.7169  1.5200
 5768TIP3   OH217246   5.984   6.340   5.664  0.1406 -0.7368 -0.4423
 5768TIP3    H117247   5.965   6.262   5.611 -0.5028 -1.0171  0.1887
 5768TIP3    H217248   6.070   6.369   5.633  0.0110 -1.2038 -1.2681
 5769TIP3   OH217249   5.688   0.418   4.544 -0.8511  0.4041  0.3075
 5769TIP3    H117250   5.622   0.366   4.590  0.2260  0.4598  1.9954
 5769TIP3    H217251   5.683   0.387   4.453 -0.6892 -2.2351  1.0972
 5770TIP3   OH217252   4.477   1.781   2.621 -0.3711 -0.2055  0.3650
 5770TIP3    H117253   4.568   1.791   2.594  0.1628 -1.8552  1.3750
 5770TIP3    H217254   4.465   1.686   2.630 -1.3021  0.0703  3.0508
 5771TIP3   OH217255   7.936   5.110   3.590 -0.5281 -0.0742  0.0152
 5771TIP3    H117256   7.917   5.074   3.504  0.9413  0.5312 -0.6173
 5771TIP3    H217257   8.032   5.117   3.592 -0.5683  0.4950  1.4622
 5772TIP3   OH217258   0.129   3.927   1.563  0.0632  0.1494  0.2146
 5772TIP3    H117259   0.061   3.922   1.631 -0.3234 -0.1622 -0.1888
 5772TIP3    H217260   0.093   3.877   1.490  0.1799  1.0647 -0.4790
 5773TIP3   OH217261   3.585   2.307   1.004 -0.3053  0.2503  0.3212
 5773TIP3    H117262   3.604   2.296   0.911 -0.0120  0.0919  0.3973
 5773TIP3    H217263   3.598   2.220   1.041 -1.6227  0.0315  0.3101
 5774TIP3   OH217264   8.213   7.681   5.391 -0.1740  0.7256 -0.4689
 5774TIP3    H117265   8.157   7.606   5.412 -0.2857  1.1006  0.6232
 5774TIP3    H217266   8.159   7.757   5.411  0.4828  1.0902 -0.0573
 5775TIP3   OH217267   7.993   3.752   3.110  0.0231 -0.0105 -0.3121
 5775TIP3    H117268   7.948   3.674   3.080 -0.6872 -0.0388  0.7607
 5775TIP3    H217269   8.010   3.736   3.203  0.0530  1.0116 -0.1230
 5776TIP3   OH217270   4.851   6.401   1.003  0.0163  0.0753  0.0299
 5776TIP3    H117271   4.944   6.381   0.988  0.0999 -0.1517  0.7798
 5776TIP3    H217272   4.815   6.416   0.916  0.6040 -0.5357 -0.3297
 5777TIP3   OH217273   4.996   1.782   0.260  0.0319 -0.0366  0.3590
 5777TIP3    H117274   4.987   1.710   0.323  0.7561 -0.7502 -0.3299
 5777TIP3    H217275   4.906   1.811   0.244 -0.1688  0.2293  1.7709
 5778TIP3   OH217276   2.551   1.486   4.358 -0.4342  0.1395  0.4919
 5778TIP3    H117277   2.471   1.468   4.309  0.3585 -1.1604 -0.3665
 5778TIP3    H217278   2.559   1.413   4.419  0.1535  0.1938  0.4899
 5779TIP3   OH217279   5.701   6.540   4.770  0.3796  0.0895  0.1150
 5779TIP3    H117280   5.620   6.562   4.816 -0.4594  1.5409 -1.9117
 5779TIP3    H217281   5.741   6.624   4.748  1.6911 -0.5825 -0.2076
 5780TIP3   OH217282   6.285   0.372   2.654 -0.7804  0.0431  0.1835
 5780TIP3    H117283   6.235   0.454   2.651 -1.1798 -0.0940  2.1096
 5780TIP3    H217284   6.229   0.309   2.609 -1.2951  0.4232  0.2807
 5781TIP3   OH217285   1.704   0.582   5.671  0.4547 -0.2744 -0.0134
 5781TIP3    H117286   1.747   0.506   5.710  0.4592 -0.0596  0.4070
 5781TIP3    H217287   1.722   0.575   5.577  0.8352 -0.5475  0.0803
 5782TIP3   OH217288   1.045   0.887   4.150  0.5489  0.2782 -0.4214
 5782TIP3    H117289   1.063   0.949   4.080  0.7805 -0.1595 -0.7516
 5782TIP3    H217290   0.950   0.892   4.163  0.7640  2.1257  0.8884
 5783TIP3   OH217291   3.551   3.675   5.393  0.1138  0.7749 -0.3374
 5783TIP3    H117292   3.473   3.708   5.348  1.1243  3.6400 -0.1906
 5783TIP3    H217293   3.618   3.740   5.375  1.9495 -0.5907  1.1942
 5784TIP3   OH217294   1.812   5.140   6.570  0.8321  0.2105  0.2287
 5784TIP3    H117295   1.897   5.182   6.558  0.6312  1.0947  1.6449
 5784TIP3    H217296   1.750   5.212   6.576  0.4245 -0.2539  2.3818
 5785TIP3   OH217297   7.628   7.292   0.963  1.0936 -0.4266  0.6650
 5785TIP3    H117298   7.613   7.300   0.869  0.1515  1.9290  0.9428
 5785TIP3    H217299   7.569   7.221   0.990 -0.8940  0.8556 -0.0982
 5786TIP3   OH217300   1.616   0.619   6.757 -0.2468 -0.0729 -0.1509
 5786TIP3    H117301   1.672   0.587   6.686 -0.2198  1.4076 -0.8386
 5786TIP3    H217302   1.676   0.664   6.816 -0.5660  0.6939 -0.3986
 5787TIP3   OH217303   5.724   3.415   2.167  0.0566 -0.3493 -0.0440
 5787TIP3    H117304   5.757   3.342   2.115 -0.7804 -0.8796  0.1445
 5787TIP3    H217305   5.783   3.488   2.147 -0.1919 -0.5652 -1.6638
 5788TIP3   OH217306   5.495   0.518   2.388  0.0032  0.1705  0.0946
 5788TIP3    H117307   5.426   0.452   2.397  1.9488 -2.0069  0.1486
 5788TIP3    H217308   5.530   0.527   2.477  0.4887  0.4153 -0.1175
 5789TIP3   OH217309   0.597   7.785   3.314 -0.0977 -0.1631  0.3931
 5789TIP3    H117310   0.534   7.732   3.265 -2.6880  1.6018  1.6036
 5789TIP3    H217311   0.564   7.784   3.404  2.2781 -0.0631  1.3440
 5790TIP3   OH217312   6.580   7.572   0.758  0.0913  0.5834  0.2402
 5790TIP3    H117313   6.551   7.600   0.845 -1.2701 -1.4714  0.5459
 5790TIP3    H217314   6.558   7.478   0.755  1.3304  0.2973 -1.8338
 5791TIP3   OH217315   1.422   5.853   2.742 -0.1891  0.1881 -0.5726
 5791TIP3    H117316   1.398   5.920   2.677 -0.2582 -0.1163 -0.8672
 5791TIP3    H217317   1.494   5.805   2.701 -1.4412 -1.2077 -1.2611
 5792TIP3   OH217318   1.111   3.005   1.318  0.2343  0.5189 -0.2710
 5792TIP3    H117319   1.175   2.934   1.310 -0.4522 -0.0585 -0.7794
 5792TIP3    H217320   1.055   2.977   1.391 -1.1930 -0.4279 -1.6575
 5793TIP3   OH217321   6.955   0.643   5.677  0.2521  0.7215  0.5715
 5793TIP3    H117322   6.980   0.571   5.620 -1.9303  0.0544  0.3550
 5793TIP3    H217323   7.015   0.637   5.752  0.5561 -0.8753  0.2298
 5794TIP3   OH217324   1.201   5.463   6.007  0.4153 -0.0817  0.0097
 5794TIP3    H117325   1.198   5.385   5.952  1.5936 -1.1575  1.3734
 5794TIP3    H217326   1.158   5.531   5.956 -0.2037 -1.4985 -1.4275
 5795TIP3   OH217327   1.543   6.001   6.399 -0.1141 -0.2962 -0.0001
 5795TIP3    H117328   1.519   6.043   6.482  1.2608 -0.6254  0.6003
 5795TIP3    H217329   1.570   6.073   6.343 -0.5352 -0.1197  0.0197
 5796TIP3   OH217330   5.190   0.665   6.200 -0.2595  0.0700  0.0770
 5796TIP3    H117331   5.164   0.576   6.176 -2.5641  0.7685 -0.2748
 5796TIP3    H217332   5.221   0.658   6.290  0.7312 -1.2510 -0.3314
 5797TIP3   OH217333   3.769   4.901   4.769  0.0574  0.7274 -0.3059
 5797TIP3    H117334   3.863   4.894   4.749 -0.2593 -0.6453 -1.5248
 5797TIP3    H217335   3.764   4.896   4.864  1.1754 -0.2826 -0.2749
 5798TIP3   OH217336   7.756   7.019   3.915  0.1288 -0.3894  0.0619
 5798TIP3    H117337   7.754   6.955   3.845  0.8863  0.2253 -0.5426
 5798TIP3    H217338   7.797   7.097   3.876 -0.4386  0.3369  0.8719
 5799TIP3   OH217339   5.067   5.619   2.358  0.3582  0.3413  0.0502
 5799TIP3    H117340   5.132   5.664   2.304  0.8366  1.2205  1.3022
 5799TIP3    H217341   5.085   5.649   2.447 -0.4968 -0.9477  0.6930
 5800TIP3   OH217342   5.778   2.829   5.255  0.0440  0.2417 -0.3532
 5800TIP3    H117343   5.712   2.891   5.287 -1.0252 -0.7505 -0.5529
 5800TIP3    H217344   5.730   2.747   5.242  1.2307 -0.3955 -0.9422
 5801TIP3   OH217345   7.432   4.106   6.303  0.7059  0.3343 -0.7279
 5801TIP3    H117346   7.495   4.155   6.356 -0.6902  1.8419 -0.3745
 5801TIP3    H217347   7.446   4.015   6.327  1.5926  0.7944  0.5916
 5802TIP3   OH217348   6.986   6.702   0.382 -0.7275 -0.0106  0.0241
 5802TIP3    H117349   6.942   6.712   0.297 -1.0302  0.0695  0.1866
 5802TIP3    H217350   6.943   6.768   0.438 -0.3193  0.1469  0.1534
 5803TIP3   OH217351   6.263   4.524   0.628 -0.3654 -0.6396 -0.0727
 5803TIP3    H117352   6.272   4.615   0.599 -0.3538  0.1281  2.1796
 5803TIP3    H217353   6.353   4.492   0.634 -0.2624 -0.1889  0.9067
 5804TIP3   OH217354   3.219   3.768   2.051  0.4375 -0.2191  0.0377
 5804TIP3    H117355   3.222   3.704   2.122 -0.4405 -0.4097 -0.0848
 5804TIP3    H217356   3.292   3.827   2.069 -0.1929  0.1742  1.5280
 5805TIP3   OH217357   6.708   2.759   4.168  0.5588  0.1970  0.3417
 5805TIP3    H117358   6.629   2.808   4.191  0.1751 -0.8088  1.2388
 5805TIP3    H217359   6.737   2.798   4.085 -1.6097 -0.2368 -0.6918
 5806TIP3   OH217360   3.156   2.543   0.094  0.0929 -0.0466  0.2398
 5806TIP3    H117361   3.074   2.592   0.093 -0.2083 -0.5442  0.1347
 5806TIP3    H217362   3.221   2.605   0.127 -0.2751  0.4299  0.0792
 5807TIP3   OH217363   3.556   2.389   4.640  0.0461 -0.6662  0.3257
 5807TIP3    H117364   3.529   2.315   4.694  2.1322 -1.9427 -0.2408
 5807TIP3    H217365   3.549   2.465   4.698  0.3974 -1.7101  1.8137
 5808TIP3   OH217366   4.219   5.282   1.061 -0.0184 -0.0721  0.3505
 5808TIP3    H117367   4.224   5.346   0.991 -0.2444 -2.1498 -1.6969
 5808TIP3    H217368   4.304   5.238   1.060 -0.1621 -0.3849  1.1382
 5809TIP3   OH217369   0.432   5.591   5.038 -0.0104 -0.2910  0.3435
 5809TIP3    H117370   0.340   5.568   5.022  0.3014 -0.3232 -1.7312
 5809TIP3    H217371   0.470   5.512   5.076 -0.2933 -1.2168 -1.2079
 5810TIP3   OH217372   5.762   7.597   4.336  0.5215  0.1879  0.3881
 5810TIP3    H117373   5.829   7.661   4.311  0.5126  0.6139  1.4061
 5810TIP3    H217374   5.679   7.640   4.317  0.5261  0.0761  0.1147
 5811TIP3   OH217375   0.702   3.986   2.878 -0.0235 -0.1561  0.0626
 5811TIP3    H117376   0.611   3.956   2.884  0.3275 -1.3933 -0.4664
 5811TIP3    H217377   0.748   3.935   2.945  0.5734 -0.7560 -0.7892
 5812TIP3   OH217378   8.140   4.701   5.433  0.0049  0.7056 -0.1161
 5812TIP3    H117379   8.183   4.785   5.449  0.8363  0.2045  0.3472
 5812TIP3    H217380   8.145   4.655   5.517  1.1458 -0.5053 -0.8092
 5813TIP3   OH217381   6.716   0.311   1.383  0.0585 -0.0572 -0.2893
 5813TIP3    H117382   6.688   0.236   1.331  0.1529  0.9118 -1.7974
 5813TIP3    H217383   6.700   0.285   1.474  0.7035 -2.1345 -0.7253
 5814TIP3   OH217384   7.642   5.270   4.104 -0.1681 -0.0422 -0.9014
 5814TIP3    H117385   7.691   5.329   4.047  0.6880  1.6445  1.4231
 5814TIP3    H217386   7.666   5.297   4.192  0.1161 -3.7820  0.3410
 5815TIP3   OH217387   0.338   3.972   4.579 -0.2599  0.0821 -0.2965
 5815TIP3    H117388   0.370   3.945   4.493 -0.8304  1.3743 -0.9445
 5815TIP3    H217389   0.390   4.050   4.601  0.4299 -0.6915  0.8983
 5816TIP3   OH217390   3.317   5.586   4.078 -0.5699  1.1690 -0.1411
 5816TIP3    H117391   3.389   5.565   4.138 -2.4106  1.3079  2.2746
 5816TIP3    H217392   3.323   5.680   4.066  1.3559  0.8352 -2.3913
 5817TIP3   OH217393   6.162   5.608   3.009 -0.0284  0.4698 -0.5762
 5817TIP3    H117394   6.158   5.700   3.035  2.6828  0.5496 -0.1883
 5817TIP3    H217395   6.139   5.608   2.916  2.5836  1.9878 -1.3260
 5818TIP3   OH217396   3.397   4.798   3.123 -0.6052  0.1649  0.6726
 5818TIP3    H117397   3.424   4.706   3.113  1.4453  0.7735  0.2705
 5818TIP3    H217398   3.310   4.801   3.085 -1.1236 -1.8017  1.5416
 5819TIP3   OH217399   0.701   3.254   0.167 -0.4174 -0.0438  0.7227
 5819TIP3    H117400   0.642   3.202   0.114 -0.9761  0.0321  1.2613
 5819TIP3    H217401   0.659   3.340   0.173  0.0022  0.1667  0.6762
 5820TIP3   OH217402   5.407   7.751   0.767 -1.1209 -0.3842 -0.5795
 5820TIP3    H117403   5.349   7.809   0.816  0.4831 -0.5051  1.5956
 5820TIP3    H217404   5.380   7.663   0.792  0.5048 -0.4386  1.2211
 5821TIP3   OH217405   7.208   3.458   6.644  0.2450  0.6197 -0.4156
 5821TIP3    H117406   7.130   3.466   6.588  1.1585 -0.3111 -1.9130
 5821TIP3    H217407   7.280   3.449   6.582  1.0709 -3.0318  0.8220
 5822TIP3   OH217408   5.952   3.476   2.395 -0.0323  0.4745 -0.7481
 5822TIP3    H117409   6.044   3.458   2.376  0.1663  1.5018 -0.8301
 5822TIP3    H217410   5.932   3.556   2.347  0.5526  3.3257  3.2649
 5823TIP3   OH217411   1.770   0.903   2.875  0.3619  0.2306 -0.1781
 5823TIP3    H117412   1.700   0.968   2.886 -0.4575 -0.3639 -1.5649
 5823TIP3    H217413   1.847   0.956   2.850 -0.4600  0.6718 -1.9488
 5824TIP3   OH217414   5.331   5.920   6.172  0.0011 -0.3895 -0.0306
 5824TIP3    H117415   5.282   5.899   6.251  1.3677 -0.9684  0.6966
 5824TIP3    H217416   5.423   5.917   6.199  0.4772 -0.0191 -1.5033
 5825TIP3   OH217417   5.172   2.363   1.225  0.3842 -0.0429 -0.5454
 5825TIP3    H117418   5.085   2.397   1.206 -0.3908 -0.1351  2.3031
 5825TIP3    H217419   5.170   2.273   1.193 -0.3807  0.1292 -0.9946
 5826TIP3   OH217420   0.904   7.145   6.309  0.1600  0.4086 -0.5215
 5826TIP3    H117421   0.984   7.153   6.362  1.4201 -1.2837 -2.0518
 5826TIP3    H217422   0.833   7.170   6.369  1.1760 -3.6453  2.8887
 5827TIP3   OH217423   6.132   2.427   2.666  0.2471 -0.9998  0.5640
 5827TIP3    H117424   6.039   2.409   2.654 -0.2854  1.6447  0.0187
 5827TIP3    H217425   6.138   2.474   2.749  0.8632  0.0317 -0.0320
 5828TIP3   OH217426   6.676   5.843   3.819 -0.3001 -0.1339  0.0834
 5828TIP3    H117427   6.647   5.877   3.735 -1.2308 -1.2485 -0.0566
 5828TIP3    H217428   6.666   5.748   3.813  1.6393 -0.4377  0.6960
 5829TIP3   OH217429   4.098   1.220   0.057  0.4090 -0.3993  0.3456
 5829TIP3    H117430   4.125   1.196  -0.032 -0.9341 -1.2453  0.1298
 5829TIP3    H217431   4.114   1.314   0.062  1.7677 -0.5725 -0.3164
 5830TIP3   OH217432   7.527   0.235   3.554 -0.0202 -0.1376  0.0916
 5830TIP3    H117433   7.472   0.312   3.572  0.0199  0.1495 -0.9163
 5830TIP3    H217434   7.571   0.257   3.471  1.0663 -0.6672  0.5214
 5831TIP3   OH217435   7.234   2.473   2.298 -0.3379  0.0060  0.1510
 5831TIP3    H117436   7.148   2.450   2.332  0.7889 -3.8825  0.8098
 5831TIP3    H217437   7.241   2.424   2.216  1.4987 -0.3161  0.4725
 5832TIP3   OH217438   3.721   7.829   3.176 -0.3724  0.0636  0.6752
 5832TIP3    H117439   3.810   7.843   3.143  0.0336 -0.1807  1.6276
 5832TIP3    H217440   3.704   7.736   3.160 -1.3156  0.5518 -1.4861
 5833TIP3   OH217441   4.880   7.526   4.949  0.3410  0.2321 -0.2258
 5833TIP3    H117442   4.962   7.501   4.993 -1.2916 -3.6669  1.0374
 5833TIP3    H217443   4.906   7.540   4.858  2.5339 -0.2974  0.2446
 5834TIP3   OH217444   0.019   1.792   2.092 -0.1278 -0.0530 -0.6132
 5834TIP3    H117445  -0.034   1.849   2.037 -0.3102  0.3688 -0.0147
 5834TIP3    H217446   0.107   1.830   2.090 -0.7984  1.8797  1.9142
 5835TIP3   OH217447   0.755   5.424   2.701 -0.1810 -0.2971  0.1286
 5835TIP3    H117448   0.846   5.451   2.711 -0.1955 -0.1765 -0.0632
 5835TIP3    H217449   0.721   5.423   2.791  0.1884 -0.9955  0.2700
 5836TIP3   OH217450   4.248   4.213   5.095 -0.0899  0.1365  0.0165
 5836TIP3    H117451   4.236   4.183   5.185 -1.2790  2.8037  0.8773
 5836TIP3    H217452   4.343   4.212   5.082  0.0465 -1.3297  0.8775
 5837TIP3   OH217453   4.793   6.755   4.235 -0.2757 -0.1293 -0.2177
 5837TIP3    H117454   4.865   6.722   4.181 -0.2847  0.1807 -0.4273
 5837TIP3    H217455   4.719   6.762   4.175 -0.4815 -0.4483 -0.0021
 5838TIP3   OH217456   6.937   6.463   4.862  0.4331  0.3307  0.2609
 5838TIP3    H117457   7.008   6.413   4.902 -0.0410 -1.7582 -1.2884
 5838TIP3    H217458   6.926   6.424   4.775 -0.6051  2.6156 -0.7161
 5839TIP3   OH217459   1.708   2.824   1.221  0.0517 -0.4004  0.4106
 5839TIP3    H117460   1.774   2.868   1.275  0.0513  0.4790 -0.2885
 5839TIP3    H217461   1.742   2.735   1.210  1.0095 -0.0335  0.2714
 5840TIP3   OH217462   7.782   6.877   6.042 -0.1082  0.1680 -0.0871
 5840TIP3    H117463   7.820   6.894   5.956  1.4191 -0.7816  0.3624
 5840TIP3    H217464   7.857   6.865   6.100 -1.0611  1.9184  1.6716
 5841TIP3   OH217465   2.887   7.719   1.541  0.2145 -0.1706 -0.3195
 5841TIP3    H117466   2.812   7.739   1.485  0.1594 -0.4007 -0.3312
 5841TIP3    H217467   2.943   7.796   1.535 -0.9018  0.8050  1.1788
 5842TIP3   OH217468   7.119   4.609   2.827 -0.3119  1.2092 -0.7211
 5842TIP3    H117469   7.098   4.566   2.910 -2.3570  0.6006 -1.4822
 5842TIP3    H217470   7.186   4.554   2.787 -1.7340 -0.4363 -0.9463
 5843TIP3   OH217471   3.598   0.348   6.784  0.1756  0.3906 -0.8225
 5843TIP3    H117472   3.522   0.290   6.794 -0.4757  1.1838 -1.0131
 5843TIP3    H217473   3.603   0.365   6.690 -0.1090  1.2284 -0.7001
 5844TIP3   OH217474   7.117   0.846   1.439 -0.5606 -0.2028 -0.0404
 5844TIP3    H117475   7.180   0.916   1.456 -0.4163 -0.0992 -0.9168
 5844TIP3    H217476   7.162   0.766   1.463  1.2611 -0.5038 -3.6714
 5845TIP3   OH217477   0.470   0.919   6.653  0.1897  0.6944  0.0735
 5845TIP3    H117478   0.492   0.852   6.718 -1.1622  0.3333  0.1952
 5845TIP3    H217479   0.550   0.971   6.643  1.7907 -1.7800 -1.0627
 5846TIP3   OH217480   0.106   2.484   3.294  0.4241 -0.0538 -0.4919
 5846TIP3    H117481   0.047   2.473   3.368  1.6930 -0.8056  0.4426
 5846TIP3    H217482   0.123   2.578   3.291  0.3414 -0.0139  0.1516
 5847TIP3   OH217483   2.202   0.758   1.571 -0.3733 -0.3280 -0.3445
 5847TIP3    H117484   2.186   0.831   1.630  2.0448  0.7297 -0.8422
 5847TIP3    H217485   2.166   0.787   1.487  0.8337  0.5020 -0.6137
 5848TIP3   OH217486   7.299   1.963   2.097  0.2084 -0.0751  0.4472
 5848TIP3    H117487   7.246   1.915   2.033 -0.5061  1.4491 -0.1723
 5848TIP3    H217488   7.285   1.917   2.180 -1.8750  0.0870  0.2394
 5849TIP3   OH217489   6.871   6.955   5.493 -0.3900  0.1752 -0.1919
 5849TIP3    H117490   6.852   7.029   5.435 -0.4431 -0.5233 -1.0945
 5849TIP3    H217491   6.900   6.885   5.434  0.8246 -0.1547  0.7541
 5850TIP3   OH217492   3.220   1.606   0.153 -0.0472 -0.5906 -0.1584
 5850TIP3    H117493   3.304   1.623   0.196  0.0828 -0.4653 -0.4580
 5850TIP3    H217494   3.198   1.689   0.111 -0.5280 -0.5001  0.2668
 5851TIP3   OH217495   1.374   2.431   0.571 -0.5119  0.3416 -0.0185
 5851TIP3    H117496   1.354   2.502   0.510 -0.5706  0.3961  0.0633
 5851TIP3    H217497   1.391   2.355   0.515  1.8379  0.9481 -0.2288
 5852TIP3   OH217498   3.419   1.740   6.326  0.2566 -0.0528 -0.5095
 5852TIP3    H117499   3.515   1.738   6.329  0.3019 -3.1126 -0.7859
 5852TIP3    H217500   3.397   1.731   6.233 -0.2359 -1.3610 -0.2907
 5853TIP3   OH217501   1.060   5.009   3.707  0.6095  0.5532  0.3396
 5853TIP3    H117502   0.982   5.000   3.763 -0.6306 -2.0976 -1.5735
 5853TIP3    H217503   1.024   5.025   3.619  2.1306 -1.3361 -0.6988
 5854TIP3   OH217504   2.355   7.165   2.201  0.1336 -0.7960  0.2362
 5854TIP3    H117505   2.355   7.170   2.106  0.1599  1.7687  0.3112
 5854TIP3    H217506   2.262   7.164   2.225 -0.0231  2.4933  0.2112
 5855TIP3   OH217507   3.082   6.802   5.994  0.2713  0.6003 -0.0769
 5855TIP3    H117508   3.043   6.715   5.984  1.0027  0.1796  0.6226
 5855TIP3    H217509   3.107   6.828   5.906 -1.4683  0.8339 -0.5304
 5856TIP3   OH217510   2.937   4.995   1.644 -0.6405  0.1061  0.0411
 5856TIP3    H117511   2.960   4.931   1.577 -0.4048 -0.6192  0.8018
 5856TIP3    H217512   2.977   4.962   1.724  2.0713  2.6983 -0.0397
 5857TIP3   OH217513   6.952   6.443   1.233 -0.7284 -0.1111 -0.0657
 5857TIP3    H117514   6.992   6.529   1.228 -2.0956  0.5143 -0.6429
 5857TIP3    H217515   6.872   6.450   1.181 -0.4957 -1.9413 -0.7603
 5858TIP3   OH217516   1.440   3.261   4.227  0.1576 -0.5043 -0.9288
 5858TIP3    H117517   1.518   3.240   4.174 -0.1876  0.5994 -1.9275
 5858TIP3    H217518   1.439   3.357   4.230 -0.8447 -0.5206 -0.4211
 5859TIP3   OH217519   2.774   6.011   1.096  0.0844 -0.0845  0.4754
 5859TIP3    H117520   2.741   6.018   1.006  1.4770 -0.1763 -0.0798
 5859TIP3    H217521   2.717   6.068   1.147 -0.3193  0.5071 -0.5929
 5860TIP3   OH217522   6.143   0.765   6.334 -0.3529 -0.2160 -0.3063
 5860TIP3    H117523   6.102   0.680   6.348 -1.6657  0.2253 -1.2439
 5860TIP3    H217524   6.156   0.770   6.239  0.2809  0.3772 -0.1980
 5861TIP3   OH217525   5.633   5.266   3.898 -0.2232  0.0456  0.2863
 5861TIP3    H117526   5.652   5.235   3.809 -1.8726  1.7594 -0.7485
 5861TIP3    H217527   5.597   5.190   3.942  0.0672 -0.6927 -0.7066
 5862TIP3   OH217528   7.889   4.786   0.617  0.1927  0.5851 -0.2006
 5862TIP3    H117529   7.964   4.757   0.668 -1.1042  2.0364  2.7632
 5862TIP3    H217530   7.875   4.877   0.644 -3.5337 -0.0772  0.7101
 5863TIP3   OH217531   0.626   4.411   0.080 -0.2277 -1.0758 -0.0613
 5863TIP3    H117532   0.540   4.441   0.109 -0.0880  0.5482 -1.2346
 5863TIP3    H217533   0.678   4.406   0.160 -0.4422  1.3109  0.2990
 5864TIP3   OH217534   7.028   7.341   3.089 -0.0373  0.5528 -0.1576
 5864TIP3    H117535   7.006   7.425   3.050  1.3200  1.9571  1.8548
 5864TIP3    H217536   6.945   7.294   3.093 -1.3011  2.6724  0.5733
 5865TIP3   OH217537   2.915   4.612   0.377  0.0624  0.3121  0.1373
 5865TIP3    H117538   2.917   4.669   0.300 -2.2514  0.0400 -0.2091
 5865TIP3    H217539   2.912   4.673   0.451  0.3094  0.5999 -0.0879
 5866TIP3   OH217540   4.572   5.978   0.542  0.2116  0.0188 -0.4390
 5866TIP3    H117541   4.600   5.989   0.451 -0.0001  0.0964 -0.4930
 5866TIP3    H217542   4.651   5.945   0.586  0.7594  1.3864 -0.3437
 5867TIP3   OH217543   5.369   1.320   6.714 -0.1335 -0.2786 -0.6745
 5867TIP3    H117544   5.307   1.277   6.774  0.8853  1.8491  2.0952
 5867TIP3    H217545   5.406   1.248   6.662 -0.7704 -2.3402  1.5696
 5868TIP3   OH217546   0.496   7.554   0.274 -0.0105 -0.4011 -0.1828
 5868TIP3    H117547   0.541   7.471   0.287 -0.7197 -0.7164  0.2641
 5868TIP3    H217548   0.484   7.590   0.362 -0.7397 -0.3807 -0.2834
 5869TIP3   OH217549   3.983   0.357   1.260 -0.4234 -0.3413  0.4871
 5869TIP3    H117550   3.977   0.440   1.307 -0.0853 -0.0899  0.0927
 5869TIP3    H217551   4.008   0.382   1.171 -0.0478 -0.8910  0.4372
 5870TIP3   OH217552   3.749   5.923   1.765  0.7741  0.0461  0.5093
 5870TIP3    H117553   3.687   5.978   1.812 -1.1192  0.7520 -2.5426
 5870TIP3    H217554   3.717   5.834   1.778 -0.7848  0.3731 -0.7325
 5871TIP3   OH217555   1.986   1.232   5.161 -0.2000 -0.7936  0.0404
 5871TIP3    H117556   2.019   1.244   5.071  0.8347  1.1129  0.6221
 5871TIP3    H217557   2.060   1.192   5.207 -0.1994 -0.3879  0.3892
 5872TIP3   OH217558   8.014   0.652   1.825 -0.2929  0.8553 -0.0805
 5872TIP3    H117559   8.046   0.669   1.737 -2.2754  2.1514 -0.6299
 5872TIP3    H217560   7.919   0.662   1.818 -0.5324  0.6495  2.1364
 5873TIP3   OH217561   7.182   3.378   3.126 -0.1273 -0.0888 -0.1329
 5873TIP3    H117562   7.264   3.340   3.161  0.9805  1.1152 -1.3111
 5873TIP3    H217563   7.113   3.326   3.167  1.2343 -1.5413  0.4604
 5874TIP3   OH217564   5.089   6.205   1.869  0.1239 -0.1663  0.1110
 5874TIP3    H117565   5.105   6.279   1.810 -1.5684 -0.9099 -1.3593
 5874TIP3    H217566   5.093   6.128   1.813 -0.9236 -0.9551  1.0691
 5875TIP3   OH217567   6.527   3.045   1.486  0.7426  0.2487  0.6351
 5875TIP3    H117568   6.494   3.063   1.398  0.7139  0.0819  0.6111
 5875TIP3    H217569   6.489   3.115   1.540  0.8401  0.4078  0.4985
 5876TIP3   OH217570   6.993   0.874   4.979 -0.4459  0.6489  0.3181
 5876TIP3    H117571   6.943   0.882   5.060  1.1102  0.6616  1.3383
 5876TIP3    H217572   7.047   0.795   4.991 -0.5137  0.3921 -0.9002
 5877TIP3   OH217573   6.136   1.674   3.024  0.3904  0.0571 -0.2288
 5877TIP3    H117574   6.087   1.600   3.061  1.3474 -1.1131 -1.1818
 5877TIP3    H217575   6.071   1.722   2.973 -0.3114  0.0398  0.6344
 5878TIP3   OH217576   0.543   0.446   1.909 -0.3155  0.4018 -0.2452
 5878TIP3    H117577   0.482   0.377   1.933 -0.4544  0.1613 -1.2574
 5878TIP3    H217578   0.629   0.410   1.928 -0.4009  0.0573 -0.5084
 5879TIP3   OH217579   3.302   4.611   0.023  0.0694  0.2547 -0.9842
 5879TIP3    H117580   3.370   4.545   0.032 -0.7753 -0.4117  1.0761
 5879TIP3    H217581   3.298   4.654   0.108 -0.8662  1.5188 -1.6264
 5880TIP3   OH217582   3.109   3.668   4.706 -0.2135  0.4026  0.0938
 5880TIP3    H117583   3.098   3.703   4.617 -0.5594  2.1661  0.8089
 5880TIP3    H217584   3.020   3.660   4.740 -0.4527 -3.7128 -0.8781
 5881TIP3   OH217585   1.359   0.330   5.347 -0.1954  1.0391 -0.1773
 5881TIP3    H117586   1.346   0.275   5.424  0.0085 -0.3398 -1.0932
 5881TIP3    H217587   1.277   0.324   5.298  0.7649 -0.8392 -1.7136
 5882TIP3   OH217588   6.000   0.205   3.769  0.7516 -0.4293 -0.7170
 5882TIP3    H117589   5.938   0.246   3.709 -1.4955 -0.9328  1.1173
 5882TIP3    H217590   6.036   0.131   3.720 -1.5794 -1.2768 -1.2729
 5883TIP3   OH217591   0.100   0.859   5.611  0.0937  0.4456 -0.2342
 5883TIP3    H117592   0.037   0.925   5.640 -1.1422 -0.1811 -1.3599
 5883TIP3    H217593   0.108   0.799   5.686 -0.8272  0.4264 -0.1322
 5884TIP3   OH217594   8.267   2.689   3.651  0.1235  0.2735  0.0469
 5884TIP3    H117595   8.209   2.690   3.728 -1.0430  1.7722 -0.7849
 5884TIP3    H217596   8.355   2.702   3.687  0.0148 -2.0678  1.3456
 5885TIP3   OH217597   2.810   6.022   1.478  0.4632  0.1928 -0.5712
 5885TIP3    H117598   2.863   6.013   1.557 -1.1827 -0.9133  0.4906
 5885TIP3    H217599   2.814   6.116   1.457  0.4803  0.6340  1.2039
 5886TIP3   OH217600   2.738   5.675   4.422  0.6819 -0.1161 -0.1731
 5886TIP3    H117601   2.720   5.598   4.368 -0.5713 -0.4580  0.6927
 5886TIP3    H217602   2.833   5.676   4.433  0.7235 -1.4544 -0.3158
 5887TIP3   OH217603   3.202   2.850   6.031 -0.2582  0.5203 -0.1204
 5887TIP3    H117604   3.259   2.884   5.963  0.4561  2.1555  1.2360
 5887TIP3    H217605   3.257   2.791   6.082  0.0750  1.5717  0.7768
 5888TIP3   OH217606   4.212   6.282   2.993 -0.4140  0.2738  0.1894
 5888TIP3    H117607   4.251   6.196   2.978 -2.5158 -0.3891 -2.2086
 5888TIP3    H217608   4.195   6.317   2.905 -0.0857  2.9567  1.1022
 5889TIP3   OH217609   3.294   3.350   3.173  0.3701  0.9741 -0.4479
 5889TIP3    H117610   3.204   3.382   3.167  0.4426  1.3927  0.5693
 5889TIP3    H217611   3.288   3.274   3.231  0.4393  0.0528 -1.6220
 5890TIP3   OH217612   5.098   4.229   2.485  0.8388  0.1104 -0.0973
 5890TIP3    H117613   5.130   4.285   2.414 -0.8808  0.9702 -0.2435
 5890TIP3    H217614   5.052   4.158   2.440  1.8907 -0.7434  0.1280
 5891TIP3   OH217615   2.624   4.886   5.467  0.2124 -0.0954 -0.0318
 5891TIP3    H117616   2.581   4.959   5.422 -1.3885 -0.1744  1.2595
 5891TIP3    H217617   2.597   4.896   5.559  1.6407 -1.1449  0.5384
 5892TIP3   OH217618   7.917   1.834   3.091  0.3559 -0.1229  0.3781
 5892TIP3    H117619   8.004   1.851   3.128  0.0024  1.5382  0.5012
 5892TIP3    H217620   7.866   1.801   3.165  0.4666  0.3503  0.6677
 5893TIP3   OH217621   8.182   1.565   5.157  0.5917  0.5587  0.3334
 5893TIP3    H117622   8.192   1.656   5.185  1.7887  0.1603  1.3161
 5893TIP3    H217623   8.208   1.514   5.233 -2.1727 -0.6670  0.5698
 5894TIP3   OH217624   8.027   2.784   5.338 -0.6115  0.2365  0.0085
 5894TIP3    H117625   8.108   2.734   5.325  0.1922  0.8685  2.1612
 5894TIP3    H217626   7.962   2.717   5.358 -1.1073 -0.4351 -3.2435
 5895TIP3   OH217627   0.831   3.666   3.703  0.3985 -0.3980  0.3135
 5895TIP3    H117628   0.882   3.586   3.688 -0.8019 -1.4375  1.5105
 5895TIP3    H217629   0.890   3.737   3.678  0.9466 -1.6664 -2.3593
 5896TIP3   OH217630   3.617   5.948   0.523  0.8124 -0.5335  1.1689
 5896TIP3    H117631   3.552   5.937   0.592  0.9805 -0.0552  1.4003
 5896TIP3    H217632   3.701   5.942   0.568  0.9265 -0.5741  0.9502
 5897TIP3   OH217633   7.397   6.562   3.733  0.1901  0.3674 -0.1246
 5897TIP3    H117634   7.490   6.544   3.746 -0.0246 -1.1372 -0.5079
 5897TIP3    H217635   7.366   6.491   3.677 -1.3914  0.3131  0.7595
 5898TIP3   OH217636   2.458   7.300   2.674 -0.8418  0.0549 -0.1065
 5898TIP3    H117637   2.386   7.308   2.611 -0.5161  1.2288 -0.3661
 5898TIP3    H217638   2.445   7.374   2.734 -1.5341 -1.4149  1.6532
 5899TIP3   OH217639   0.623   6.892   3.715  0.4006  0.6279 -0.0696
 5899TIP3    H117640   0.626   6.836   3.793 -0.6875  1.8183  0.8935
 5899TIP3    H217641   0.530   6.893   3.690  0.6555  0.7086 -1.0466
 5900TIP3   OH217642   6.104   3.225   2.782  0.2304  0.5364  0.1061
 5900TIP3    H117643   6.123   3.317   2.763 -1.0924  0.6066 -1.0823
 5900TIP3    H217644   6.040   3.200   2.716  0.6710 -1.3009  0.3159
 5901TIP3   OH217645   5.435   3.863   0.757  0.3130 -0.3534  0.0232
 5901TIP3    H117646   5.466   3.830   0.841  1.2330 -1.4924 -0.7363
 5901TIP3    H217647   5.482   3.812   0.692 -2.2532 -1.3495 -1.2113
 5902TIP3   OH217648   1.103   5.668   0.321  0.0296  0.2660  0.1277
 5902TIP3    H117649   1.019   5.701   0.354  0.6776 -0.3346  2.6065
 5902TIP3    H217650   1.082   5.633   0.234 -1.9933  1.3163  0.1216
 5903TIP3   OH217651   5.080   4.396   0.990  0.2804 -0.2868 -0.0229
 5903TIP3    H117652   5.134   4.319   0.972  0.8967  0.1385 -0.0229
 5903TIP3    H217653   4.996   4.361   1.021  1.4878 -0.9544  2.7311
 5904TIP3   OH217654   7.868   5.587   2.313  0.3191 -0.3397  0.0637
 5904TIP3    H117655   7.873   5.595   2.218 -1.1493 -1.4153 -0.1451
 5904TIP3    H217656   7.842   5.495   2.328 -0.2385  0.0143  1.4463
 5905TIP3   OH217657   2.082   4.950   6.108  0.1971 -0.0287  0.0539
 5905TIP3    H117658   2.075   5.026   6.165 -0.0528 -0.1823  0.2326
 5905TIP3    H217659   1.993   4.915   6.105 -0.5972  1.9159 -3.1345
 5906TIP3   OH217660   1.118   6.422   5.132 -0.2625 -0.0767 -0.0980
 5906TIP3    H117661   1.154   6.419   5.221  2.7712  0.3514 -1.1651
 5906TIP3    H217662   1.088   6.333   5.115 -0.8516 -0.1662  1.3291
 5907TIP3   OH217663   5.286   7.153   1.976  0.0921 -0.3904 -0.6856
 5907TIP3    H117664   5.198   7.117   1.967 -0.1582 -0.0160  0.1934
 5907TIP3    H217665   5.274   7.236   2.022  0.9665 -0.6307  0.0089
 5908TIP3   OH217666   7.015   6.274   2.856  0.0406 -0.3303  0.6555
 5908TIP3    H117667   6.958   6.307   2.787  0.8048  0.3259  0.3373
 5908TIP3    H217668   7.048   6.191   2.822  0.4175 -0.0081  0.2271
 5909TIP3   OH217669   7.912   1.639   0.887 -0.2691 -0.1863  0.3111
 5909TIP3    H117670   7.868   1.661   0.805 -0.2215  0.9390  0.5716
 5909TIP3    H217671   7.840   1.630   0.950 -0.3721 -1.8122  0.0190
 5910TIP3   OH217672   0.457   3.361   0.657  0.2453 -0.3202 -0.4535
 5910TIP3    H117673   0.400   3.364   0.581 -0.1318 -1.8140 -0.2454
 5910TIP3    H217674   0.414   3.302   0.718  1.9416 -1.4326 -0.2549
 5911TIP3   OH217675   1.027   5.139   6.252 -0.0389 -0.0804 -0.1462
 5911TIP3    H117676   0.976   5.217   6.231 -0.6768 -0.9994 -2.4005
 5911TIP3    H217677   1.073   5.119   6.171  1.6684 -0.9375  0.9872
 5912TIP3   OH217678   5.556   0.254   4.250 -0.1782  0.5747 -0.4031
 5912TIP3    H117679   5.620   0.323   4.239 -1.3301  1.4463 -1.9664
 5912TIP3    H217680   5.480   0.297   4.290 -0.1836 -0.2223  0.4836
 5913TIP3   OH217681   4.018   4.579   2.220 -0.3653  0.8787 -0.0818
 5913TIP3    H117682   3.947   4.642   2.205  0.2247  1.1765 -1.8742
 5913TIP3    H217683   4.066   4.614   2.295 -2.4646  0.3097  1.6089
 5914TIP3   OH217684   0.993   6.180   5.098 -1.1028  0.0116  0.3821
 5914TIP3    H117685   1.061   6.148   5.039 -0.8061 -0.2308  0.8511
 5914TIP3    H217686   0.948   6.101   5.128 -0.6560  0.0574  1.1939
 5915TIP3   OH217687   4.762   0.577   3.312 -0.3523  0.0352  0.3524
 5915TIP3    H117688   4.724   0.491   3.295  0.0816 -0.0259 -0.3894
 5915TIP3    H217689   4.843   0.558   3.359  0.6713 -0.1175 -1.3791
 5916TIP3   OH217690   7.649   1.302   3.871  0.4074 -0.1394 -0.1851
 5916TIP3    H117691   7.572   1.325   3.819 -0.2856 -0.9331  0.4549
 5916TIP3    H217692   7.688   1.387   3.894  1.3398  0.2186 -2.8157
 5917TIP3   OH217693   6.908   7.430   0.853 -0.4394 -0.8787 -0.0969
 5917TIP3    H117694   6.865   7.431   0.938  1.2695 -2.0314  0.8464
 5917TIP3    H217695   6.875   7.351   0.810 -0.9750 -0.5255 -0.3527
 5918TIP3   OH217696   8.092   5.958   4.878 -0.2844  0.0345  0.4175
 5918TIP3    H117697   8.030   6.016   4.834  0.7980  0.4740 -0.6030
 5918TIP3    H217698   8.157   5.937   4.811  0.2297 -1.0760  1.2181
 5919TIP3   OH217699   4.573   2.860   0.056  0.0086 -0.2270 -0.1984
 5919TIP3    H117700   4.584   2.773   0.018 -1.7382  0.0997 -1.5868
 5919TIP3    H217701   4.485   2.859   0.093 -0.2935  1.1407 -0.8114
 5920TIP3   OH217702   5.585   2.355   1.051  0.4555 -0.2917 -0.3395
 5920TIP3    H117703   5.640   2.352   1.129 -0.6538  0.6963  0.5093
 5920TIP3    H217704   5.541   2.440   1.055  0.5463 -0.1137 -2.1725
 5921TIP3   OH217705   3.002   3.102   2.163 -0.8046 -0.2869 -0.6870
 5921TIP3    H117706   2.909   3.101   2.142 -0.7470 -2.0104 -1.0354
 5921TIP3    H217707   3.014   3.026   2.220  0.5279 -0.5941 -1.3337
 5922TIP3   OH217708   7.458   7.042   5.034 -0.3029 -0.2212 -0.0123
 5922TIP3    H117709   7.480   7.121   4.986 -3.6031  0.0486 -1.3682
 5922TIP3    H217710   7.419   7.074   5.116  1.7868 -0.6213  1.2206
 5923TIP3   OH217711   1.989   0.567   6.733  0.1757  0.1534  0.2164
 5923TIP3    H117712   2.062   0.591   6.676  0.0794  1.1381  0.4928
 5923TIP3    H217713   1.945   0.495   6.687  0.3847  0.6054 -0.7134
 5924TIP3   OH217714   6.424   5.961   0.464  0.8940 -0.1993  0.0128
 5924TIP3    H117715   6.334   5.973   0.436  0.7268 -1.0009  0.2001
 5924TIP3    H217716   6.445   6.041   0.513  0.3746  0.0979 -0.2487
 5925TIP3   OH217717   3.817   7.380   6.288  0.4511  0.2373  0.0298
 5925TIP3    H117718   3.793   7.287   6.295 -0.8936  0.5937  0.5214
 5925TIP3    H217719   3.888   7.382   6.225 -0.6564 -0.9600 -1.3274
 5926TIP3   OH217720   2.824   6.282   4.287  0.1575 -0.2800  0.5839
 5926TIP3    H117721   2.746   6.246   4.244 -0.0992 -1.3003  1.8348
 5926TIP3    H217722   2.897   6.250   4.234 -0.2111 -0.0261 -0.1045
 5927TIP3   OH217723   7.758   6.196   3.052 -0.2736 -0.1615  0.0982
 5927TIP3    H117724   7.832   6.191   2.991 -0.0974 -2.3441  0.4188
 5927TIP3    H217725   7.771   6.278   3.099  2.2565 -0.7228  0.5040
 5928TIP3   OH217726   5.576   1.079   0.370 -0.2218  0.1947 -0.0890
 5928TIP3    H117727   5.671   1.066   0.372 -0.2160  0.1911 -0.3820
 5928TIP3    H217728   5.542   1.016   0.434  0.0523  0.8868  0.7519
 5929TIP3   OH217729   5.682   5.706   4.078 -0.6256 -0.6516 -0.0971
 5929TIP3    H117730   5.733   5.655   4.016 -0.8954 -0.4039 -0.5270
 5929TIP3    H217731   5.746   5.766   4.118 -0.4984 -0.6458 -0.3102
 5930TIP3   OH217732   6.591   3.410   1.255  0.5015 -0.3154 -0.5737
 5930TIP3    H117733   6.680   3.399   1.219  0.9883 -3.1729  1.1820
 5930TIP3    H217734   6.552   3.323   1.247 -0.6333 -0.1830  2.3926
 5931TIP3   OH217735   7.895   0.069   2.613 -0.4234  0.0455 -0.4276
 5931TIP3    H117736   7.879   0.074   2.519 -0.1926 -1.2780 -0.5488
 5931TIP3    H217737   7.814   0.102   2.652 -0.5231  0.5956 -1.0854
 5932TIP3   OH217738   1.131   2.771   0.700 -0.4833  0.3646 -0.2836
 5932TIP3    H117739   1.174   2.824   0.632 -0.7664  0.5396 -0.3281
 5932TIP3    H217740   1.203   2.736   0.752 -0.3073  1.0858 -0.0355
 5933TIP3   OH217741   6.379   5.586   4.207 -0.4137  0.0572  0.4682
 5933TIP3    H117742   6.412   5.502   4.240  0.2409  0.8546  1.9207
 5933TIP3    H217743   6.367   5.571   4.113  1.2033 -1.1991  0.4055
 5934TIP3   OH217744   3.714   1.604   3.386  0.3496 -0.1379 -0.0145
 5934TIP3    H117745   3.798   1.586   3.344  1.4154 -0.7260  2.1938
 5934TIP3    H217746   3.710   1.542   3.459 -1.7204  0.3130  0.3247
 5935TIP3   OH217747   1.449   7.219   6.531  0.0129 -0.0941 -0.3280
 5935TIP3    H117748   1.374   7.263   6.493 -1.8462 -0.9227  2.0940
 5935TIP3    H217749   1.484   7.281   6.595  0.6846 -0.1671 -0.6126
 5936TIP3   OH217750   4.045   2.040   1.171  0.3987 -0.0040  0.5240
 5936TIP3    H117751   3.968   1.984   1.182  0.7023 -0.5342  0.0247
 5936TIP3    H217752   4.050   2.090   1.252  0.4477 -1.1209  1.2355
 5937TIP3   OH217753   5.473   6.611   6.206  0.2302 -0.5493  0.2977
 5937TIP3    H117754   5.560   6.598   6.245  1.1782 -0.4919 -1.6701
 5937TIP3    H217755   5.436   6.684   6.255  0.6262 -1.5167  2.1768
 5938TIP3   OH217756   2.795   0.854   4.670 -0.3865  0.3075  0.5558
 5938TIP3    H117757   2.747   0.935   4.691 -1.5425 -0.6246  1.6868
 5938TIP3    H217758   2.739   0.809   4.607  0.0888  0.2172  0.1953
 5939TIP3   OH217759   7.002   1.083   3.465  0.4808 -0.0868  0.1292
 5939TIP3    H117760   6.909   1.065   3.477  0.9534 -2.6341  0.4699
 5939TIP3    H217761   7.027   1.131   3.544 -0.5734  0.8236 -0.0737
 5940TIP3   OH217762   2.280   2.281   6.555 -0.2485 -0.1196  0.1050
 5940TIP3    H117763   2.292   2.197   6.600  4.1997  1.4388  2.4897
 5940TIP3    H217764   2.302   2.262   6.463  0.6913 -1.6327  0.5922
 5941TIP3   OH217765   4.765   2.900   2.562 -0.2466 -0.2709 -0.0206
 5941TIP3    H117766   4.686   2.954   2.569 -0.0033  0.6982 -3.1132
 5941TIP3    H217767   4.836   2.963   2.550  0.7631 -1.1821  1.0091
 5942TIP3   OH217768   7.007   2.780   1.084  0.5252  0.1752  0.2802
 5942TIP3    H117769   6.983   2.785   1.177 -0.3862 -0.4567  0.0878
 5942TIP3    H217770   7.004   2.871   1.053  0.8485  0.3914  0.8633
 5943TIP3   OH217771   0.697   4.208   2.467 -0.9660 -0.1951  0.0491
 5943TIP3    H117772   0.607   4.240   2.470 -0.6747  0.6885 -0.1023
 5943TIP3    H217773   0.693   4.126   2.418 -1.9081 -0.9748  1.3958
 5944TIP3   OH217774   2.478   0.775   3.779 -0.7719 -0.5107 -0.4224
 5944TIP3    H117775   2.433   0.824   3.711 -0.7492 -0.4070 -0.3623
 5944TIP3    H217776   2.489   0.837   3.851  0.7928 -0.0925 -0.9963
 5945TIP3   OH217777   5.288   6.013   5.833  0.7184  0.7046 -0.2909
 5945TIP3    H117778   5.211   6.034   5.886  1.1430  0.7923  0.3109
 5945TIP3    H217779   5.362   6.037   5.889  1.2646 -2.4086  0.5007
 5946TIP3   OH217780   5.052   3.940   4.207 -0.5465  0.2270 -0.1861
 5946TIP3    H117781   5.065   3.845   4.199  0.2486  0.4782 -2.4446
 5946TIP3    H217782   5.126   3.970   4.259 -0.0981 -0.2253 -0.5584
 5947TIP3   OH217783   7.414   3.360   4.366 -0.2859 -0.3150  0.0252
 5947TIP3    H117784   7.393   3.452   4.348 -1.4742 -0.6908 -0.6515
 5947TIP3    H217785   7.363   3.311   4.301 -0.1478 -1.4808  0.7714
 5948TIP3   OH217786   5.076   1.174   6.609  0.8152 -0.2396 -0.0825
 5948TIP3    H117787   5.135   1.114   6.655  0.1236 -2.4576 -1.9018
 5948TIP3    H217788   5.098   1.163   6.516 -1.1914  0.2630 -0.6678
 5949TIP3   OH217789   8.088   5.531   5.047 -0.1718 -0.7030  0.3258
 5949TIP3    H117790   8.025   5.565   5.110  0.3678  0.8979  0.0564
 5949TIP3    H217791   8.173   5.560   5.080  0.2929 -1.4748 -0.1500
 5950TIP3   OH217792   2.585   2.135   5.179 -0.8687 -0.7499  0.6047
 5950TIP3    H117793   2.606   2.060   5.235 -0.1738 -0.4753  0.7223
 5950TIP3    H217794   2.638   2.207   5.214 -1.5160 -0.2047  0.4838
 5951TIP3   OH217795   5.312   2.666   3.035  0.6811 -0.0053  0.2434
 5951TIP3    H117796   5.398   2.676   3.077  0.0432  1.8033  1.2599
 5951TIP3    H217797   5.264   2.607   3.094  0.7745  0.1289  0.4583
 5952TIP3   OH217798   7.409   5.704   3.265 -0.5778 -0.0512 -0.4285
 5952TIP3    H117799   7.359   5.628   3.235 -0.5549  0.4976 -1.9586
 5952TIP3    H217800   7.459   5.672   3.341  1.2263 -2.2658 -2.3764
 5953TIP3   OH217801   1.798   6.677   3.059  0.1552  0.0439  0.4930
 5953TIP3    H117802   1.748   6.700   3.137  0.8938 -3.1683  2.1056
 5953TIP3    H217803   1.793   6.581   3.055  3.3753 -0.1936 -1.1719
 5954TIP3   OH217804   3.550   2.711   0.466  0.1754 -0.1027 -0.6755
 5954TIP3    H117805   3.557   2.733   0.559  0.8915 -2.4846 -0.0926
 5954TIP3    H217806   3.640   2.690   0.440 -0.2754 -1.2405 -1.3839
 5955TIP3   OH217807   4.751   6.483   2.012 -0.1602 -0.1071 -0.3822
 5955TIP3    H117808   4.845   6.483   2.027 -0.0792 -0.9059 -0.8032
 5955TIP3    H217809   4.739   6.535   1.932 -0.2523  1.3510  0.5586
 5956TIP3   OH217810   1.536   3.047   0.185 -0.1225 -0.1014  0.3837
 5956TIP3    H117811   1.531   3.138   0.214 -1.5644 -0.1173  0.2409
 5956TIP3    H217812   1.494   3.047   0.099 -0.1971 -0.9120  0.4134
 5957TIP3   OH217813   6.575   2.140   4.248  0.5050 -0.7312 -0.1056
 5957TIP3    H117814   6.560   2.046   4.237 -0.3639 -0.6522  0.3086
 5957TIP3    H217815   6.607   2.149   4.338  1.0918 -0.6807 -0.3160
 5958TIP3   OH217816   7.493   6.468   0.344  0.2759 -0.0627  0.2170
 5958TIP3    H117817   7.409   6.463   0.299  0.2004  1.4041  0.1590
 5958TIP3    H217818   7.486   6.403   0.415 -1.0606  0.3133  0.4573
 5959TIP3   OH217819   3.089   4.607   6.292  0.0901 -0.8725 -0.1123
 5959TIP3    H117820   3.170   4.625   6.244 -0.5977  0.4163 -0.8563
 5959TIP3    H217821   3.026   4.582   6.225 -0.1830 -1.7598  0.4499
 5960TIP3   OH217822   6.780   5.948   0.057  0.6256  0.7912 -0.3814
 5960TIP3    H117823   6.700   5.946   0.109  0.9365  0.1111  0.0843
 5960TIP3    H217824   6.810   5.857   0.055  0.4722  0.7369 -1.9951
 5961TIP3   OH217825   7.398   5.867   1.551 -0.2841  0.4343  0.2522
 5961TIP3    H117826   7.459   5.796   1.573 -0.8887 -0.6280 -1.2998
 5961TIP3    H217827   7.355   5.888   1.633  2.3364  1.4404  1.4854
 5962TIP3   OH217828   5.993   2.049   3.594 -0.3314  0.1196 -0.6294
 5962TIP3    H117829   6.073   1.997   3.597  0.3814  1.2133 -0.2431
 5962TIP3    H217830   6.010   2.117   3.530 -0.3906  1.2334  0.5062
 5963TIP3   OH217831   7.302   7.670   1.828  0.3383 -0.0009 -0.8060
 5963TIP3    H117832   7.302   7.583   1.869 -2.4192  0.8313  1.3343
 5963TIP3    H217833   7.376   7.669   1.767  0.4362 -3.7974 -0.8340
 5964TIP3   OH217834   6.157   3.822   5.205 -0.4148 -0.1634 -0.5539
 5964TIP3    H117835   6.169   3.877   5.128 -0.7724 -1.4806 -1.5997
 5964TIP3    H217836   6.163   3.882   5.280  0.7110  1.0284 -1.5641
 5965TIP3   OH217837   1.883   4.749   0.096 -0.2091 -0.0920 -0.2729
 5965TIP3    H117838   1.875   4.822   0.035 -1.2588 -0.8381 -1.0639
 5965TIP3    H217839   1.976   4.750   0.122  0.0297  0.8664 -1.0778
 5966TIP3   OH217840   4.950   7.352   5.611  0.2142  0.1887  0.1112
 5966TIP3    H117841   5.045   7.344   5.598  0.2150  0.2258  0.0943
 5966TIP3    H217842   4.920   7.403   5.536  0.2576  0.6216  0.3856
 5967TIP3   OH217843   0.705   5.923   4.337  0.0352  0.3259  0.4294
 5967TIP3    H117844   0.749   5.977   4.271  0.5800 -0.4635  0.1393
 5967TIP3    H217845   0.702   5.836   4.299 -1.2588  0.2358  0.7031
 5968TIP3   OH217846   6.294   2.792   3.685 -0.9907  0.2028 -0.6745
 5968TIP3    H117847   6.309   2.885   3.699 -1.6681 -0.1239  3.4600
 5968TIP3    H217848   6.200   2.780   3.699 -0.7583 -1.1950 -0.0680
 5969TIP3   OH217849   0.599   2.095   4.417 -0.3922  0.1018  0.9104
 5969TIP3    H117850   0.653   2.173   4.428 -1.4830  0.9454  0.4704
 5969TIP3    H217851   0.542   2.115   4.343  1.1261 -2.1959 -1.0049
 5970TIP3   OH217852   5.179   2.940   5.537  0.4391  0.2875  0.2654
 5970TIP3    H117853   5.177   2.846   5.555  3.0319 -0.0286 -0.6909
 5970TIP3    H217854   5.091   2.959   5.504 -0.8132 -1.3247  2.3468
 5971TIP3   OH217855   7.007   7.019   0.850  0.1726 -0.1335  0.3220
 5971TIP3    H117856   6.958   7.079   0.793  2.4393  1.7358  0.1997
 5971TIP3    H217857   6.984   7.046   0.939 -1.1027 -1.1332  0.3360
 5972TIP3   OH217858   2.986   2.654   1.216 -0.0290  0.0752 -0.1972
 5972TIP3    H117859   3.016   2.570   1.180  0.5277  0.2975 -0.2681
 5972TIP3    H217860   2.941   2.630   1.297 -0.8569 -0.3833 -0.7853
 5973TIP3   OH217861   3.175   2.572   2.069  0.0763 -0.0711  0.3344
 5973TIP3    H117862   3.234   2.558   2.143 -0.0916  0.8833  0.6533
 5973TIP3    H217863   3.229   2.555   1.991  0.5845  0.1276  0.6392
 5974TIP3   OH217864   5.823   2.583   2.687 -0.0695  0.2506 -0.1645
 5974TIP3    H117865   5.732   2.607   2.709  0.0921 -0.5543  1.5523
 5974TIP3    H217866   5.876   2.630   2.751  0.4858 -1.7985  0.9269
 5975TIP3   OH217867   6.440   6.051   5.244 -0.0653 -0.0234 -0.6753
 5975TIP3    H117868   6.472   6.140   5.230  1.2745 -0.4568 -0.4871
 5975TIP3    H217869   6.384   6.034   5.168  0.0653  0.7933 -0.9685
 5976TIP3   OH217870   5.864   6.020   1.088 -0.0300 -0.2891 -0.3736
 5976TIP3    H117871   5.810   6.047   1.163  0.9261  0.5642  0.0303
 5976TIP3    H217872   5.801   6.009   1.017 -0.8188  0.1024  0.2371
 5977TIP3   OH217873   3.180   4.602   0.669 -0.9739 -0.6181  0.2014
 5977TIP3    H117874   3.127   4.648   0.604 -0.8874 -1.8580 -0.7962
 5977TIP3    H217875   3.117   4.574   0.736 -1.2410 -0.2827  0.0943
 5978TIP3   OH217876   5.534   0.758   6.546 -0.0198  0.9549 -0.1872
 5978TIP3    H117877   5.582   0.678   6.525  1.1318  1.6343 -0.2362
 5978TIP3    H217878   5.511   0.796   6.461  0.9393  1.5413 -0.1964
 5979TIP3   OH217879   5.788   6.453   2.982  0.4289  0.4028  0.2676
 5979TIP3    H117880   5.699   6.419   2.968  0.4424 -0.6043  2.2634
 5979TIP3    H217881   5.840   6.376   3.005  1.4263  1.2141  0.8307
 5980TIP3   OH217882   0.854   4.363   4.944  0.7061  0.2537 -0.5037
 5980TIP3    H117883   0.869   4.299   5.014  0.5308  0.8675  0.0996
 5980TIP3    H217884   0.896   4.324   4.867 -0.0737 -0.9614 -0.3439
 5981TIP3   OH217885   4.520   6.712   5.726 -0.0721 -0.1078 -0.2253
 5981TIP3    H117886   4.587   6.645   5.736  0.8207  0.6898 -0.6757
 5981TIP3    H217887   4.437   6.665   5.730  0.5315 -1.1745 -0.1318
 5982TIP3   OH217888   1.190   6.015   3.312  0.0972  0.0781 -1.1001
 5982TIP3    H117889   1.120   6.069   3.350  1.1754  0.6339  0.1813
 5982TIP3    H217890   1.149   5.931   3.294 -0.7507  0.1533  0.3175
 5983TIP3   OH217891   2.317   0.002   3.048 -0.1272 -0.2202 -0.2484
 5983TIP3    H117892   2.345   0.093   3.043  0.2162 -0.2580  0.8760
 5983TIP3    H217893   2.261  -0.010   2.971 -0.6403  1.0930 -0.0976
 5984TIP3   OH217894   7.702   1.286   4.199  0.6346  0.0572  0.0618
 5984TIP3    H117895   7.661   1.367   4.167  0.9993  0.2764  0.1496
 5984TIP3    H217896   7.658   1.268   4.283  0.3156 -0.0234 -0.1210
 5985TIP3   OH217897   2.367   4.366   5.306 -0.0310 -0.4243 -0.2458
 5985TIP3    H117898   2.382   4.290   5.250  0.9250 -0.5276  0.1212
 5985TIP3    H217899   2.444   4.421   5.291 -0.4661  0.2211 -0.1158
 5986TIP3   OH217900   2.573   6.143   1.254  0.0726  0.4341  0.2757
 5986TIP3    H117901   2.520   6.185   1.186 -0.8914 -0.1435  0.6386
 5986TIP3    H217902   2.548   6.187   1.335  0.9432  0.8697  0.3118
 5987TIP3   OH217903   5.276   1.605   3.310  0.0429  1.0403 -0.5559
 5987TIP3    H117904   5.206   1.540   3.302  0.6558  0.1242  1.0120
 5987TIP3    H217905   5.327   1.595   3.230  0.0127 -0.3047 -0.4392
 5988TIP3   OH217906   8.243   0.639   5.990 -0.2086 -0.3225 -0.5306
 5988TIP3    H117907   8.260   0.733   6.001 -0.4410 -0.3396 -0.0275
 5988TIP3    H217908   8.199   0.613   6.070 -2.3830 -0.3388 -1.6463
 5989TIP3   OH217909   1.854   0.742   3.522 -0.2069 -0.0442  0.0217
 5989TIP3    H117910   1.910   0.745   3.600 -0.1802  0.4253 -0.0138
 5989TIP3    H217911   1.872   0.656   3.483 -1.1653 -0.8334  1.2201
 5990TIP3   OH217912   7.848   2.669   2.523  0.6743 -0.2238 -0.0452
 5990TIP3    H117913   7.888   2.598   2.573  2.5796  0.0941 -1.0099
 5990TIP3    H217914   7.860   2.747   2.577 -0.6679 -0.4665  0.6404
 5991TIP3   OH217915   2.252   5.137   3.380 -0.1645  0.2405 -0.3974
 5991TIP3    H117916   2.315   5.133   3.452  0.8115 -0.9951 -1.2882
 5991TIP3    H217917   2.283   5.210   3.326  0.6043 -0.4478 -0.9037
 5992TIP3   OH217918   5.187   1.824   1.074  0.0759  0.5378  0.1433
 5992TIP3    H117919   5.158   1.848   0.986  2.5184  0.8583 -0.6379
 5992TIP3    H217920   5.227   1.903   1.109 -1.0711  0.4809  1.6991
 5993TIP3   OH217921   5.582   3.141   3.774 -0.4314  0.4516  0.7502
 5993TIP3    H117922   5.553   3.125   3.684  2.1010  0.4202 -0.1546
 5993TIP3    H217923   5.592   3.236   3.779  1.7026  0.3230  0.1253
 5994TIP3   OH217924   3.940   7.578   3.928  0.1107  0.0065 -0.4002
 5994TIP3    H117925   3.876   7.635   3.885  1.2334  1.3770 -0.3583
 5994TIP3    H217926   3.950   7.616   4.016  1.0021 -0.1531 -0.4271
 5995TIP3   OH217927   7.373   7.278   3.543  0.5214 -0.4765 -0.2236
 5995TIP3    H117928   7.373   7.201   3.487  0.3339 -0.0736 -0.7827
 5995TIP3    H217929   7.339   7.246   3.627  0.3994 -0.9920 -0.4641
 5996TIP3   OH217930   5.839   4.412   6.574 -0.1025  0.2638 -0.2384
 5996TIP3    H117931   5.868   4.431   6.664  2.0513 -0.9134 -0.6067
 5996TIP3    H217932   5.846   4.495   6.528 -1.5933  0.9677  0.7413
 5997TIP3   OH217933   6.426   6.354   2.437  0.1565  0.0996 -0.7609
 5997TIP3    H117934   6.374   6.391   2.509 -1.7784 -1.4880 -1.2587
 5997TIP3    H217935   6.441   6.263   2.464  0.2790 -0.2291 -1.9141
 5998TIP3   OH217936   1.298   1.535   1.909 -0.3901 -0.6965  0.4271
 5998TIP3    H117937   1.273   1.449   1.942 -2.4221 -0.1920  0.3341
 5998TIP3    H217938   1.274   1.533   1.816 -0.2049 -0.1349  0.3620
 5999TIP3   OH217939   8.124   2.430   6.741 -0.3077 -0.0968  0.3320
 5999TIP3    H117940   8.162   2.346   6.715 -1.9775 -1.3931  1.7797
 5999TIP3    H217941   8.044   2.437   6.688 -0.2223  0.5437  0.2804
 6000TIP3   OH217942   4.644   1.473   5.015  0.1692  0.0585  0.1600
 6000TIP3    H117943   4.686   1.552   4.982 -0.0777  0.1292  0.0156
 6000TIP3    H217944   4.569   1.459   4.957  0.2141 -0.2834  0.1823
 6001TIP3   OH217945   5.860   3.934   4.724 -0.6991 -0.6082  0.5210
 6001TIP3    H117946   5.898   3.847   4.717  0.4952 -0.0716  0.0862
 6001TIP3    H217947   5.766   3.920   4.713 -0.5266 -1.8402  0.4770
 6002TIP3   OH217948   5.303   1.794   3.516 -0.5338  0.1786  0.4238
 6002TIP3    H117949   5.250   1.729   3.470 -2.3722  1.0232  1.2488
 6002TIP3    H217950   5.385   1.797   3.466 -0.8183 -1.9288 -0.2803
 6003TIP3   OH217951   2.231   4.871   5.268 -0.4283 -0.5892 -0.0339
 6003TIP3    H117952   2.177   4.793   5.283 -1.0755 -0.2421 -0.4703
 6003TIP3    H217953   2.261   4.897   5.355 -1.2197 -0.6208  0.2595
 6004TIP3   OH217954   6.906   4.750   4.760  0.6165  0.4468  0.0512
 6004TIP3    H117955   6.880   4.689   4.691  0.2553  1.2814 -0.5767
 6004TIP3    H217956   6.999   4.768   4.743  0.5638  0.5433 -0.1440
 6005TIP3   OH217957   0.915   3.936   3.778  0.4504 -0.4909  0.3515
 6005TIP3    H117958   0.954   4.016   3.812  2.4886 -1.1707 -0.2979
 6005TIP3    H217959   0.980   3.900   3.718 -0.9601 -1.9731 -0.3702
 6006TIP3   OH217960   3.042   7.211   1.427 -0.5742  0.3726  0.4828
 6006TIP3    H117961   3.075   7.153   1.496 -1.9232  1.3266  2.0183
 6006TIP3    H217962   3.121   7.247   1.387  0.2809 -1.9233 -0.0433
 6007TIP3   OH217963   6.419   0.729   4.849 -0.7966 -0.3434  0.1507
 6007TIP3    H117964   6.344   0.689   4.892 -1.5502 -2.0210 -2.4789
 6007TIP3    H217965   6.465   0.656   4.807  0.1291  1.0583 -1.4434
 6008TIP3   OH217966   3.777   1.209   5.445 -0.2721  0.6154  0.0964
 6008TIP3    H117967   3.860   1.256   5.456 -0.9136  1.8569 -0.1720
 6008TIP3    H217968   3.712   1.263   5.491 -0.9719 -0.2635  0.1815
 6009TIP3   OH217969   0.420   3.725   0.087 -0.0888 -0.9585  0.3137
 6009TIP3    H117970   0.444   3.816   0.073  0.2934 -1.2613 -1.1314
 6009TIP3    H217971   0.375   3.725   0.172  0.5096  0.4426  0.6597
 6010TIP3   OH217972   5.385   5.796   1.052  0.1942  0.6752  0.1197
 6010TIP3    H117973   5.319   5.735   1.085  2.0065 -1.6321 -0.2406
 6010TIP3    H217974   5.456   5.791   1.116  1.1936  0.8872 -0.9324
 6011TIP3   OH217975   0.711   3.980   4.332  0.6123  0.0855  0.2309
 6011TIP3    H117976   0.656   3.927   4.275 -0.8662  0.6358  1.1126
 6011TIP3    H217977   0.666   4.064   4.339  2.1787  0.9899  0.0222
 6012TIP3   OH217978   1.434   6.677   1.210  0.0368 -0.4171  0.1993
 6012TIP3    H117979   1.418   6.584   1.193 -2.2910  0.0136 -0.3844
 6012TIP3    H217980   1.450   6.715   1.124  0.1959 -0.1461  0.3462
 6013TIP3   OH217981   3.500   7.512   1.058  0.0963 -0.0717  0.4725
 6013TIP3    H117982   3.490   7.434   1.113 -2.3853  0.5911  1.0845
 6013TIP3    H217983   3.578   7.556   1.093  1.7950 -2.3834 -0.1371
 6014TIP3   OH217984   8.193   1.854   4.294 -0.1114  0.0670  0.0843
 6014TIP3    H117985   8.169   1.763   4.308  1.4996 -0.2249  1.2393
 6014TIP3    H217986   8.201   1.863   4.199 -1.7951 -0.5471 -0.1438
 6015TIP3   OH217987   3.574   3.359   5.184  0.7381  0.3035  0.0431
 6015TIP3    H117988   3.642   3.292   5.173  2.5632  2.2077 -1.0757
 6015TIP3    H217989   3.592   3.396   5.270  0.4956  0.1806  0.1484
 6016TIP3   OH217990   2.290   7.215   1.912  0.5662  0.2613  0.9864
 6016TIP3    H117991   2.267   7.179   1.827  0.9722  1.3481  0.3851
 6016TIP3    H217992   2.376   7.254   1.899  0.2674  1.1907  1.6544
 6017TIP3   OH217993   4.766   2.707   3.361  0.1657 -0.4274 -0.0347
 6017TIP3    H117994   4.817   2.654   3.423  0.3947  0.3973  0.4936
 6017TIP3    H217995   4.831   2.766   3.322 -0.4905  1.2061  1.2506
 6018TIP3   OH217996   0.941   5.082   2.277  0.0146  0.1262 -0.4022
 6018TIP3    H117997   0.871   5.030   2.316 -0.1382 -0.7570 -1.8038
 6018TIP3    H217998   1.021   5.047   2.315 -0.2128  0.3180  0.2740
 6019TIP3   OH217999   6.170   1.595   6.486  0.4160  0.0244 -0.3755
 6019TIP3    H118000   6.190   1.681   6.522  0.5089  1.0099 -2.6193
 6019TIP3    H218001   6.076   1.598   6.467  0.8463  0.5642 -2.6470
 6020TIP3   OH218002   1.062   7.366  -0.013  0.3722 -0.6213 -0.1778
 6020TIP3    H118003   1.017   7.448  -0.034 -1.6428 -1.9862 -1.5879
 6020TIP3    H218004   1.041   7.349   0.079 -0.1740 -0.1285 -0.2086
 6021TIP3   OH218005   5.438   5.407   5.340 -0.3971  0.0305  0.0416
 6021TIP3    H118006   5.350   5.420   5.306 -0.6132 -3.2089 -0.9445
 6021TIP3    H218007   5.428   5.412   5.435 -1.4825  0.4919 -0.0854
 6022TIP3   OH218008   1.714   1.871   0.514  0.1374 -0.1309  0.0893
 6022TIP3    H118009   1.657   1.859   0.590 -0.2035 -0.5631 -0.2254
 6022TIP3    H218010   1.793   1.821   0.534  1.6727  2.7085  1.7654
 6023TIP3   OH218011   3.645   5.502   6.221 -0.4429  0.0455 -0.2706
 6023TIP3    H118012   3.710   5.494   6.150  0.1833  0.3308  0.2623
 6023TIP3    H218013   3.633   5.596   6.232 -0.4707  0.0021  0.0669
 6024TIP3   OH218014   4.647   4.874   1.371 -0.0947  0.1683  0.2416
 6024TIP3    H118015   4.721   4.932   1.387 -0.7720  1.1725 -0.1831
 6024TIP3    H218016   4.584   4.896   1.440  0.7635 -2.1012  1.8935
 6025TIP3   OH218017   0.375   5.451   2.640  0.9661 -0.2881 -0.5401
 6025TIP3    H118018   0.390   5.361   2.610 -2.0595 -0.5288 -1.7622
 6025TIP3    H218019   0.429   5.505   2.583 -0.1610 -1.1578 -2.5565
 6026TIP3   OH218020   2.561   1.837   6.181 -0.0590 -0.8502  0.2019
 6026TIP3    H118021   2.606   1.780   6.244 -0.3608 -0.6517  0.5939
 6026TIP3    H218022   2.608   1.920   6.186  1.3640 -1.4807 -1.4646
 6027TIP3   OH218023   1.278   7.325   3.841  0.1314 -0.4172 -0.1803
 6027TIP3    H118024   1.330   7.253   3.878  0.0228 -0.6536 -0.4856
 6027TIP3    H218025   1.246   7.291   3.758  1.0301  0.3881 -0.8797
 6028TIP3   OH218026   0.262   4.114   1.279 -0.2815 -0.5943  1.0669
 6028TIP3    H118027   0.264   4.027   1.238  1.6690  0.0201 -0.3311
 6028TIP3    H218028   0.177   4.149   1.255 -0.2154 -1.2797 -0.3400
 6029TIP3   OH218029   5.779   7.376   5.193 -0.0239  0.0388 -0.7113
 6029TIP3    H118030   5.869   7.409   5.196 -0.4212  1.1179 -0.1582
 6029TIP3    H218031   5.787   7.290   5.151  1.4158 -0.4032  0.3596
 6030TIP3   OH218032   1.945   0.998   4.572  0.0656  0.6505  0.1379
 6030TIP3    H118033   1.874   1.038   4.521 -0.8321  0.7636  1.4500
 6030TIP3    H218034   2.017   0.992   4.510 -1.5372 -0.9025 -1.7162
 6031TIP3   OH218035   7.105   1.470   5.883 -0.4562 -0.3013 -0.0903
 6031TIP3    H118036   7.158   1.549   5.884 -1.7524  0.5909  1.1913
 6031TIP3    H218037   7.158   1.404   5.927  0.1180  0.2045 -0.0224
 6032TIP3   OH218038   5.941   7.357   0.307 -0.3431  0.0489  0.1441
 6032TIP3    H118039   5.848   7.351   0.329 -1.0898 -0.3018 -2.7098
 6032TIP3    H218040   5.972   7.433   0.356 -2.6246  1.3579 -0.2908
 6033TIP3   OH218041   8.261   3.571   3.228 -0.6716 -0.3124  0.4933
 6033TIP3    H118042   8.336   3.616   3.268 -1.0073 -0.2190  1.0300
 6033TIP3    H218043   8.185   3.610   3.271 -1.0244 -0.4885  0.0328
 6034TIP3   OH218044   5.024   0.974   0.391  0.3346 -0.1834  0.0754
 6034TIP3    H118045   5.021   0.894   0.443 -0.4013  0.4180  0.9906
 6034TIP3    H218046   4.935   1.009   0.396  0.2664 -0.0253 -1.4869
 6035TIP3   OH218047   7.510   2.377   0.275 -0.0826 -0.0435 -0.5224
 6035TIP3    H118048   7.427   2.358   0.231  0.2959  1.2589 -1.9037
 6035TIP3    H218049   7.521   2.307   0.338 -2.3995 -0.0679 -0.0793
 6036TIP3   OH218050   6.041   5.891   5.559 -0.2322  0.1643 -0.4357
 6036TIP3    H118051   6.096   5.834   5.612  0.8864  2.0159  0.4940
 6036TIP3    H218052   5.987   5.939   5.622 -0.4576  0.8238 -1.1091
 6037TIP3   OH218053   2.054   6.814   6.675 -0.2730  0.6245 -0.8564
 6037TIP3    H118054   1.976   6.759   6.672 -0.7365  1.2908 -1.3191
 6037TIP3    H218055   2.020   6.903   6.670  0.4577  0.9615  0.0250
 6038TIP3   OH218056   5.697   4.667   2.875  0.5287  0.4937 -0.2833
 6038TIP3    H118057   5.723   4.736   2.814  0.0404  0.5381 -0.4531
 6038TIP3    H218058   5.648   4.713   2.944  1.2042  0.4612  0.2225
 6039TIP3   OH218059   1.045   5.443   1.038 -0.2660  0.2934 -0.3450
 6039TIP3    H118060   1.090   5.358   1.040  0.0534  0.3957 -2.2530
 6039TIP3    H218061   0.997   5.443   0.956 -2.2362  0.9992  0.7289
 6040TIP3   OH218062   7.635   3.620   0.392  0.4032 -0.5030  0.0965
 6040TIP3    H118063   7.684   3.665   0.461  0.1952 -0.7062  0.3782
 6040TIP3    H218064   7.697   3.616   0.318  1.2479 -1.7781  0.8294
 6041TIP3   OH218065   7.510   3.780   5.779 -1.0646  0.3337  0.0430
 6041TIP3    H118066   7.543   3.862   5.741 -2.5399  1.2602  0.6803
 6041TIP3    H218067   7.452   3.808   5.850 -1.9977 -1.2460 -0.0503
 6042TIP3   OH218068   3.012   7.750   6.084  0.8832  0.4588  0.4245
 6042TIP3    H118069   2.994   7.843   6.078  2.3952  0.8542  1.3919
 6042TIP3    H218070   3.024   7.734   6.178 -0.3852 -0.9365  0.3931
 6043TIP3   OH218071   1.455   5.214   2.164 -0.7167 -0.3416 -0.3978
 6043TIP3    H118072   1.447   5.267   2.242 -2.3807 -0.4668 -0.4441
 6043TIP3    H218073   1.388   5.146   2.174 -0.7887 -0.5120 -1.7993
 6044TIP3   OH218074   2.190   4.605   1.973 -0.4126 -0.3098 -0.3381
 6044TIP3    H118075   2.217   4.518   1.941 -1.2394 -0.5713 -0.3491
 6044TIP3    H218076   2.268   4.640   2.016 -0.2929 -1.4057  0.3831
 6045TIP3   OH218077   7.236   6.892   4.951  0.2797  0.7996  0.1467
 6045TIP3    H118078   7.238   6.900   4.856  2.4919  0.0574  0.0784
 6045TIP3    H218079   7.313   6.941   4.981  0.1035  0.3002  1.4963
 6046TIP3   OH218080   6.883   1.888   6.444 -0.2825 -0.1067 -0.5165
 6046TIP3    H118081   6.810   1.888   6.505 -2.3609  0.6270 -2.8180
 6046TIP3    H218082   6.957   1.854   6.494 -2.0035 -0.2140  2.1328
 6047TIP3   OH218083   5.419   7.635   1.512 -0.0101  0.0716  0.6508
 6047TIP3    H118084   5.372   7.561   1.473  0.3927 -0.2976  0.8558
 6047TIP3    H218085   5.370   7.712   1.483  0.0138 -0.2246 -0.2009
 6048TIP3   OH218086   1.858   7.498   6.065 -0.1005  0.2591  0.7520
 6048TIP3    H118087   1.909   7.427   6.103  0.5243  0.6903  0.7299
 6048TIP3    H218088   1.772   7.491   6.108 -0.3956 -1.1485 -0.0161
 6049TIP3   OH218089   0.444   1.171   2.454 -0.3009 -0.1395 -0.2065
 6049TIP3    H118090   0.466   1.193   2.544 -1.6806 -0.7622  0.3174
 6049TIP3    H218091   0.436   1.075   2.453 -0.6333 -0.1167 -0.8893
 6050TIP3   OH218092   5.207   4.137   6.549 -0.4241  0.0170 -0.1482
 6050TIP3    H118093   5.259   4.109   6.473  0.5072  1.9796 -0.3110
 6050TIP3    H218094   5.254   4.100   6.624  0.1001  0.1428 -0.4036
 6051TIP3   OH218095   1.835  -0.005   4.739  0.0815 -0.0187  0.5705
 6051TIP3    H118096   1.764  -0.004   4.674  0.5948  0.5639  0.0018
 6051TIP3    H218097   1.900   0.056   4.704  1.6810 -1.8544  0.1967
 6052TIP3   OH218098   6.488   4.210   1.010 -0.1673  0.0543 -0.3268
 6052TIP3    H118099   6.471   4.305   1.006 -2.6793 -0.3724 -1.6842
 6052TIP3    H218100   6.412   4.170   0.969  1.1729 -2.5694 -0.4717
 6053TIP3   OH218101   1.799   1.012   4.006  0.2893  0.0275 -0.0926
 6053TIP3    H118102   1.860   0.991   3.935 -0.6576 -0.1875 -0.8712
 6053TIP3    H218103   1.722   1.047   3.961  0.0272  0.7802  0.9019
 6054TIP3   OH218104   1.692   4.900   0.226 -0.1202  0.8134 -0.4419
 6054TIP3    H118105   1.743   4.966   0.273  1.1181  1.0985 -2.1085
 6054TIP3    H218106   1.757   4.843   0.185 -1.1581  0.0341 -1.0651
 6055TIP3   OH218107   4.837   4.775   0.552 -0.3103  0.4508 -0.2956
 6055TIP3    H118108   4.776   4.835   0.508 -0.5752 -0.5009 -1.2961
 6055TIP3    H218109   4.837   4.803   0.643  1.7017  3.7367 -1.1326
 6056TIP3   OH218110   6.326   4.945   3.180  0.4804  0.2009  0.6528
 6056TIP3    H118111   6.259   5.000   3.139  1.6466  0.5783 -0.8353
 6056TIP3    H218112   6.347   4.880   3.114  2.3196  0.7366  0.6595
 6057TIP3   OH218113   5.266   2.034   5.085  0.2464  0.4755 -0.0916
 6057TIP3    H118114   5.259   2.096   5.158  3.6471  0.8163  0.1276
 6057TIP3    H218115   5.328   2.076   5.024  1.3466 -1.9222 -0.7372
 6058TIP3   OH218116   4.506   2.135   1.790 -0.5716  0.0172 -0.0164
 6058TIP3    H118117   4.511   2.101   1.879  0.3657  0.9740  0.3085
 6058TIP3    H218118   4.452   2.071   1.744  0.0929 -1.2437  0.8796
 6059TIP3   OH218119   2.693   4.059   1.362 -0.6214  0.6165  0.0779
 6059TIP3    H118120   2.611   4.021   1.330 -0.1487  2.4586 -3.9326
 6059TIP3    H218121   2.665   4.128   1.422 -1.8977 -0.0715  0.3026
 6060TIP3   OH218122   1.856   5.133   3.091  0.4404 -0.1857 -0.4279
 6060TIP3    H118123   1.776   5.098   3.052  0.4258 -1.6132  0.8214
 6060TIP3    H218124   1.830   5.218   3.126 -0.6416 -0.7979  0.3017
 6061TIP3   OH218125   3.350   5.273   5.188 -0.5909  0.2963  0.2302
 6061TIP3    H118126   3.318   5.193   5.146 -0.7335 -0.0512  0.9867
 6061TIP3    H218127   3.444   5.272   5.173 -0.1653 -1.3872  2.4239
 6062TIP3   OH218128   5.401   4.623   0.762  0.1125 -0.2295 -0.4242
 6062TIP3    H118129   5.484   4.575   0.771  1.0699  1.5797  1.2405
 6062TIP3    H218130   5.399   4.681   0.839 -2.1235  0.6618 -1.0886
 6063TIP3   OH218131   7.659   5.841   0.334  0.5305  0.9096  0.7738
 6063TIP3    H118132   7.740   5.830   0.383  0.8520 -1.3930 -0.1216
 6063TIP3    H218133   7.604   5.768   0.362  0.1206  0.4485 -1.0960
 6064TIP3   OH218134   6.626   0.383   5.711  0.3937 -0.6093 -0.0027
 6064TIP3    H118135   6.560   0.326   5.750 -1.3398 -0.1960 -2.1151
 6064TIP3    H218136   6.605   0.470   5.745 -0.0157 -0.5206 -0.4650
 6065TIP3   OH218137   3.584   1.003   5.960 -0.3600 -0.2686 -0.1681
 6065TIP3    H118138   3.496   1.040   5.959 -0.0671  0.4620 -1.5893
 6065TIP3    H218139   3.570   0.908   5.954 -1.0530 -0.1021 -1.6541
 6066TIP3   OH218140   6.669   0.368   2.805  0.1169 -0.5529  0.4306
 6066TIP3    H118141   6.685   0.283   2.764 -1.0048 -0.3593 -0.4951
 6066TIP3    H218142   6.575   0.384   2.789  0.2255  0.6671  0.9354
 6067TIP3   OH218143   6.685   5.793   4.266  0.2990 -0.2544  0.4593
 6067TIP3    H118144   6.636   5.781   4.347 -0.6271 -2.4797 -0.3607
 6067TIP3    H218145   6.631   5.852   4.214  0.2841  0.1856  0.9680
 6068TIP3   OH218146   4.334   6.229   3.738  0.4143 -0.1012  0.4319
 6068TIP3    H118147   4.247   6.265   3.722  0.1431  0.2639  2.5642
 6068TIP3    H218148   4.358   6.189   3.654 -2.3911 -1.4640  0.1647
 6069TIP3   OH218149   7.243   4.499   5.589  0.1724  0.1881  0.1293
 6069TIP3    H118150   7.304   4.533   5.523 -0.4474  1.1455  0.0283
 6069TIP3    H218151   7.180   4.570   5.602 -0.9754 -0.8118  0.1673
 6070TIP3   OH218152   5.890   4.380   4.962  0.4079  0.3557 -0.2863
 6070TIP3    H118153   5.978   4.415   4.967  1.1968 -1.5864  0.5047
 6070TIP3    H218154   5.899   4.297   4.915 -1.0091  0.1602 -0.2789
 6071TIP3   OH218155   6.556   0.943   0.926  0.3059 -0.1817  0.1669
 6071TIP3    H118156   6.465   0.947   0.955  0.4056  0.5738  0.4027
 6071TIP3    H218157   6.607   0.937   1.007  0.5039  0.2839  0.0822
 6072TIP3   OH218158   2.166   1.414   2.372  0.5300 -0.3558 -0.0620
 6072TIP3    H118159   2.182   1.365   2.453  1.5807 -1.3310 -0.8285
 6072TIP3    H218160   2.193   1.504   2.393 -2.0938  0.1523  1.5851
 6073TIP3   OH218161   7.202   0.367   3.636 -0.0352  0.3691  0.3243
 6073TIP3    H118162   7.250   0.376   3.718 -0.0106  0.2650  0.3198
 6073TIP3    H218163   7.110   0.383   3.661 -0.0549  0.1143  0.4098
 6074TIP3   OH218164   0.803   1.785   4.835  0.0994 -0.5934 -0.6297
 6074TIP3    H118165   0.836   1.811   4.920  1.7877 -1.2135 -1.0655
 6074TIP3    H218166   0.833   1.695   4.823 -0.5289 -0.6859 -1.6830
 6075TIP3   OH218167   5.902   1.308   3.524  0.2661 -0.1879  0.6150
 6075TIP3    H118168   5.992   1.335   3.507  1.2242 -2.5455  1.4689
 6075TIP3    H218169   5.908   1.213   3.540 -2.1692 -0.1848  2.0594
 6076TIP3   OH218170   1.317   7.705   2.033  0.1567  0.0504 -0.1692
 6076TIP3    H118171   1.338   7.785   1.985 -0.0585 -0.3805 -0.9870
 6076TIP3    H218172   1.331   7.635   1.970  1.4982 -0.6756  0.8625
 6077TIP3   OH218173   6.792   1.200   0.839  0.6107  0.9191  1.0357
 6077TIP3    H118174   6.703   1.209   0.874  0.3781 -1.7373  1.3300
 6077TIP3    H218175   6.848   1.231   0.911  0.0003 -0.3720  2.1112
 6078TIP3   OH218176   4.061   3.503   5.641  0.3692  0.1444  0.4897
 6078TIP3    H118177   4.043   3.585   5.596  1.2396  0.5183  0.8090
 6078TIP3    H218178   4.049   3.524   5.734  0.3524 -0.1531  0.5558
 6079TIP3   OH218179   0.554   4.516   3.609  0.5751 -0.4885  0.7529
 6079TIP3    H118180   0.582   4.477   3.527 -0.4935  1.0718 -0.4133
 6079TIP3    H218181   0.613   4.480   3.675  0.3253 -3.2006 -0.3702
 6080TIP3   OH218182   5.555   2.893   1.989 -0.0470  0.0494 -0.3899
 6080TIP3    H118183   5.496   2.946   2.042  0.6584  1.2638 -0.8008
 6080TIP3    H218184   5.600   2.837   2.053  0.8552  1.5493  0.3576
 6081TIP3   OH218185   6.474   1.319   4.573  0.1293 -0.3031  0.9789
 6081TIP3    H118186   6.469   1.404   4.528 -0.3702 -0.4304  0.7892
 6081TIP3    H218187   6.486   1.255   4.503  1.4428 -0.3099  1.1906
 6082TIP3   OH218188   0.290   7.431   1.298  0.6312 -0.0816 -0.9998
 6082TIP3    H118189   0.259   7.381   1.222  1.4091  0.1732 -1.5084
 6082TIP3    H218190   0.242   7.396   1.372 -0.1881 -0.3045 -1.6214
 6083TIP3   OH218191   3.069   6.192   1.918  0.3382 -0.2677 -0.4391
 6083TIP3    H118192   3.034   6.203   2.007 -0.4939 -1.3666 -0.6139
 6083TIP3    H218193   3.047   6.274   1.874  0.9618  0.3830  0.4220
 6084TIP3   OH218194   0.797   2.434   3.722 -0.0780 -0.2193  0.4619
 6084TIP3    H118195   0.718   2.382   3.705  0.1661 -0.4084 -0.1380
 6084TIP3    H218196   0.834   2.397   3.802 -0.7062  0.0013  0.8547
 6085TIP3   OH218197   5.899   3.672   6.357  0.5218  0.4573 -0.7868
 6085TIP3    H118198   5.864   3.659   6.269 -1.7593 -0.3916  0.1688
 6085TIP3    H218199   5.883   3.765   6.376  1.2744  0.7103 -1.3341
 6086TIP3   OH218200   2.783   3.435   6.052 -0.5230  0.4801 -0.1260
 6086TIP3    H118201   2.690   3.448   6.033 -0.6687 -0.2664  0.0281
 6086TIP3    H218202   2.817   3.392   5.973 -0.2144  1.1213 -0.3462
 6087TIP3   OH218203   1.595   0.888   0.111 -0.1719 -0.3627 -1.1184
 6087TIP3    H118204   1.570   0.977   0.135  0.6465 -0.3130 -0.4033
 6087TIP3    H218205   1.570   0.879   0.019 -2.0444 -0.0557 -0.6697
 6088TIP3   OH218206   6.837   3.297   4.053 -0.0191 -0.2500  0.2697
 6088TIP3    H118207   6.826   3.203   4.036  1.3818 -0.3600 -0.1561
 6088TIP3    H218208   6.796   3.340   3.978  0.2639 -0.5546 -0.0622
 6089TIP3   OH218209   0.780   1.401   6.042  0.1516 -0.2357 -0.3568
 6089TIP3    H118210   0.778   1.312   6.077  3.0434 -0.5303 -0.6424
 6089TIP3    H218211   0.813   1.390   5.952  0.3230  1.0911 -0.4774
 6090TIP3   OH218212   2.066   2.988   2.288  0.8214  0.7737  0.1730
 6090TIP3    H118213   2.144   2.942   2.317  0.7796  0.5587 -0.0565
 6090TIP3    H218214   2.043   2.947   2.205  0.3945  0.7548  0.2997
 6091TIP3   OH218215   2.400   4.823   5.722  0.2639  0.1473 -0.3712
 6091TIP3    H118216   2.400   4.728   5.734  1.3861  0.0441 -0.9906
 6091TIP3    H218217   2.374   4.858   5.808  0.1409 -0.7074 -0.0487
 6092TIP3   OH218218   7.460   7.803   6.293  0.6379  0.2455 -0.7726
 6092TIP3    H118219   7.487   7.863   6.363  1.7694  0.1192 -1.0889
 6092TIP3    H218220   7.502   7.720   6.315 -0.4241 -0.2764 -0.6687
 6093TIP3   OH218221   0.099   1.596   5.874 -0.2847  0.3161  0.5279
 6093TIP3    H118222   0.151   1.654   5.929  1.0823 -0.1310 -0.2441
 6093TIP3    H218223   0.099   1.512   5.921 -0.7461  0.4477  0.7699
 6094TIP3   OH218224   5.051   0.534   2.537 -0.0832  0.1106  0.4491
 6094TIP3    H118225   5.045   0.585   2.456 -0.6637  1.1837  1.1472
 6094TIP3    H218226   4.977   0.563   2.590  1.3424  0.8401  2.1425
 6095TIP3   OH218227   3.906   1.333   6.120 -0.6612 -0.9537  0.0254
 6095TIP3    H118228   3.828   1.297   6.077 -0.9258  0.1296 -0.4453
 6095TIP3    H218229   3.963   1.357   6.047 -0.7012  0.0067  0.3014
 6096TIP3   OH218230   8.043   0.902   3.090 -0.1043 -0.0577  0.2586
 6096TIP3    H118231   8.002   0.872   3.171 -0.0653 -0.3351  0.1761
 6096TIP3    H218232   8.032   0.997   3.091 -0.1619 -0.0679  0.5569
 6097TIP3   OH218233   6.984   3.996   5.244  0.3847  0.2707  0.2056
 6097TIP3    H118234   7.020   3.938   5.312  1.8698 -1.2066 -1.7274
 6097TIP3    H218235   6.893   3.969   5.235 -0.0989  1.0792  2.1546
 6098TIP3   OH218236   3.539   1.794   3.675 -0.1036  0.1881  0.0524
 6098TIP3    H118237   3.513   1.711   3.714 -2.1988  0.9423  0.4032
 6098TIP3    H218238   3.608   1.828   3.733  1.3648 -1.6076 -0.5428
 6099TIP3   OH218239   0.797   3.009   6.091 -0.4581  0.0187 -0.1885
 6099TIP3    H118240   0.863   2.962   6.141 -0.9938 -1.1456 -0.5552
 6099TIP3    H218241   0.737   2.941   6.059  0.6649  0.4653 -3.6817
 6100TIP3   OH218242   2.270   3.381   2.944 -0.7269  0.2118 -0.4659
 6100TIP3    H118243   2.258   3.395   2.850 -0.4312  1.0440 -0.3899
 6100TIP3    H218244   2.260   3.468   2.982  2.9621  0.6603 -0.1386
 6101TIP3   OH218245   6.922   3.425   0.603  0.0869 -0.4741 -0.3691
 6101TIP3    H118246   6.908   3.402   0.512 -0.8011 -1.1381 -0.0742
 6101TIP3    H218247   6.961   3.512   0.600  0.2939 -0.5908 -1.3836
 6102TIP3   OH218248   5.696   6.870   5.985  0.6496 -0.1799  0.2543
 6102TIP3    H118249   5.741   6.796   5.943  0.3921  0.5478 -1.3764
 6102TIP3    H218250   5.748   6.888   6.063  1.1042 -1.6406  0.3270
 6103TIP3   OH218251   0.329   0.612   6.019 -0.1512 -0.1993  0.0088
 6103TIP3    H118252   0.355   0.532   5.973  1.4961  0.0171  0.4856
 6103TIP3    H218253   0.284   0.580   6.098 -0.7871 -0.6166 -0.5172
 6104TIP3   OH218254   3.414   4.755   2.774  0.2753  0.2199  0.3115
 6104TIP3    H118255   3.420   4.850   2.759  0.3566  0.3331  1.0381
 6104TIP3    H218256   3.496   4.720   2.738  0.4810  0.4900  0.5105
 6105TIP3   OH218257   3.994   5.386   5.470 -0.1793  0.0028  0.2797
 6105TIP3    H118258   4.065   5.388   5.534 -0.8375  1.8257  1.0341
 6105TIP3    H218259   3.920   5.428   5.515 -1.4724 -1.0281 -0.7905
 6106TIP3   OH218260   2.015   5.536   5.170  0.0201  0.5647 -0.0103
 6106TIP3    H118261   1.977   5.481   5.102  1.7882 -2.2410  1.0664
 6106TIP3    H218262   2.096   5.569   5.130  1.8668 -2.3277  1.0062
 6107TIP3   OH218263   2.537   0.476   5.082 -0.3705  0.2201  0.0669
 6107TIP3    H118264   2.535   0.382   5.068 -2.9495  0.3770 -1.3433
 6107TIP3    H218265   2.473   0.491   5.152  0.3365  0.9043  0.5832
 6108TIP3   OH218266   7.300   3.164   5.468  0.2257  0.0905 -0.1637
 6108TIP3    H118267   7.382   3.213   5.469  0.0100  0.5521 -1.9085
 6108TIP3    H218268   7.246   3.207   5.535  1.2345  0.0397  0.7198
 6109TIP3   OH218269   6.397   4.427   5.085  0.2071  0.2203  0.0486
 6109TIP3    H118270   6.373   4.336   5.103  1.6590  0.0100  1.0981
 6109TIP3    H218271   6.470   4.445   5.145 -0.2350  2.1697  0.0709
 6110TIP3   OH218272   1.099   0.969   5.490 -0.0212  0.3088 -0.6046
 6110TIP3    H118273   1.147   0.909   5.433  1.9405  1.1249  0.0936
 6110TIP3    H218274   1.112   1.055   5.450  3.0141  1.2032  1.8875
 6111TIP3   OH218275   2.637   6.754   3.162 -0.0713  0.3851 -0.5026
 6111TIP3    H118276   2.660   6.797   3.080  1.3261  1.9283  0.6371
 6111TIP3    H218277   2.651   6.820   3.229 -2.7016 -0.3324  0.8812
 6112TIP3   OH218278   2.561   6.510   2.578  0.1421  0.3966 -0.0906
 6112TIP3    H118279   2.594   6.593   2.542  0.4200 -0.4772 -1.9680
 6112TIP3    H218280   2.496   6.536   2.643 -0.2102  2.0914 -1.0666
 6113TIP3   OH218281   2.974   4.312   1.591 -0.1879  0.0604  0.1049
 6113TIP3    H118282   2.926   4.287   1.511 -1.7172 -1.6348  1.4360
 6113TIP3    H218283   3.060   4.272   1.581  0.0304  0.7920 -1.1392
 6114TIP3   OH218284   4.674   6.813   6.009  0.0594 -0.0096 -0.0702
 6114TIP3    H118285   4.737   6.832   5.940  1.4180 -0.3666  1.0470
 6114TIP3    H218286   4.598   6.868   5.988  0.4909 -0.0192 -1.7525
 6115TIP3   OH218287   7.688   7.162   0.264  0.0178 -0.2809 -0.0316
 6115TIP3    H118288   7.641   7.246   0.264 -1.7054 -1.1946  0.7887
 6115TIP3    H218289   7.722   7.153   0.352 -0.3398 -0.7099  0.0680
 6116TIP3   OH218290   0.659   7.211   6.014  0.4207  0.8928  0.3180
 6116TIP3    H118291   0.753   7.194   6.007 -0.1183 -1.6890 -2.1655
 6116TIP3    H218292   0.619   7.125   6.017 -1.9069  1.9321  2.0091
 6117TIP3   OH218293   4.856   6.521   5.590 -0.1883 -0.5930 -0.1903
 6117TIP3    H118294   4.860   6.573   5.671 -1.0171  0.1626 -0.6158
 6117TIP3    H218295   4.911   6.445   5.608  2.1800  1.0566 -0.0106
 6118TIP3   OH218296   1.175   4.607   3.420  0.3259  0.0230 -0.0243
 6118TIP3    H118297   1.193   4.608   3.514 -0.8822 -0.1001  0.2216
 6118TIP3    H218298   1.244   4.552   3.383  1.1509  0.5351  0.7048
 6119TIP3   OH218299   3.453   2.298   1.839 -0.4288 -0.2001  0.4510
 6119TIP3    H118300   3.440   2.392   1.849 -0.1731  0.1891 -2.1301
 6119TIP3    H218301   3.364   2.263   1.830 -0.4905 -0.1044  0.6849
 6120TIP3   OH218302   2.783   5.226   5.540  0.4597 -0.7964  0.5155
 6120TIP3    H118303   2.742   5.288   5.480  2.1838 -0.0069  0.1204
 6120TIP3    H218304   2.775   5.141   5.496  1.7035 -0.2225 -0.8615
 6121TIP3   OH218305   3.241   2.205   0.793  0.0261 -0.2472 -0.7050
 6121TIP3    H118306   3.279   2.151   0.862  1.2891 -0.8220 -1.8084
 6121TIP3    H218307   3.208   2.142   0.728 -1.8494  0.2668 -0.3024
 6122TIP3   OH218308   1.347   3.999   1.412 -0.6504  0.1522 -0.3505
 6122TIP3    H118309   1.297   4.080   1.403 -0.6911  0.2126  0.3767
 6122TIP3    H218310   1.310   3.956   1.489 -1.3686 -1.0980 -1.3494
 6123TIP3   OH218311   2.085   4.758   3.102  0.1538  0.0495  0.5220
 6123TIP3    H118312   2.018   4.810   3.147  1.0103  1.1503  0.5718
 6123TIP3    H218313   2.136   4.719   3.173 -0.8224 -1.3567  0.4902
 6124TIP3   OH218314   4.775   2.739   5.652  0.3627  0.3677  0.1510
 6124TIP3    H118315   4.690   2.778   5.633  0.0532 -0.5072 -0.3201
 6124TIP3    H218316   4.838   2.797   5.610  0.2027  2.1657  2.1918
 6125TIP3   OH218317   7.230   0.033   6.260  0.3130  0.0290  0.1922
 6125TIP3    H118318   7.142   0.068   6.268 -0.1596  0.0969 -3.6288
 6125TIP3    H218319   7.229  -0.047   6.312 -2.3163 -0.4287 -0.4284
 6126TIP3   OH218320   5.435   5.076   0.922 -0.2115 -0.0705  0.3495
 6126TIP3    H118321   5.529   5.064   0.912 -0.1650  0.0545  0.6365
 6126TIP3    H218322   5.406   4.997   0.968 -0.2929 -0.2448  0.0014
 6127TIP3   OH218323   2.034   7.209   3.014 -0.9186  0.4413  0.7468
 6127TIP3    H118324   2.030   7.249   3.101 -1.7290 -0.0128  0.9387
 6127TIP3    H218325   2.026   7.115   3.031  1.3956  0.1167  0.3390
 6128TIP3   OH218326   0.070   4.620   6.186  0.3082 -0.2761  0.4578
 6128TIP3    H118327   0.120   4.685   6.235  1.3168 -0.0511 -0.8252
 6128TIP3    H218328   0.134   4.579   6.128 -0.4876 -1.8178  0.6226
 6129TIP3   OH218329   6.160   4.100   1.637 -0.1022 -0.3956  0.3952
 6129TIP3    H118330   6.104   4.173   1.612  1.0728 -0.0685 -1.5086
 6129TIP3    H218331   6.109   4.022   1.615 -0.8548 -0.1406  1.2245
 6130TIP3   OH218332   1.474   7.739   4.514 -0.6226  0.0577  0.1654
 6130TIP3    H118333   1.460   7.668   4.451 -0.0321 -0.4294  0.5673
 6130TIP3    H218334   1.515   7.808   4.463  1.7013 -1.0759  0.3797
 6131TIP3   OH218335   1.154   0.369   1.395 -0.1506  0.5925 -0.0414
 6131TIP3    H118336   1.159   0.293   1.336 -1.2323 -1.3533  2.2186
 6131TIP3    H218337   1.067   0.364   1.433  0.5211  1.7109  1.7604
 6132TIP3   OH218338   1.541   5.640   6.749 -0.0672  0.3777  0.3571
 6132TIP3    H118339   1.466   5.663   6.804 -0.2785  0.2935  0.1024
 6132TIP3    H218340   1.589   5.722   6.738  1.1788  0.0164  2.4627
 6133TIP3   OH218341   6.565   0.502   4.770 -0.2225  0.6771 -0.0614
 6133TIP3    H118342   6.624   0.530   4.700 -1.0736 -1.1399 -1.5930
 6133TIP3    H218343   6.616   0.512   4.850  1.7800  0.2001 -1.2100
 6134TIP3   OH218344   6.605   2.860   3.751 -0.6324  0.5483  0.0202
 6134TIP3    H118345   6.523   2.811   3.745 -0.6292  0.6283 -0.7966
 6134TIP3    H218346   6.587   2.942   3.707 -0.2336  0.7376  0.2042
 6135TIP3   OH218347   7.557   6.144   5.334 -0.1582 -0.0355  0.4579
 6135TIP3    H118348   7.559   6.114   5.425 -0.8012  0.2203  0.5657
 6135TIP3    H218349   7.633   6.201   5.325  0.6336 -1.0689  0.4693
 6136TIP3   OH218350   2.729   0.495   5.394 -0.0008 -0.5143  0.4026
 6136TIP3    H118351   2.785   0.528   5.323 -0.8113 -0.7966 -0.3813
 6136TIP3    H218352   2.791   0.469   5.462  0.7869 -0.0872 -0.1310
 6137TIP3   OH218353   1.624   0.588   0.645 -0.1883  0.1052 -0.0284
 6137TIP3    H118354   1.710   0.548   0.660  0.1168  0.2174 -1.2971
 6137TIP3    H218355   1.587   0.537   0.572 -1.0989  0.2157  0.3437
 6138TIP3   OH218356   7.321   0.778   2.937 -0.3462  0.4611 -0.1391
 6138TIP3    H118357   7.367   0.803   2.857 -0.9358  0.3964 -0.5023
 6138TIP3    H218358   7.231   0.762   2.909 -0.0167 -2.1125  0.0447
 6139TIP3   OH218359   8.150   4.402   2.592 -0.5899 -0.0396 -0.1100
 6139TIP3    H118360   8.154   4.477   2.651 -0.6491  0.1443 -0.3409
 6139TIP3    H218361   8.115   4.331   2.646  2.0773 -0.6889  0.9224
 6140TIP3   OH218362   3.567   4.516   5.801 -0.3504  0.9091  0.3012
 6140TIP3    H118363   3.502   4.516   5.871 -0.6746  0.1832  0.0191
 6140TIP3    H218364   3.544   4.590   5.745 -3.0755 -1.2303 -1.6793
 6141TIP3   OH218365   5.902   0.997   3.569  0.3643  0.3719  0.4150
 6141TIP3    H118366   5.854   0.954   3.640 -1.5337  0.3703 -0.7834
 6141TIP3    H218367   5.893   0.938   3.495  0.3883  1.3909 -0.4181
 6142TIP3   OH218368   5.039   5.781   6.792  0.2282 -0.2639  0.6622
 6142TIP3    H118369   5.129   5.750   6.779  0.7114  0.2747  2.4433
 6142TIP3    H218370   5.021   5.833   6.714  1.5605 -0.1757  0.3839
 6143TIP3   OH218371   3.870   7.613   5.403  0.6892  0.0868 -0.0418
 6143TIP3    H118372   3.906   7.701   5.412  0.6975 -0.0063  1.0154
 6143TIP3    H218373   3.904   7.566   5.479  1.4876 -1.1220 -1.1141
 6144TIP3   OH218374   4.402   6.276   1.980  0.6065  0.2946  0.3570
 6144TIP3    H118375   4.373   6.188   1.958  1.0307 -0.0087  0.9716
 6144TIP3    H218376   4.335   6.333   1.943 -0.2926 -0.3420  0.9637
 6145TIP3   OH218377   1.020   2.798   1.813  0.2702  0.6471 -0.3253
 6145TIP3    H118378   1.012   2.880   1.861  1.4561  0.4047  0.3124
 6145TIP3    H218379   1.098   2.756   1.848 -0.6469 -1.0569 -0.1904
 6146TIP3   OH218380   0.289   1.532   0.517  0.1346 -0.0284  0.6036
 6146TIP3    H118381   0.330   1.571   0.594 -0.9595  2.9129 -0.1542
 6146TIP3    H218382   0.328   1.578   0.443 -2.3517  0.8863 -0.2588
 6147TIP3   OH218383   3.293   2.415   6.626 -0.3673  0.2307  0.5352
 6147TIP3    H118384   3.285   2.349   6.695  1.3490  0.9547  1.4945
 6147TIP3    H218385   3.324   2.366   6.550 -0.1738 -0.2568  0.9221
 6148TIP3   OH218386   6.640   2.614   2.914  0.1810 -0.5852 -0.1302
 6148TIP3    H118387   6.628   2.696   2.867  0.3156 -1.9716 -2.7444
 6148TIP3    H218388   6.559   2.605   2.966 -0.0480  0.9165 -0.1742
 6149TIP3   OH218389   3.980   7.160   1.753 -0.9533 -0.2909  0.2423
 6149TIP3    H118390   4.032   7.124   1.680 -0.8837  0.4017 -0.0566
 6149TIP3    H218391   3.897   7.112   1.749 -1.7743  1.1532 -1.6195
 6150TIP3   OH218392   3.822   4.896   0.342 -0.5101 -0.3294  0.8442
 6150TIP3    H118393   3.810   4.887   0.247 -2.6545 -0.4733  1.0846
 6150TIP3    H218394   3.827   4.806   0.374  0.9784 -0.2761  0.8129
 6151TIP3   OH218395   2.199   4.247   3.973 -0.0872 -0.5456 -0.4185
 6151TIP3    H118396   2.179   4.304   3.899 -0.8985  2.6058  2.0179
 6151TIP3    H218397   2.294   4.239   3.971 -0.0781 -0.3872 -1.6889
 6152TIP3   OH218398   5.985   1.429   6.171  0.4849 -0.3128  0.3114
 6152TIP3    H118399   5.970   1.523   6.173  1.3907 -0.1605  0.1812
 6152TIP3    H218400   5.965   1.404   6.080  0.7802 -0.1521  0.2011
 6153TIP3   OH218401   1.952   7.405   3.925 -0.3650 -0.0842  0.4287
 6153TIP3    H118402   1.977   7.389   4.016 -3.1458  1.5309  1.5807
 6153TIP3    H218403   1.881   7.344   3.908 -0.6897  0.4635 -0.2471
 6154TIP3   OH218404   3.250   2.223   4.833  0.1229 -0.3701  0.8240
 6154TIP3    H118405   3.305   2.302   4.827  1.5100 -1.3521 -0.0634
 6154TIP3    H218406   3.298   2.157   4.782 -0.6828 -1.9738  2.0688
 6155TIP3   OH218407   4.278   1.150   3.738  0.2552  0.5141 -0.3054
 6155TIP3    H118408   4.199   1.180   3.783  0.9451  3.0188 -0.6433
 6155TIP3    H218409   4.304   1.071   3.786 -1.9950  0.0626  0.2841
 6156TIP3   OH218410   0.839   3.238   6.262  0.4653 -0.1892 -0.1261
 6156TIP3    H118411   0.787   3.199   6.332  0.3644  1.4912  0.7879
 6156TIP3    H218412   0.819   3.185   6.185 -1.2512 -0.6649  0.5969
 6157TIP3   OH218413   5.622   2.615   0.642  0.5230 -0.5255 -0.0389
 6157TIP3    H118414   5.533   2.644   0.661  0.1405  0.4190 -2.8085
 6157TIP3    H218415   5.678   2.689   0.669  0.3144 -0.4354  0.1469
 6158TIP3   OH218416   5.118   4.582   2.860  0.4873 -0.9019 -0.4117
 6158TIP3    H118417   5.177   4.507   2.862  4.2688  1.7691 -0.4176
 6158TIP3    H218418   5.062   4.571   2.937  3.7553 -1.7865  2.0730
 6159TIP3   OH218419   1.734   6.920   3.969  0.0638  0.3743  0.6332
 6159TIP3    H118420   1.773   6.974   4.038 -0.0250  0.3470  0.7065
 6159TIP3    H218421   1.808   6.878   3.925  0.1252  0.4545  0.6613
 6160TIP3   OH218422   2.556   2.451   3.797  0.5925 -0.6792  0.3682
 6160TIP3    H118423   2.534   2.359   3.814 -0.3436 -0.3602  0.9770
 6160TIP3    H218424   2.532   2.496   3.878 -1.0916  0.4389 -0.6877
 6161TIP3   OH218425   7.727   0.157   0.265  0.0479 -0.1440 -0.3844
 6161TIP3    H118426   7.790   0.092   0.296 -1.3818 -1.1964  0.4428
 6161TIP3    H218427   7.673   0.111   0.201 -0.3792  0.5088 -0.5110
 6162TIP3   OH218428   3.759   3.612   5.628 -0.0926 -0.2636 -0.6012
 6162TIP3    H118429   3.832   3.654   5.583  0.1152  0.2619  0.1950
 6162TIP3    H218430   3.699   3.684   5.647 -0.8059 -0.6866 -1.2172
 6163TIP3   OH218431   7.452   3.424   1.783 -0.2221 -0.0991  0.0392
 6163TIP3    H118432   7.447   3.448   1.876  1.3984  1.0011 -0.1109
 6163TIP3    H218433   7.367   3.449   1.747 -0.8087 -0.3618  1.1724
 6164TIP3   OH218434   1.791   0.888   3.266 -0.0883  0.1116 -0.2318
 6164TIP3    H118435   1.725   0.823   3.240 -0.3423 -0.1501  1.0128
 6164TIP3    H218436   1.851   0.839   3.323 -0.3554  0.9858  0.8220
 6165TIP3   OH218437   3.989   4.864   1.728 -0.0108 -0.5129  0.0150
 6165TIP3    H118438   3.979   4.887   1.635 -1.5068  2.4730  0.7732
 6165TIP3    H218439   3.903   4.830   1.753  0.6504 -2.1570  0.1592
 6166TIP3   OH218440   1.442   4.226   2.247 -0.4358  0.2525  0.7618
 6166TIP3    H118441   1.362   4.233   2.194 -0.6377 -0.6966  0.9207
 6166TIP3    H218442   1.513   4.220   2.184 -0.4488  1.3864  0.6175
 6167TIP3   OH218443   5.212   7.661   2.281  0.2769 -0.3639  0.5674
 6167TIP3    H118444   5.158   7.616   2.347 -0.6111 -0.3329 -0.1140
 6167TIP3    H218445   5.262   7.725   2.331 -1.1496  0.3741  1.1190
 6168TIP3   OH218446   1.838   5.687   4.299  0.1913  0.2153 -0.0585
 6168TIP3    H118447   1.891   5.745   4.245 -0.5453 -0.4668 -1.5645
 6168TIP3    H218448   1.772   5.744   4.338  0.2845  0.6008 -0.4578
 6169TIP3   OH218449   1.765   4.999   4.788 -0.4019 -0.2016  0.3542
 6169TIP3    H118450   1.812   4.954   4.858  0.4805  1.3102  0.7750
 6169TIP3    H218451   1.777   4.943   4.711  1.9731  0.0030  0.4905
 6170TIP3   OH218452   3.031   5.375   6.107 -0.6272  0.2358  0.3401
 6170TIP3    H118453   3.038   5.445   6.041  0.0006 -0.6377 -0.5468
 6170TIP3    H218454   3.110   5.323   6.094 -1.0374 -0.5765  1.0644
 6171TIP3   OH218455   7.675   5.761   2.065  0.3682  0.2271 -0.0698
 6171TIP3    H118456   7.643   5.685   2.114  0.5071  0.3662  0.2400
 6171TIP3    H218457   7.613   5.831   2.084  0.3235  0.2328 -0.2350
 6172TIP3   OH218458   3.952   0.118   2.387 -0.5150 -0.4479 -0.3975
 6172TIP3    H118459   3.970   0.168   2.467  2.7990 -2.0744  0.0435
 6172TIP3    H218460   3.899   0.044   2.416  1.0330 -1.2731  0.4776
 6173TIP3   OH218461   5.498   2.265   4.106 -0.2176 -0.2679  0.7500
 6173TIP3    H118462   5.560   2.213   4.156  0.3662 -1.1491 -0.8314
 6173TIP3    H218463   5.419   2.211   4.101  0.5713 -1.2955 -1.3503
 6174TIP3   OH218464   0.044   0.526   3.700 -0.4133 -0.1905  0.3094
 6174TIP3    H118465   0.054   0.457   3.765  2.8274  1.3053  1.6332
 6174TIP3    H218466  -0.005   0.485   3.629  0.0387 -3.3651  1.6435
 6175TIP3   OH218467   7.647   7.634   3.401  0.0249  0.5290  0.2843
 6175TIP3    H118468   7.690   7.570   3.344 -0.1866  1.0049 -0.4133
 6175TIP3    H218469   7.707   7.708   3.404 -0.7862  1.2500 -0.7951
 6176TIP3   OH218470   3.395   0.600   4.210  0.0502 -0.4612 -0.2432
 6176TIP3    H118471   3.336   0.597   4.134  2.3151 -0.2179 -2.1540
 6176TIP3    H218472   3.364   0.673   4.262 -0.5147  0.5791 -1.9565
 6177TIP3   OH218473   1.310   1.733   3.753  0.0237 -0.3108  0.1470
 6177TIP3    H118474   1.300   1.822   3.721 -0.2696  0.3369  1.9378
 6177TIP3    H218475   1.346   1.743   3.841 -2.0195 -1.8454  1.2365
 6178TIP3   OH218476   3.362   6.524   1.086  0.1144 -0.2360 -0.0392
 6178TIP3    H118477   3.432   6.461   1.070 -0.5377 -0.9123 -0.2976
 6178TIP3    H218478   3.283   6.471   1.093 -0.8145  0.6752 -2.4027
 6179TIP3   OH218479   4.237   5.999   0.019  0.3831 -0.2844  0.1651
 6179TIP3    H118480   4.276   6.072   0.066 -1.2657  0.7999 -0.0938
 6179TIP3    H218481   4.144   6.001   0.043 -0.0032 -1.2869 -1.1044
 6180TIP3   OH218482   3.974   7.601   5.879 -0.9545  0.5618 -0.6710
 6180TIP3    H118483   4.016   7.643   5.804  0.5113  1.4058  0.5508
 6180TIP3    H218484   3.881   7.602   5.859 -0.5024 -1.0895 -3.3660
 6181TIP3   OH218485   0.497   3.695   1.743 -0.4301 -0.3781  0.0739
 6181TIP3    H118486   0.408   3.728   1.730  0.2481  1.0717 -1.3624
 6181TIP3    H218487   0.523   3.727   1.829 -0.4900  1.3237 -0.4945
 6182TIP3   OH218488   7.605   7.101   3.276 -0.0853  0.2269  0.2228
 6182TIP3    H118489   7.631   7.080   3.366  1.3892 -0.6466 -0.3639
 6182TIP3    H218490   7.529   7.045   3.260  0.5595 -0.7561  0.4591
 6183TIP3   OH218491   0.144   1.620   0.253  0.2464  0.4009 -0.2979
 6183TIP3    H118492   0.128   1.617   0.159 -1.1718 -1.9663 -0.0447
 6183TIP3    H218493   0.231   1.582   0.264 -0.3735 -1.1167 -0.5288
 6184TIP3   OH218494   0.966   7.260   3.044 -0.1330  0.0401 -0.3711
 6184TIP3    H118495   0.956   7.328   2.977 -0.2478 -1.6239 -2.1479
 6184TIP3    H218496   0.980   7.179   2.994 -1.8785 -1.5877  1.5882
 6185TIP3   OH218497   6.513   2.061   3.189  0.1679  0.3393  0.1242
 6185TIP3    H118498   6.439   2.105   3.146  0.1852 -0.6687 -0.9890
 6185TIP3    H218499   6.570   2.033   3.117  0.5939 -0.7043  0.8378
 6186TIP3   OH218500   1.060   0.830   5.765  0.1623 -0.0124 -0.1261
 6186TIP3    H118501   1.085   0.854   5.676  1.5716  1.5732  0.6240
 6186TIP3    H218502   1.058   0.735   5.764  0.0305 -0.0318 -1.8753
 6187TIP3   OH218503   5.365   6.293   2.357 -0.3308  0.0952  0.3674
 6187TIP3    H118504   5.296   6.308   2.292 -0.1921 -1.4020 -0.1796
 6187TIP3    H218505   5.421   6.370   2.353  0.4578 -0.5187 -2.3127
 6188TIP3   OH218506   8.132   5.177   6.124 -0.2064 -0.4930 -0.1332
 6188TIP3    H118507   8.220   5.152   6.099  0.3876 -0.1341  1.4584
 6188TIP3    H218508   8.133   5.273   6.124 -0.3997 -0.4839  0.4731
 6189TIP3   OH218509   4.161   2.981   2.691 -0.2331  0.6742  0.1733
 6189TIP3    H118510   4.096   2.977   2.621 -0.7479  0.8366  0.6368
 6189TIP3    H218511   4.245   2.983   2.645 -0.4639 -1.0409 -0.4168
 6190TIP3   OH218512   2.385   1.781   3.413  0.5962  0.0307  0.7302
 6190TIP3    H118513   2.430   1.806   3.332  2.2772  0.1218  1.6506
 6190TIP3    H218514   2.300   1.825   3.407  1.4371  1.6588 -0.1122
 6191TIP3   OH218515   3.719   0.208   5.807 -0.0426  0.0426 -0.1577
 6191TIP3    H118516   3.670   0.287   5.827 -0.7161 -0.8920  2.2835
 6191TIP3    H218517   3.657   0.152   5.761 -0.0778  0.2807 -0.4036
 6192TIP3   OH218518  -0.018   0.236   5.098 -0.3089  0.2004 -0.1164
 6192TIP3    H118519   0.030   0.171   5.046 -0.7566  0.1913 -0.5249
 6192TIP3    H218520   0.043   0.309   5.105 -0.0333 -0.0187 -0.1811
 6193TIP3   OH218521   1.083   2.224   2.055  0.4158  0.4723 -0.8794
 6193TIP3    H118522   1.136   2.182   2.123 -0.5605 -0.8816 -0.8972
 6193TIP3    H218523   1.118   2.190   1.973  1.9951  2.5791 -1.1501
 6194TIP3   OH218524   6.277   3.372   6.015  0.4034 -0.6746 -0.0062
 6194TIP3    H118525   6.253   3.339   6.102  0.4666  2.8123  1.4895
 6194TIP3    H218526   6.202   3.349   5.959 -0.0221 -2.2337  1.1182
 6195TIP3   OH218527   4.640   6.148   3.276 -0.8287 -0.1463  0.0693
 6195TIP3    H118528   4.571   6.205   3.244 -1.0293 -1.2601 -1.6585
 6195TIP3    H218529   4.598   6.063   3.287  0.4311 -1.1619 -2.1919
 6196TIP3   OH218530   7.245   0.926   3.648  0.5342 -0.3881  0.1039
 6196TIP3    H118531   7.307   0.918   3.576  0.3041 -4.0960  0.0992
 6196TIP3    H218532   7.166   0.881   3.617  0.0392 -1.1030  2.2127
 6197TIP3   OH218533   0.374   7.397   0.036  0.0443  0.5675 -0.0782
 6197TIP3    H118534   0.350   7.468   0.095 -3.2225 -2.0787  2.1018
 6197TIP3    H218535   0.316   7.407  -0.039 -0.5722  0.1058  0.3317
 6198TIP3   OH218536   7.778   5.983   5.140 -0.4563  0.4920  0.2321
 6198TIP3    H118537   7.742   5.909   5.189 -1.3553  1.2148  0.7114
 6198TIP3    H218538   7.865   5.955   5.113 -0.4274 -0.3859  1.1924
 6199TIP3   OH218539   1.713   0.021   4.475 -0.3322  0.4917 -0.4069
 6199TIP3    H118540   1.623   0.013   4.444 -0.0322 -2.0073 -0.7976
 6199TIP3    H218541   1.765  -0.034   4.416  1.3640  1.3454  0.2148
 6200TIP3   OH218542   6.194   7.526   0.877  0.2505 -0.3698 -0.3742
 6200TIP3    H118543   6.224   7.513   0.787  1.4907 -0.0532 -0.0324
 6200TIP3    H218544   6.258   7.478   0.930 -1.3679 -1.9276  0.2721
 6201TIP3   OH218545   1.079   5.470   5.008  0.2511 -0.4974 -0.3808
 6201TIP3    H118546   1.079   5.529   5.083  2.4390 -1.3633  0.3809
 6201TIP3    H218547   0.990   5.436   5.004 -0.1347  0.2219  1.2855
 6202TIP3   OH218548   7.469   4.090   4.480 -0.0446  0.2365 -0.0359
 6202TIP3    H118549   7.493   4.042   4.559  1.3657 -1.6061 -1.5045
 6202TIP3    H218550   7.544   4.146   4.462  0.2197 -0.3393 -0.7748
 6203TIP3   OH218551   0.120   3.007   1.890 -0.2207 -0.1498  0.0249
 6203TIP3    H118552   0.093   2.950   1.961 -0.3296  0.6541  0.6395
 6203TIP3    H218553   0.040   3.049   1.860 -0.1197 -0.1979 -0.3182
 6204TIP3   OH218554   2.658   4.092   0.023  0.1548 -0.2176  0.2304
 6204TIP3    H118555   2.695   4.016   0.068  0.9129 -0.3888 -0.6605
 6204TIP3    H218556   2.623   4.057  -0.059 -0.1225  0.2844  0.1294
 6205TIP3   OH218557   5.144   3.275   5.630 -0.2830  0.6759  0.0106
 6205TIP3    H118558   5.100   3.345   5.679 -2.6762 -1.2228  0.8077
 6205TIP3    H218559   5.086   3.258   5.556  0.1615 -0.5684 -0.0680
 6206TIP3   OH218560   0.909   5.411   3.277  0.0184  0.2168 -0.2355
 6206TIP3    H118561   0.971   5.384   3.345  0.6432 -0.3417 -1.0134
 6206TIP3    H218562   0.930   5.502   3.259  1.2461 -0.2143 -1.1323
 6207TIP3   OH218563   0.408   1.332   3.812 -0.5140  0.3318  0.8799
 6207TIP3    H118564   0.492   1.372   3.792 -0.0157 -0.0175  2.2078
 6207TIP3    H218565   0.378   1.376   3.892 -1.5810  0.4260  0.4554
 6208TIP3   OH218566   6.491   4.506   6.152  0.1966  0.1610  0.5110
 6208TIP3    H118567   6.499   4.577   6.216 -0.9711 -0.0002  0.8670
 6208TIP3    H218568   6.399   4.480   6.158  0.4513 -0.9090 -0.1257
 6209TIP3   OH218569   1.352   7.700   0.766  0.2551 -0.0747 -0.4025
 6209TIP3    H118570   1.356   7.728   0.675  0.0386  0.2630 -0.3112
 6209TIP3    H218571   1.283   7.633   0.768  0.6988 -0.5426 -0.6016
 6210TIP3   OH218572   2.617   4.445   4.413  0.6373 -0.9149  0.5658
 6210TIP3    H118573   2.543   4.384   4.405  2.0961 -2.6437 -0.5406
 6210TIP3    H218574   2.616   4.496   4.332  1.4749 -1.9854 -0.1578
 6211TIP3   OH218575   2.668   4.084   5.649 -0.1491 -0.0537  0.0297
 6211TIP3    H118576   2.647   4.071   5.556  1.5551 -0.0535 -0.3936
 6211TIP3    H218577   2.718   4.165   5.651 -0.5194  0.1690  1.0298
 6212TIP3   OH218578   0.929   6.646   4.206 -0.6296 -0.1605 -0.1767
 6212TIP3    H118579   0.935   6.736   4.174 -2.5019 -0.3098 -1.0966
 6212TIP3    H218580   0.859   6.607   4.153 -0.0748 -2.0589  0.4271
 6213TIP3   OH218581   2.714   6.931   3.376  0.1692  0.8854  0.0269
 6213TIP3    H118582   2.689   7.014   3.417 -0.4206  0.1846  1.1301
 6213TIP3    H218583   2.763   6.884   3.443 -1.7295 -0.7360  0.3692
 6214TIP3   OH218584   2.660   7.224   3.053 -0.1274 -0.1276 -0.2637
 6214TIP3    H118585   2.735   7.165   3.054  1.6785  1.9984 -1.1134
 6214TIP3    H218586   2.672   7.279   3.131 -1.2134 -0.2105 -0.0262
 6215TIP3   OH218587   2.317   7.455   0.061  0.7861 -0.0715  0.2896
 6215TIP3    H118588   2.382   7.394   0.095  0.5315  0.6118  2.1276
 6215TIP3    H218589   2.235   7.429   0.103  0.7869  1.8610  1.6746
 6216TIP3   OH218590   3.630   7.043   2.015  0.3496 -0.0242 -0.1302
 6216TIP3    H118591   3.555   7.017   1.960  1.7850 -0.4283 -2.0304
 6216TIP3    H218592   3.659   6.962   2.056  0.8690 -0.2576 -0.9199
 6217TIP3   OH218593   5.571   3.221   1.901  0.5869  0.2318 -0.9783
 6217TIP3    H118594   5.541   3.308   1.926 -1.4554 -0.7077  0.0555
 6217TIP3    H218595   5.655   3.211   1.946  0.2396  1.1975 -0.0655
 6218TIP3   OH218596   2.770   5.121   5.270 -0.0459 -0.1263 -0.2823
 6218TIP3    H118597   2.678   5.103   5.293 -0.1182 -0.6106 -0.9408
 6218TIP3    H218598   2.769   5.210   5.236 -0.1463  0.1407  0.4078
 6219TIP3   OH218599   6.915   6.565   3.191  0.6817  0.2052  0.1224
 6219TIP3    H118600   6.900   6.642   3.136 -0.5095 -0.1448 -0.0609
 6219TIP3    H218601   6.855   6.575   3.264  1.1563 -0.1157  0.5646
 6220TIP3   OH218602   5.636   5.908   1.190 -0.0001 -0.0561  0.1930
 6220TIP3    H118603   5.575   5.978   1.212  1.0737  0.3604  2.0210
 6220TIP3    H218604   5.603   5.832   1.238 -0.1547 -0.3433 -0.3589
 6221TIP3   OH218605   1.282   0.417   0.714 -0.1886  0.0978  0.0411
 6221TIP3    H118606   1.289   0.379   0.626 -0.7667 -1.0960  0.4906
 6221TIP3    H218607   1.188   0.422   0.731 -0.0780  0.1156  0.6797
 6222TIP3   OH218608   7.512   0.101   6.354 -0.2740 -0.1901  0.3594
 6222TIP3    H118609   7.541   0.025   6.304 -0.8957 -0.6478  0.6722
 6222TIP3    H218610   7.575   0.109   6.426  0.0780 -0.1043  0.0401
 6223TIP3   OH218611   0.970   1.630   4.588 -0.0727 -0.0748 -0.6563
 6223TIP3    H118612   1.019   1.618   4.507  1.7414  2.6161 -0.0639
 6223TIP3    H218613   0.878   1.633   4.561  0.4355 -0.1591 -2.4682
 6224TIP3   OH218614   0.794   6.578   6.690 -0.1293  0.0749  0.0906
 6224TIP3    H118615   0.736   6.573   6.614 -2.2649  2.6435  1.3709
 6224TIP3    H218616   0.750   6.527   6.758  0.9368 -0.8537  0.1123
 6225TIP3   OH218617   1.437   1.114   4.837 -0.0146  0.6395 -0.7555
 6225TIP3    H118618   1.435   1.036   4.781  0.3954 -0.8037  1.1411
 6225TIP3    H218619   1.350   1.117   4.877  0.0289  1.0574 -0.6870
 6226TIP3   OH218620   6.367   1.064   6.270  0.6325  0.5133  0.8004
 6226TIP3    H118621   6.365   1.143   6.218  0.3635  1.0620  1.6175
 6226TIP3    H218622   6.278   1.028   6.263  0.0450  1.5644  2.3007
 6227TIP3   OH218623   2.538   7.399   4.328  0.3396  0.0311  0.0920
 6227TIP3    H118624   2.572   7.488   4.320  1.6440 -0.1519  2.6631
 6227TIP3    H218625   2.594   7.347   4.270  0.8546  0.5962  0.0705
 6228TIP3   OH218626   6.180   0.615   4.911  0.4379 -0.2590  0.0965
 6228TIP3    H118627   6.130   0.571   4.843  0.4058 -0.8458  0.4988
 6228TIP3    H218628   6.127   0.692   4.934  0.8202  0.3952 -1.0856
 6229TIP3   OH218629   0.511   0.494   0.383 -0.0884  0.0125 -0.2365
 6229TIP3    H118630   0.515   0.475   0.477  1.8829 -2.4050 -0.6884
 6229TIP3    H218631   0.429   0.455   0.354 -0.5081  0.4064  0.3841
 6230TIP3   OH218632   6.660   3.922   1.710  0.3554 -0.4634  0.2747
 6230TIP3    H118633   6.574   3.963   1.699 -0.7326 -2.6694  0.0040
 6230TIP3    H218634   6.712   3.988   1.756 -1.4084  1.0063  0.2891
 6231TIP3   OH218635   0.589   1.641   6.660  0.3142  0.3577 -0.1681
 6231TIP3    H118636   0.536   1.720   6.656  1.0159  0.9616  1.3431
 6231TIP3    H218637   0.561   1.598   6.741  1.6398  0.3512  0.3129
 6232TIP3   OH218638   6.287   6.191   2.194  0.4952  0.3006 -0.5774
 6232TIP3    H118639   6.313   6.099   2.187 -1.0812 -0.4703  2.1979
 6232TIP3    H218640   6.369   6.239   2.206  1.2817 -0.8195 -1.2986
 6233TIP3   OH218641   1.206   3.624   0.064  0.1850 -0.1731  0.3696
 6233TIP3    H118642   1.173   3.712   0.082 -0.9383 -0.3230 -0.8346
 6233TIP3    H218643   1.224   3.624  -0.030 -0.3247 -1.3921  0.2583
 6234TIP3   OH218644   1.360   5.559   1.846 -0.1244 -0.2813  0.1086
 6234TIP3    H118645   1.336   5.629   1.786 -0.5777  0.6828  1.3916
 6234TIP3    H218646   1.302   5.569   1.921  0.5539 -1.3403  0.8108
 6235TIP3   OH218647   4.160   7.863   5.114  0.1159  0.1912 -0.2910
 6235TIP3    H118648   4.237   7.811   5.090 -0.9471  0.0176 -4.1023
 6235TIP3    H218649   4.095   7.797   5.139  0.5730  0.1918  0.9425
 6236TIP3   OH218650   6.407   7.554   5.787 -0.8200  0.3123 -0.3679
 6236TIP3    H118651   6.471   7.515   5.728  0.3357  0.1943  0.9063
 6236TIP3    H218652   6.373   7.481   5.838 -0.9405  0.5534 -0.0959
 6237TIP3   OH218653   4.057   3.032   6.166  0.1188  0.0841 -0.2206
 6237TIP3    H118654   4.027   3.080   6.243 -2.1931 -0.9431 -0.4044
 6237TIP3    H218655   4.117   3.092   6.122  0.9175  0.9688  1.9662
 6238TIP3   OH218656   0.307   0.738   2.940 -0.0401  0.4699 -0.2414
 6238TIP3    H118657   0.347   0.816   2.904  1.0308  0.0862  0.0957
 6238TIP3    H218658   0.302   0.677   2.866 -0.7461  0.7932 -0.4702
 6239TIP3   OH218659   4.887   2.609   6.077  0.3099  0.0516  0.1530
 6239TIP3    H118660   4.906   2.564   6.160  1.6072  1.5301  0.7173
 6239TIP3    H218661   4.802   2.575   6.050 -0.9848  0.7359  2.9729
 6240TIP3   OH218662   0.240   0.686   2.406 -0.4542 -0.4784 -0.2690
 6240TIP3    H118663   0.198   0.771   2.393  0.1969 -0.1138 -0.0093
 6240TIP3    H218664   0.173   0.622   2.381 -0.7694  0.1142 -0.9659
 6241TIP3   OH218665   6.859   6.749   4.704  0.0307  0.5227  0.1508
 6241TIP3    H118666   6.908   6.690   4.647 -1.8935 -0.9047 -0.1072
 6241TIP3    H218667   6.840   6.698   4.782 -0.0560  1.4314  0.7452
 6242TIP3   OH218668   7.917   4.956   5.196 -0.2611  0.1989  0.0453
 6242TIP3    H118669   7.909   5.044   5.159 -1.2179  0.3713  0.6220
 6242TIP3    H218670   7.834   4.942   5.241  0.3170 -0.5626  0.8979
 6243TIP3   OH218671   2.043   3.004   0.024  0.3762 -0.6153  0.1840
 6243TIP3    H118672   2.060   2.910   0.029  0.7000 -0.5163  1.1421
 6243TIP3    H218673   2.069   3.037   0.109 -0.8940  0.1618  0.2884
 6244TIP3   OH218674   7.577   5.551   2.231  0.1434  0.0631 -0.6653
 6244TIP3    H118675   7.488   5.566   2.264 -0.2434 -0.5850 -1.4007
 6244TIP3    H218676   7.619   5.500   2.301 -0.7702 -1.5805 -1.2474
 6245TIP3   OH218677   6.001   6.965   0.103  0.1637  0.0296 -0.0079
 6245TIP3    H118678   5.946   7.042   0.091 -1.0444 -0.7240  0.5211
 6245TIP3    H218679   6.080   6.985   0.053 -0.4619  1.2547 -0.5726
 6246TIP3   OH218680   7.358   6.990   1.511 -0.2064  0.3186  0.1042
 6246TIP3    H118681   7.325   6.942   1.587 -1.1924  2.0419  0.8371
 6246TIP3    H218682   7.339   6.934   1.437  0.2837 -1.1769  1.0664
 6247TIP3   OH218683   4.228   4.981   5.064 -0.3063  0.2461  0.2251
 6247TIP3    H118684   4.153   5.023   5.106  2.3435  1.4807  4.3531
 6247TIP3    H218685   4.286   5.053   5.040  0.3683 -0.7318 -1.2383
 6248TIP3   OH218686   8.081   6.601   4.974  0.5180  0.1887  0.7306
 6248TIP3    H118687   8.104   6.521   4.926 -0.6678  0.4696 -0.3620
 6248TIP3    H218688   8.071   6.667   4.906 -1.9307  0.4346  1.2339
 6249TIP3   OH218689   5.918   7.398   3.761  0.1337 -0.0435 -0.1434
 6249TIP3    H118690   5.848   7.353   3.713 -0.1782  0.6971 -0.3920
 6249TIP3    H218691   5.996   7.384   3.708  0.3277 -1.4449  0.4735
 6250TIP3   OH218692   1.458   3.864   5.593  0.0757 -0.0572  0.1132
 6250TIP3    H118693   1.390   3.923   5.562 -0.9771 -1.5864 -0.6085
 6250TIP3    H218694   1.525   3.922   5.630 -0.7182  1.5901 -0.9047
 6251TIP3   OH218695   2.633   2.364   1.596 -0.4481  0.3614 -0.0874
 6251TIP3    H118696   2.610   2.384   1.505 -0.1651  2.3292  0.2400
 6251TIP3    H218697   2.554   2.322   1.632 -0.4106 -0.8505 -1.3256
 6252TIP3   OH218698   0.793   5.245   4.097 -0.3955  0.2318  0.1435
 6252TIP3    H118699   0.831   5.180   4.037 -0.1102 -0.3937  0.9828
 6252TIP3    H218700   0.702   5.216   4.109 -0.4858  0.4243 -0.0864
 6253TIP3   OH218701  -0.016   3.944   5.424  0.5994  0.3520  0.4332
 6253TIP3    H118702   0.022   4.031   5.429  1.1141  0.2268 -0.9454
 6253TIP3    H218703   0.042   3.895   5.365 -1.9123  0.3400 -2.2660
 6254TIP3   OH218704   2.657   0.714   6.314 -0.0818 -0.0411 -0.0567
 6254TIP3    H118705   2.657   0.749   6.225  1.4834  1.4927  0.4758
 6254TIP3    H218706   2.611   0.631   6.307 -1.1641  0.6443 -2.0304
 6255TIP3   OH218707   7.332   6.705   0.600  0.1679  0.0578 -0.1715
 6255TIP3    H118708   7.289   6.643   0.660  2.0158 -0.8126  0.3375
 6255TIP3    H218709   7.317   6.668   0.513 -1.0460  0.3876 -0.1240
 6256TIP3   OH218710   1.318   1.931   6.615 -0.1078 -0.4176 -0.2473
 6256TIP3    H118711   1.268   1.999   6.569  0.2123 -0.1195 -0.1529
 6256TIP3    H218712   1.371   1.978   6.679 -1.2408 -0.9118  1.0895
 6257TIP3   OH218713   0.121   2.682   4.728 -0.2389 -0.2585 -0.2086
 6257TIP3    H118714   0.163   2.748   4.673 -0.4594  0.2587  0.2290
 6257TIP3    H218715   0.153   2.700   4.817 -0.6263 -0.4691 -0.0205
 6258TIP3   OH218716   1.920   0.463   3.439 -0.4942 -0.0989 -0.2113
 6258TIP3    H118717   1.965   0.389   3.399 -1.1497 -0.8269  0.3608
 6258TIP3    H218718   1.907   0.436   3.530  0.0382  1.0886  0.2291
 6259TIP3   OH218719   6.160   1.084   3.201  0.9243 -0.4990  0.2186
 6259TIP3    H118720   6.176   0.990   3.192  0.6950 -0.6053  0.8936
 6259TIP3    H218721   6.205   1.123   3.126 -1.1838 -1.3571 -1.6114
 6260TIP3   OH218722   1.811   2.076   1.893 -0.1689  0.0016 -0.5589
 6260TIP3    H118723   1.877   2.144   1.904  1.2661 -1.1076 -1.8941
 6260TIP3    H218724   1.775   2.091   1.805 -0.5289 -0.3999 -0.4846
 6261TIP3   OH218725   8.197   4.613   3.007 -0.4456 -0.0977  0.5053
 6261TIP3    H118726   8.223   4.704   3.025 -0.4182  0.1186 -0.5418
 6261TIP3    H218727   8.173   4.577   3.092  0.7852  0.5015  1.1318
 6262TIP3   OH218728   1.202   0.128   2.161  0.4602 -0.1688 -0.7150
 6262TIP3    H118729   1.199   0.069   2.086 -2.5676 -0.6316 -0.3398
 6262TIP3    H218730   1.149   0.085   2.228  2.3273  0.6550  1.4367
 6263TIP3   OH218731   4.622   4.084   0.528 -0.3115  0.0439 -0.3715
 6263TIP3    H118732   4.713   4.070   0.552 -0.5839  0.7156  1.1475
 6263TIP3    H218733   4.623   4.164   0.476 -0.1185  0.4841  0.2971
 6264TIP3   OH218734   8.233   2.408   5.105  0.0197 -0.4502 -0.2250
 6264TIP3    H118735   8.306   2.442   5.053  0.6957  0.9909  1.5426
 6264TIP3    H218736   8.255   2.317   5.122 -1.3269 -1.7441 -4.2312
 6265TIP3   OH218737   1.247   7.016   5.126 -0.0651 -0.1256 -0.0170
 6265TIP3    H118738   1.320   6.986   5.180 -0.2453 -0.0704  0.2607
 6265TIP3    H218739   1.286   7.034   5.040  0.0367 -1.1931 -0.2000
 6266TIP3   OH218740   1.006   3.845   4.275  0.6121  0.1593  0.1592
 6266TIP3    H118741   0.988   3.908   4.345 -0.4552  1.1929 -1.0146
 6266TIP3    H218742   0.980   3.889   4.195  2.9374 -0.5553 -1.0593
 6267TIP3   OH218743   8.229   2.744   0.294  0.5206 -0.0466 -0.3020
 6267TIP3    H118744   8.188   2.709   0.214  1.6463  0.2678 -1.0482
 6267TIP3    H218745   8.272   2.669   0.334 -1.8550 -0.6925  1.2519
 6268TIP3   OH218746   5.572   0.931   1.879  0.1420  0.0864  0.1252
 6268TIP3    H118747   5.607   0.998   1.821 -0.2057  0.9406  0.8730
 6268TIP3    H218748   5.542   0.980   1.956  0.5802 -1.0092  1.0145
 6269TIP3   OH218749   3.334   3.914   6.160 -0.0412 -0.0434  0.0298
 6269TIP3    H118750   3.425   3.892   6.139  0.3488  0.5770  0.9608
 6269TIP3    H218751   3.300   3.837   6.206 -0.2755 -0.6219 -1.0929
 6270TIP3   OH218752   3.386   4.576   0.847  0.2026  0.2649 -0.4388
 6270TIP3    H118753   3.319   4.605   0.785 -0.4578 -1.2851 -0.4978
 6270TIP3    H218754   3.350   4.597   0.933 -0.3486 -0.5214 -0.4710
 6271TIP3   OH218755   3.573   4.470   3.875  0.6761  0.2840 -0.2634
 6271TIP3    H118756   3.634   4.411   3.831 -0.3769  0.2998 -1.8223
 6271TIP3    H218757   3.570   4.547   3.819 -0.6638  0.3354 -0.1516
 6272TIP3   OH218758   3.469   6.524   0.332 -0.3543  0.2617  0.1328
 6272TIP3    H118759   3.399   6.587   0.348 -0.7802 -0.2760  0.4165
 6272TIP3    H218760   3.427   6.438   0.343  0.0799 -0.0841 -0.8163
 6273TIP3   OH218761   4.089   6.891   5.376  0.0493 -0.6500 -0.2261
 6273TIP3    H118762   4.099   6.823   5.309 -0.1852 -0.9465  0.0330
 6273TIP3    H218763   3.997   6.884   5.402  0.4113 -1.2773  0.9125
 6274TIP3   OH218764   0.009   0.903   3.304  0.4008  0.5142 -0.0387
 6274TIP3    H118765  -0.050   0.830   3.324 -2.1276  2.7951  1.6126
 6274TIP3    H218766   0.072   0.903   3.376  1.5737 -1.0312 -1.0037
 6275TIP3   OH218767   2.983   0.602   3.229 -0.0850 -0.5081 -0.2186
 6275TIP3    H118768   2.918   0.532   3.233 -0.1915 -0.3593  1.6443
 6275TIP3    H218769   2.951   0.668   3.290  1.5259 -0.1908  0.3373
 6276TIP3   OH218770   7.511   2.676   1.514  0.4745 -0.4753 -0.2542
 6276TIP3    H118771   7.498   2.603   1.454  1.3513 -1.7808  1.0697
 6276TIP3    H218772   7.467   2.649   1.595  2.4124 -0.4092  0.8797
 6277TIP3   OH218773   1.594   7.478   6.043  0.0049 -0.2050 -0.0078
 6277TIP3    H118774   1.641   7.402   6.010  0.8194  0.6676 -0.9212
 6277TIP3    H218775   1.502   7.452   6.040  0.3476 -1.6554  1.0677
 6278TIP3   OH218776   5.984   0.521   4.744  0.2457 -0.2340  0.2138
 6278TIP3    H118777   5.939   0.601   4.719  1.4669  0.1756 -0.7351
 6278TIP3    H218778   5.914   0.464   4.778 -0.5333  1.4757  1.6330
 6279TIP3   OH218779   2.267   2.091   0.795  0.4724 -0.6636  0.0534
 6279TIP3    H118780   2.232   2.134   0.873 -0.2895 -1.2158  0.0217
 6279TIP3    H218781   2.239   2.000   0.802  1.4696 -1.0138 -0.2414
 6280TIP3   OH218782   7.988   7.261   6.563 -0.2287  0.6685 -0.4373
 6280TIP3    H118783   7.977   7.354   6.584  1.9035  1.3659 -1.9991
 6280TIP3    H218784   8.004   7.260   6.469  0.5471 -1.2038 -0.3174
 6281TIP3   OH218785   3.554   2.197   2.087 -0.1044 -0.1058  0.4967
 6281TIP3    H118786   3.641   2.226   2.060  0.4070 -1.0862  0.9958
 6281TIP3    H218787   3.493   2.253   2.040  0.8092  1.0039  0.5981
 6282TIP3   OH218788   2.920   5.645   1.110 -0.1872  0.2638 -0.5371
 6282TIP3    H118789   2.887   5.692   1.187  0.6695 -1.1026  0.7347
 6282TIP3    H218790   2.874   5.684   1.036  1.1912  3.7735  0.2718
 6283TIP3   OH218791   2.040   2.568   6.785  0.5211  0.5673  0.4324
 6283TIP3    H118792   2.080   2.648   6.752 -0.3471  1.2602  1.0137
 6283TIP3    H218793   1.975   2.545   6.719 -0.3463  1.2567  1.0219
 6284TIP3   OH218794   5.752   5.466   6.449 -0.5065 -0.1231  0.2305
 6284TIP3    H118795   5.741   5.371   6.458 -0.7722 -0.0027  1.3599
 6284TIP3    H218796   5.673   5.503   6.487 -0.1035  0.5652  0.4247
 6285TIP3   OH218797   6.484   6.791   1.650 -0.7028  0.2669  0.3154
 6285TIP3    H118798   6.451   6.718   1.703  1.6732 -0.1506  1.3515
 6285TIP3    H218799   6.439   6.783   1.567 -1.8192 -1.3158  1.0258
 6286TIP3   OH218800   1.810   3.869   2.862  0.6532 -0.7771  0.0345
 6286TIP3    H118801   1.895   3.912   2.863  0.2223  0.1793 -1.6061
 6286TIP3    H218802   1.771   3.895   2.779 -1.4767 -0.7417  0.9874
 6287TIP3   OH218803   2.778   4.690   0.042 -0.2114 -0.1933 -0.1542
 6287TIP3    H118804   2.770   4.599   0.015 -2.0529 -0.3679  0.8844
 6287TIP3    H218805   2.720   4.738  -0.017 -1.4758 -0.1029  1.1250
 6288TIP3   OH218806   6.058   3.030   2.362 -0.3101  0.0980 -0.1007
 6288TIP3    H118807   6.091   3.068   2.443  0.2315 -0.1500 -0.1989
 6288TIP3    H218808   6.123   2.963   2.339 -0.2280  0.4678 -0.9737
 6289TIP3   OH218809   1.232   5.199   5.775  0.4114 -0.4586 -0.2701
 6289TIP3    H118810   1.325   5.180   5.790  0.2691 -0.6460  0.4459
 6289TIP3    H218811   1.206   5.140   5.705  1.2403  0.7806 -1.6809
 6290TIP3   OH218812   4.603   3.751   6.525 -0.1685  0.7980  0.3583
 6290TIP3    H118813   4.696   3.739   6.508 -0.4111 -0.0139 -0.4375
 6290TIP3    H218814   4.579   3.676   6.581 -0.5195  0.5233 -0.1491
 6291TIP3   OH218815   0.824   5.140   6.535 -0.0222 -0.2344 -0.1015
 6291TIP3    H118816   0.855   5.078   6.601 -0.6251  0.2399  0.6414
 6291TIP3    H218817   0.781   5.085   6.469  2.2235 -0.9149 -1.1272
 6292TIP3   OH218818   6.066   1.012   2.347 -0.5484  0.1290 -0.6009
 6292TIP3    H118819   5.982   0.977   2.318  0.2412 -1.0115 -1.5945
 6292TIP3    H218820   6.067   1.102   2.314 -1.7168  0.4446  0.1669
 6293TIP3   OH218821   1.241   2.205   2.590  0.0625  0.3909 -0.3350
 6293TIP3    H118822   1.324   2.208   2.638  0.1897 -1.4872 -0.3955
 6293TIP3    H218823   1.187   2.271   2.635  1.7635  2.2019 -0.7580
 6294TIP3   OH218824   4.380   1.401   6.235 -0.1208 -0.0399  0.1845
 6294TIP3    H118825   4.452   1.465   6.233 -0.3052  0.1710 -2.3734
 6294TIP3    H218826   4.373   1.370   6.145 -1.7746 -1.7573  0.8462
 6295TIP3   OH218827   2.759   1.148   5.884 -0.6078 -0.0215  0.8369
 6295TIP3    H118828   2.703   1.100   5.945  0.0257 -1.5172  0.2943
 6295TIP3    H218829   2.819   1.082   5.849  0.4804  1.2240  0.2340
 6296TIP3   OH218830   0.706   4.257   1.279 -0.3961  0.8095  0.3980
 6296TIP3    H118831   0.694   4.181   1.222 -0.6194  0.2886  1.1259
 6296TIP3    H218832   0.764   4.226   1.348 -0.8409  1.1667  0.9433
 6297TIP3   OH218833   7.827   6.419   2.195 -0.4272  0.3196 -0.4715
 6297TIP3    H118834   7.814   6.497   2.250 -0.3093  0.7799 -1.0881
 6297TIP3    H218835   7.905   6.438   2.144  0.2906 -0.6970  0.2046
 6298TIP3   OH218836   7.547   4.424   5.808 -0.3269 -0.1328  0.2464
 6298TIP3    H118837   7.526   4.515   5.788  0.3487  0.0922  0.5168
 6298TIP3    H218838   7.643   4.422   5.808 -0.3224 -0.5033  1.7422
 6299TIP3   OH218839   6.622   2.443   5.501  0.2829  0.5651  0.4490
 6299TIP3    H118840   6.560   2.409   5.566  0.0462 -0.2822 -0.1939
 6299TIP3    H218841   6.569   2.498   5.443 -0.3615 -1.6875 -1.2681
 6300TIP3   OH218842   1.404   5.335   0.592  0.2395  0.3630 -0.6236
 6300TIP3    H118843   1.490   5.363   0.623  0.3684 -0.1217 -0.5319
 6300TIP3    H218844   1.410   5.240   0.589 -0.6147  0.2603  0.3544
 6301TIP3   OH218845   3.778   0.918   1.848 -0.2296 -0.1372 -0.1515
 6301TIP3    H118846   3.727   0.999   1.853  0.8861  0.6343 -0.9506
 6301TIP3    H218847   3.777   0.895   1.755  3.1400  1.4285 -0.7147
 6302TIP3   OH218848   2.716   4.031   2.960  0.5019  0.1426 -0.5691
 6302TIP3    H118849   2.662   4.039   3.039  2.4900 -0.1203  0.9047
 6302TIP3    H218850   2.675   3.960   2.910  1.2482 -2.4280  2.1154
 6303TIP3   OH218851   4.747   4.289   4.478 -0.6954  0.9319  0.4669
 6303TIP3    H118852   4.809   4.253   4.414  0.2390  1.1075  1.2384
 6303TIP3    H218853   4.736   4.219   4.542  0.3010  1.5866  1.4036
 6304TIP3   OH218854   4.924   4.334   6.214  0.5117 -0.0072 -0.1604
 6304TIP3    H118855   4.927   4.382   6.131 -0.3918 -0.1580 -0.2905
 6304TIP3    H218856   4.964   4.392   6.278  0.7932  0.3009 -0.6133
 6305TIP3   OH218857   3.428   3.518   4.216  0.7411  0.0441 -0.0719
 6305TIP3    H118858   3.430   3.559   4.130 -0.4382  0.7087  0.2080
 6305TIP3    H218859   3.444   3.590   4.278  1.3115 -0.3805  0.2920
 6306TIP3   OH218860   6.616   3.075   4.934  0.0232 -0.0622  0.5803
 6306TIP3    H118861   6.710   3.066   4.919 -0.4216 -3.2979 -1.1163
 6306TIP3    H218862   6.592   3.155   4.887  1.7305  0.1425 -0.0240
 6307TIP3   OH218863   3.367   2.405   4.454  0.0899 -0.1675  0.0019
 6307TIP3    H118864   3.437   2.356   4.498  0.1120 -0.1294  0.0090
 6307TIP3    H218865   3.410   2.483   4.420  0.5520 -1.2138 -1.9847
 6308TIP3   OH218866   2.870   1.209   4.567  0.2968 -0.1307 -0.2089
 6308TIP3    H118867   2.962   1.217   4.594  0.4625  0.2532 -0.8693
 6308TIP3    H218868   2.834   1.297   4.580 -0.0055 -0.2994  0.1211
 6309TIP3   OH218869   7.358   7.057   0.395 -0.6788  0.6919  0.0365
 6309TIP3    H118870   7.358   7.012   0.310  0.8729 -0.3071  0.5210
 6309TIP3    H218871   7.450   7.055   0.423 -1.4190 -0.7533  2.6442
 6310TIP3   OH218872   3.800   4.661   1.845  0.3887 -0.1022 -0.0683
 6310TIP3    H118873   3.715   4.700   1.827  1.4493  2.4689  0.0915
 6310TIP3    H218874   3.829   4.703   1.926  1.8178 -0.9005 -0.1394
 6311TIP3   OH218875   7.371   0.144   2.316  0.4476 -0.0438  0.3070
 6311TIP3    H118876   7.420   0.102   2.245 -0.8126 -0.0695 -0.5766
 6311TIP3    H218877   7.307   0.199   2.272 -1.9986 -1.8969  1.3427
 6312TIP3   OH218878   3.495   4.248   0.494 -0.4511  0.4036 -0.3834
 6312TIP3    H118879   3.444   4.178   0.451 -0.4160  1.1498 -1.6766
 6312TIP3    H218880   3.462   4.248   0.584  2.2045 -3.8806  0.8939
 6313TIP3   OH218881   6.375   2.892   4.023 -0.4600 -0.0434 -0.0349
 6313TIP3    H118882   6.310   2.824   4.038 -1.5524  1.2603  1.4629
 6313TIP3    H218883   6.435   2.885   4.097  0.7074 -0.7617 -1.0218
 6314TIP3   OH218884   3.685   1.035   6.492  0.3963 -0.1994 -0.1424
 6314TIP3    H118885   3.629   0.979   6.546 -1.6000  1.4121 -0.4435
 6314TIP3    H218886   3.731   0.974   6.434  0.6699 -1.7510  1.5830
 6315TIP3   OH218887   5.268   3.828   1.242  0.1677  0.6463 -0.4478
 6315TIP3    H118888   5.219   3.803   1.321  0.0218  0.4007 -0.6142
 6315TIP3    H218889   5.203   3.826   1.172  0.4791  0.0160 -0.7254
 6316TIP3   OH218890  -0.002   3.022   3.073 -0.1393  0.1087  0.4022
 6316TIP3    H118891  -0.058   3.084   3.027 -0.9278  0.0809  1.2938
 6316TIP3    H218892   0.070   3.005   3.012 -0.0983  1.6001  0.0038
 6317TIP3   OH218893   2.520   1.734   6.564 -0.3505 -0.2812 -0.0009
 6317TIP3    H118894   2.563   1.657   6.603 -2.2648 -0.8189  1.2196
 6317TIP3    H218895   2.442   1.698   6.521 -0.6557  0.8478 -0.4151
 6318TIP3   OH218896   3.636   7.693   3.476  0.1825  0.8246 -0.8398
 6318TIP3    H118897   3.702   7.629   3.501 -2.3770 -1.0540  1.7028
 6318TIP3    H218898   3.684   7.776   3.470  2.9779 -0.6770 -0.6389
 6319TIP3   OH218899   5.758   0.524   1.980  0.0732  0.1524 -0.0710
 6319TIP3    H118900   5.778   0.436   1.948  0.5779  0.1111  0.3470
 6319TIP3    H218901   5.762   0.517   2.075  0.2971  0.6612 -0.0350
 6320TIP3   OH218902   2.556   7.043   4.114 -0.4000 -0.3397 -0.0361
 6320TIP3    H118903   2.579   7.000   4.196 -0.7497 -1.7602 -0.6603
 6320TIP3    H218904   2.591   7.132   4.123 -0.5187 -0.4309  1.6827
 6321TIP3   OH218905   6.463   0.318   0.881  0.3488 -0.2361  0.0324
 6321TIP3    H118906   6.474   0.406   0.918 -0.3770  0.4823 -1.3897
 6321TIP3    H218907   6.424   0.267   0.952 -0.8426  1.0533  0.3514
 6322TIP3   OH218908   1.836   7.303   0.530 -0.2575 -0.2858  0.1367
 6322TIP3    H118909   1.849   7.293   0.435  0.8167  2.0380 -0.0387
 6322TIP3    H218910   1.914   7.263   0.569 -0.9846 -1.7739  0.0920
 6323TIP3   OH218911   0.341   4.272   1.044 -0.6508 -0.1148  0.4338
 6323TIP3    H118912   0.344   4.211   1.118  2.1360  0.1087  0.6312
 6323TIP3    H218913   0.314   4.356   1.082 -0.8585 -0.3866  0.8809
 6324TIP3   OH218914   5.343   4.253   3.435 -0.5601 -0.6360  0.0666
 6324TIP3    H118915   5.323   4.162   3.412  0.6753 -1.0336  0.4627
 6324TIP3    H218916   5.429   4.248   3.478  2.0446  1.3029 -4.3031
 6325TIP3   OH218917   5.868   3.875   3.730  0.6765  0.0818 -0.5770
 6325TIP3    H118918   5.807   3.846   3.662 -0.7031  0.6953  0.3653
 6325TIP3    H218919   5.887   3.966   3.708  0.1254  0.3199 -0.0692
 6326TIP3   OH218920   5.137   2.558   0.308 -0.4719  0.1789 -0.4408
 6326TIP3    H118921   5.096   2.584   0.226 -0.9089 -0.6440 -0.4963
 6326TIP3    H218922   5.209   2.501   0.283 -0.6632 -0.1500 -0.2625
 6327TIP3   OH218923   4.199   6.922   4.535 -0.1926 -0.7074 -0.3974
 6327TIP3    H118924   4.276   6.898   4.587 -1.1664 -1.1903  0.8520
 6327TIP3    H218925   4.158   6.838   4.513 -0.1217 -0.4780 -1.4697
 6328TIP3   OH218926   4.977   4.644   2.286 -0.0937  0.3784 -0.0714
 6328TIP3    H118927   4.948   4.588   2.358 -0.7788  1.8828  0.8751
 6328TIP3    H218928   5.064   4.673   2.311 -0.0863  0.4117 -0.1345
 6329TIP3   OH218929   1.293   5.529   4.108  0.0588 -0.7043  0.2271
 6329TIP3    H118930   1.245   5.447   4.106  0.8102 -1.1698 -2.8742
 6329TIP3    H218931   1.379   5.508   4.072  0.2844  1.4178 -0.6183
 6330TIP3   OH218932   1.636   7.794   6.067 -0.2933  0.1266  0.4469
 6330TIP3    H118933   1.706   7.743   6.026 -0.3703 -0.0602  0.5471
 6330TIP3    H218934   1.664   7.806   6.157 -0.0991  0.5828  0.3315
 6331TIP3   OH218935   3.811   6.795   2.844  0.5107 -0.5397 -0.1972
 6331TIP3    H118936   3.833   6.804   2.937  0.5367 -0.9911 -0.1606
 6331TIP3    H218937   3.847   6.874   2.804  0.5835 -0.3874  0.1613
 6332TIP3   OH218938   3.218   4.097   2.052 -0.0874 -0.5134  0.1910
 6332TIP3    H118939   3.180   4.036   1.989  0.1849  0.4343 -0.9382
 6332TIP3    H218940   3.307   4.064   2.067 -0.2487 -0.8997  0.3104
 6333TIP3   OH218941   0.092   7.179   0.094 -0.3622  0.2278  0.0883
 6333TIP3    H118942   0.158   7.123   0.053 -1.0688  0.0205 -0.7984
 6333TIP3    H218943   0.049   7.223   0.021 -1.0738  0.5108  0.6641
 6334TIP3   OH218944   3.022   3.973   2.972 -0.2384 -0.3220  0.2172
 6334TIP3    H118945   3.031   3.964   3.067  0.6572  1.3999  0.3370
 6334TIP3    H218946   2.934   3.940   2.953 -1.1261  0.9113  1.9259
 6335TIP3   OH218947   3.844   2.824   3.985 -0.0330 -0.3429  1.0005
 6335TIP3    H118948   3.890   2.905   4.006  0.5376 -0.1478 -0.8564
 6335TIP3    H218949   3.911   2.757   3.988  0.6029  0.0086 -2.1661
 6336TIP3   OH218950   2.694   3.799   2.677 -0.6642 -0.1786 -0.1163
 6336TIP3    H118951   2.749   3.779   2.753 -0.4767 -1.2232 -0.5121
 6336TIP3    H218952   2.605   3.779   2.706 -0.6720  0.0877  0.0475
 6337TIP3   OH218953   1.416   2.763   1.079  0.0229 -0.2112  0.0504
 6337TIP3    H118954   1.369   2.778   1.161  0.2193  1.5494 -0.1206
 6337TIP3    H218955   1.499   2.810   1.091  1.5740 -2.7858  0.1378
 6338TIP3   OH218956   3.967   4.534   3.158  0.0191 -0.2199  0.1550
 6338TIP3    H118957   4.004   4.620   3.178  0.1693 -0.0872 -0.6459
 6338TIP3    H218958   4.043   4.480   3.135  0.1053 -1.0423  2.2075
 6339TIP3   OH218959   0.923   5.372   4.489 -0.3705 -0.3404  0.2594
 6339TIP3    H118960   0.872   5.308   4.441 -1.6582  0.5170  0.4429
 6339TIP3    H218961   0.878   5.455   4.473  1.6523  0.6747 -0.5800
 6340TIP3   OH218962   4.725   6.646   1.784 -0.1043  0.2867  0.6481
 6340TIP3    H118963   4.689   6.569   1.738  0.5742  0.2086  0.2328
 6340TIP3    H218964   4.665   6.717   1.762  0.8712  0.5484 -1.4460
 6341TIP3   OH218965   3.711   1.277   4.112 -0.3467 -0.1955 -0.1544
 6341TIP3    H118966   3.786   1.281   4.053 -0.2652 -0.2182 -0.0541
 6341TIP3    H218967   3.741   1.221   4.185 -0.1924  0.4307  0.2695
 6342TIP3   OH218968   1.403   1.728   1.060  0.3788  0.2766 -0.1227
 6342TIP3    H118969   1.349   1.702   0.985  2.5864 -2.4695 -0.9756
 6342TIP3    H218970   1.361   1.688   1.136 -0.0635  0.1625 -0.4267
 6343TIP3   OH218971   5.344   0.491   3.687  0.1040  0.6818  0.0989
 6343TIP3    H118972   5.386   0.405   3.688  0.9123  1.0319 -1.2493
 6343TIP3    H218973   5.254   0.475   3.716  0.3668 -0.5441  0.2669
 6344TIP3   OH218974   6.087   7.317   5.854 -0.0597  0.0556  0.1458
 6344TIP3    H118975   6.019   7.274   5.803 -0.1320 -1.7914  1.6611
 6344TIP3    H218976   6.127   7.246   5.905  0.6853  1.6178  1.8674
 6345TIP3   OH218977   2.206   3.512   3.436  0.0485  0.4908 -0.1951
 6345TIP3    H118978   2.158   3.527   3.355  0.4034 -2.4099 -1.0500
 6345TIP3    H218979   2.160   3.564   3.501 -1.9074  0.7835 -1.7200
 6346TIP3   OH218980   0.133   7.787   3.698  0.1841  0.1126  0.2206
 6346TIP3    H118981   0.190   7.774   3.622  1.5727 -0.7709  1.3491
 6346TIP3    H218982   0.144   7.879   3.721 -0.5031  0.4713 -0.8207
 6347TIP3   OH218983   0.572   2.664   2.014 -0.0872 -0.0537  0.6180
 6347TIP3    H118984   0.556   2.691   1.924 -0.2737 -0.0697  0.6454
 6347TIP3    H218985   0.618   2.581   2.007 -0.2405 -0.1328  0.5372
 6348TIP3   OH218986   0.335   5.775   3.195 -0.3063  0.0130  0.2897
 6348TIP3    H118987   0.353   5.816   3.110  0.6364  0.9365  0.8975
 6348TIP3    H218988   0.409   5.802   3.249  0.3102 -2.4505  0.7723
 6349TIP3   OH218989   5.099   5.769   1.139  0.4649  0.0024  0.8750
 6349TIP3    H118990   5.028   5.761   1.203 -0.7667 -0.9640 -0.5354
 6349TIP3    H218991   5.133   5.680   1.131 -0.9382 -0.3991 -1.4407
 6350TIP3   OH218992   3.515   6.240   2.529 -0.0470  0.4934 -0.2505
 6350TIP3    H118993   3.602   6.234   2.570  1.0527  0.2273 -2.4883
 6350TIP3    H218994   3.498   6.334   2.523  0.3325  0.5625 -0.2980
 6351TIP3   OH218995   7.791   0.040   6.707  0.4147  0.7048 -0.3672
 6351TIP3    H118996   7.819   0.002   6.791  1.4055  0.7752 -0.6540
 6351TIP3    H218997   7.809  -0.029   6.643 -0.7091  0.5030 -0.4873
 6352TIP3   OH218998   4.652   1.631   5.646 -0.2207  0.5215  0.1357
 6352TIP3    H118999   4.591   1.668   5.583 -0.8044  0.5459  0.7134
 6352TIP3    H219000   4.726   1.601   5.592 -0.8805  0.1808 -0.6048
 6353TIP3   OH219001   3.610   4.057   6.628 -0.4216  0.0807 -0.7649
 6353TIP3    H119002   3.665   4.116   6.576  0.0661  0.0043 -0.3463
 6353TIP3    H219003   3.551   4.017   6.564  0.9297 -0.8819 -1.4741
 6354TIP3   OH219004   3.496   4.709   3.422 -0.5127 -0.3922 -0.1428
 6354TIP3    H119005   3.482   4.653   3.346  0.3480  1.2664 -1.5976
 6354TIP3    H219006   3.590   4.723   3.424 -0.5773 -0.0549  0.9754
 6355TIP3   OH219007   5.634   0.506   3.279 -0.4877  0.1296 -0.2346
 6355TIP3    H119008   5.624   0.412   3.264 -0.2865  0.2193 -0.9855
 6355TIP3    H219009   5.728   0.523   3.266 -0.4967  0.4150  0.0386
 6356TIP3   OH219010   6.640   1.247   0.392 -0.0817 -0.5105 -0.3290
 6356TIP3    H119011   6.569   1.302   0.427  0.3214  0.2345 -0.6613
 6356TIP3    H219012   6.717   1.303   0.394  0.6146 -1.4692  0.4652
 6357TIP3   OH219013   5.200   6.261   5.231 -0.3687 -0.1018 -0.1891
 6357TIP3    H119014   5.150   6.341   5.247  0.6736  0.6137 -0.4020
 6357TIP3    H219015   5.292   6.289   5.236  0.0578 -1.5931  1.3212
 6358TIP3   OH219016   6.178   5.360   5.616  0.0060  0.0656  0.0901
 6358TIP3    H119017   6.144   5.442   5.653  0.5725  0.5921 -0.5316
 6358TIP3    H219018   6.100   5.314   5.585 -0.2282  0.8796 -0.5607
 6359TIP3   OH219019   2.573   6.000   0.277 -0.3453  0.1901  0.0245
 6359TIP3    H119020   2.663   5.995   0.312 -0.0228 -0.8948 -0.8948
 6359TIP3    H219021   2.574   6.075   0.218  0.0698 -0.0590 -0.2868
 6360TIP3   OH219022   4.017   7.463   1.430  0.0890  0.1165  0.2782
 6360TIP3    H119023   4.033   7.377   1.469 -3.0328 -0.2006  1.1450
 6360TIP3    H219024   3.974   7.513   1.500  1.0287  2.1297 -0.4950
 6361TIP3   OH219025   2.184   6.468   1.382 -0.0461  0.7221 -0.1466
 6361TIP3    H119026   2.175   6.553   1.338 -0.6354  1.4999  1.4165
 6361TIP3    H219027   2.102   6.423   1.365  0.0330  0.7056 -0.4867
 6362TIP3   OH219028   5.375   6.189   2.625  0.0609 -0.3021  0.1195
 6362TIP3    H119029   5.290   6.149   2.642  1.2322 -3.5944 -0.9998
 6362TIP3    H219030   5.370   6.219   2.534 -0.2632  0.7199  0.4525
 6363TIP3   OH219031   5.231   6.278   4.298 -0.4644  0.2289 -0.4844
 6363TIP3    H119032   5.261   6.287   4.389 -1.6312  0.5963 -0.1213
 6363TIP3    H219033   5.287   6.338   4.249  1.2662 -1.1433 -0.2981
 6364TIP3   OH219034   3.620   6.435   6.413  0.8586 -0.1197  0.1025
 6364TIP3    H119035   3.606   6.514   6.361  0.7154  1.3643  2.2573
 6364TIP3    H219036   3.715   6.424   6.416  1.0114  1.2297  1.4574
 6365TIP3   OH219037   0.470   3.996   3.185  0.8292 -0.2044  0.0825
 6365TIP3    H119038   0.451   3.982   3.093 -1.7056  1.9307  0.1815
 6365TIP3    H219039   0.540   3.934   3.205 -0.1842 -2.3811 -2.6498
 6366TIP3   OH219040   3.987   1.242   4.101 -0.4160 -0.1080  0.1456
 6366TIP3    H119041   4.046   1.282   4.166  1.4944 -0.0350 -1.5346
 6366TIP3    H219042   4.008   1.149   4.104  0.2877 -0.0035 -0.8904
 6367TIP3   OH219043   1.835   3.864   6.481 -0.1459  0.6530 -0.2292
 6367TIP3    H119044   1.755   3.911   6.506 -0.6304 -0.1646 -0.1996
 6367TIP3    H219045   1.833   3.784   6.535  0.0414  0.0251 -1.1256
 6368TIP3   OH219046   6.895   0.909   0.366  0.1545 -0.1697 -0.6823
 6368TIP3    H119047   6.806   0.940   0.348 -0.4626 -1.1591  0.5128
 6368TIP3    H219048   6.943   0.988   0.390 -1.2497  0.0445  1.8032
 6369TIP3   OH219049   2.006   5.920   0.976  0.6071  0.0660 -0.5757
 6369TIP3    H119050   1.958   5.951   0.899 -2.0281  2.8554  1.9080
 6369TIP3    H219051   1.939   5.880   1.031  1.6973  1.1041  1.6417
 6370TIP3   OH219052   7.783   1.017   3.458  0.3331  0.2251 -0.0568
 6370TIP3    H119053   7.691   1.042   3.455  0.0508 -0.8018 -0.8349
 6370TIP3    H219054   7.830   1.097   3.481 -0.7681  0.7199  0.5108
 6371TIP3   OH219055   6.256   2.938   5.529 -0.1355  0.5371 -0.3481
 6371TIP3    H119056   6.173   2.900   5.500  0.4835 -1.8475  0.7811
 6371TIP3    H219057   6.236   2.977   5.614  0.4509 -3.1546  1.7129
 6372TIP3   OH219058   1.203   0.765   5.365  0.2918  0.3750 -0.2850
 6372TIP3    H119059   1.200   0.710   5.287 -0.7162 -0.6051  0.4115
 6372TIP3    H219060   1.204   0.702   5.438  1.4104  1.2608  0.4964
 6373TIP3   OH219061   7.276   3.113   0.919  0.0693 -0.3116  0.2092
 6373TIP3    H119062   7.362   3.151   0.940  0.2780 -0.8764  0.4001
 6373TIP3    H219063   7.220   3.138   0.993  0.8274 -2.3746  1.5652
 6374TIP3   OH219064   3.095   3.210   0.776 -0.4908 -0.1958 -0.4150
 6374TIP3    H119065   3.178   3.244   0.745  0.2174 -0.1053  1.4455
 6374TIP3    H219066   3.105   3.115   0.773 -0.3161 -0.1847 -0.2022
 6375TIP3   OH219067   6.712   6.645   2.283 -0.0294 -0.5118 -0.2978
 6375TIP3    H119068   6.722   6.568   2.340  2.1182  0.0998  0.2499
 6375TIP3    H219069   6.745   6.616   2.198  3.5754  0.4473  0.5833
 6376TIP3   OH219070   1.212   3.788   3.748 -0.2022  0.1000 -0.5141
 6376TIP3    H119071   1.152   3.769   3.819 -1.4447  1.1221 -1.2501
 6376TIP3    H219072   1.213   3.708   3.695 -0.3361 -0.1795 -0.0934
 6377TIP3   OH219073   2.799   7.406   1.997 -0.6857 -0.1304 -0.6340
 6377TIP3    H119074   2.774   7.472   2.061 -0.1347 -0.4761 -0.0519
 6377TIP3    H219075   2.746   7.426   1.920 -1.3580  0.2878 -0.0738
 6378TIP3   OH219076   3.075   0.610   4.193  0.0054 -0.1582  0.5418
 6378TIP3    H119077   3.128   0.665   4.251  0.1612  0.0486  0.2053
 6378TIP3    H219078   2.984   0.629   4.218 -0.0498  1.7373 -0.8541
 6379TIP3   OH219079   0.783   7.430   4.482  0.1416 -0.2278 -0.4366
 6379TIP3    H119080   0.862   7.391   4.519 -0.1999  1.0433  1.8699
 6379TIP3    H219081   0.813   7.479   4.406  1.3090 -0.9763 -0.4850
 6380TIP3   OH219082   1.296   5.051   1.451  0.8762 -0.1669 -0.2833
 6380TIP3    H119083   1.201   5.046   1.461  0.8111 -0.2242 -0.9189
 6380TIP3    H219084   1.319   4.975   1.398  1.5014 -1.1719  1.3545
 6381TIP3   OH219085   6.429   3.482   2.248  0.2925  0.5689 -0.0856
 6381TIP3    H119086   6.493   3.413   2.232  0.1950  0.1552  1.2090
 6381TIP3    H219087   6.350   3.437   2.275 -0.9622  1.0127 -2.7018
 6382TIP3   OH219088   1.389   0.060   6.180  0.5850 -0.0616 -0.2134
 6382TIP3    H119089   1.468   0.096   6.221 -0.1828 -0.0114  1.3196
 6382TIP3    H219090   1.318   0.115   6.214 -0.1556 -0.3782 -1.2211
 6383TIP3   OH219091   1.704   0.165   1.036 -0.0078 -0.5157  0.1292
 6383TIP3    H119092   1.720   0.115   0.956 -1.3012 -0.1510 -0.3831
 6383TIP3    H219093   1.686   0.254   1.006  0.2581 -0.1948  0.8921
 6384TIP3   OH219094   2.941   0.561   0.516  0.1692 -0.4816  0.0727
 6384TIP3    H119095   2.993   0.583   0.439  0.8848 -2.6215 -0.1237
 6384TIP3    H219096   2.865   0.515   0.481 -0.9092  0.8882  0.5058
 6385TIP3   OH219097   5.840   1.810   4.317 -0.2361 -0.4876 -0.0551
 6385TIP3    H119098   5.881   1.858   4.390 -1.1864  0.3736 -0.0678
 6385TIP3    H219099   5.868   1.858   4.239 -0.3522 -0.5692 -0.1467
 6386TIP3   OH219100   1.711   6.043   2.101 -0.1077 -0.4894  0.5725
 6386TIP3    H119101   1.691   6.134   2.125  0.4228 -0.7549  2.1401
 6386TIP3    H219102   1.791   6.050   2.048 -1.5008  0.1407 -1.5877
 6387TIP3   OH219103   8.197   1.816   1.216  0.1310  0.1327 -0.6073
 6387TIP3    H119104   8.154   1.817   1.301  0.5909  0.9682 -0.3754
 6387TIP3    H219105   8.278   1.767   1.230 -0.0115 -0.1249 -0.6783
 6388TIP3   OH219106   6.796   6.921   1.184  0.1408  0.0460 -0.1244
 6388TIP3    H119107   6.834   7.007   1.201 -0.8064  0.3705  0.3894
 6388TIP3    H219108   6.806   6.908   1.090  2.5023 -0.3577  0.1028
 6389TIP3   OH219109   0.091   6.014   4.574 -0.0457 -0.2225 -0.1517
 6389TIP3    H119110   0.035   6.091   4.568  0.6902  0.3121 -0.2656
 6389TIP3    H219111   0.057   5.954   4.508 -0.8709 -0.1669  0.2041
 6390TIP3   OH219112   1.257   7.398   6.394  0.2926 -0.0857 -0.1316
 6390TIP3    H119113   1.252   7.475   6.451  2.6518  0.2111 -0.2361
 6390TIP3    H219114   1.202   7.333   6.438 -0.2561  1.0569  0.9377
 6391TIP3   OH219115   1.446   2.405   4.832 -0.0856 -0.0874  0.2498
 6391TIP3    H119116   1.412   2.464   4.766 -1.8707  1.2724  2.2491
 6391TIP3    H219117   1.523   2.449   4.868 -0.5282  0.3279  0.7008
 6392TIP3   OH219118   3.763   6.357   1.957 -0.6895  0.4509 -0.2857
 6392TIP3    H119119   3.824   6.409   1.904  1.1456 -0.3115  0.9652
 6392TIP3    H219120   3.683   6.409   1.960  0.0496  1.7368 -1.5990
 6393TIP3   OH219121   5.028   3.919   1.439 -0.5809  0.3001  0.2861
 6393TIP3    H119122   4.995   3.832   1.460 -0.0183  0.1902  0.7389
 6393TIP3    H219123   5.001   3.934   1.349  1.4914 -1.3872 -0.6996
 6394TIP3   OH219124   6.959   3.415   6.480  0.1209  0.1913 -0.4799
 6394TIP3    H119125   7.031   3.370   6.435  0.3335  0.2715 -0.2206
 6394TIP3    H219126   6.926   3.477   6.414  0.6541  0.5464 -0.4251
 6395TIP3   OH219127   5.754   5.312   4.221  0.3066 -0.1744  0.1997
 6395TIP3    H119128   5.800   5.228   4.217  0.0928 -0.3053  0.4331
 6395TIP3    H219129   5.767   5.351   4.135  0.7457 -0.2685  0.2209
 6396TIP3   OH219130   7.797   7.241   4.237  0.1170  0.5963 -0.1319
 6396TIP3    H119131   7.786   7.316   4.180 -0.2609  1.7610  1.4031
 6396TIP3    H219132   7.719   7.241   4.293  0.6128 -0.2976  0.5984
 6397TIP3   OH219133   2.332   7.021   1.681 -0.1313  0.7743  0.0331
 6397TIP3    H119134   2.320   6.926   1.676  0.6578  0.7342 -3.5415
 6397TIP3    H219135   2.427   7.033   1.681 -0.2080  1.6138  1.4404
 6398TIP3   OH219136   7.302   2.074   1.087  0.7691 -0.2151 -0.9558
 6398TIP3    H119137   7.232   2.063   1.152  0.4950  0.6501 -1.0943
 6398TIP3    H219138   7.277   2.017   1.015  1.0076 -1.0904 -0.3698
 6399TIP3   OH219139   7.311   4.138   5.538  0.1139  0.0728 -0.1083
 6399TIP3    H119140   7.355   4.154   5.622 -0.0078 -0.7120  0.1164
 6399TIP3    H219141   7.238   4.199   5.538  1.3050  1.5434 -0.5823
 6400TIP3   OH219142   0.906   3.056   0.059 -0.0296 -0.0839  0.6304
 6400TIP3    H119143   0.869   3.142   0.076 -1.6190 -0.2968 -1.3482
 6400TIP3    H219144   0.935   3.061  -0.033 -1.0196 -1.9192  0.1784
 6401TIP3   OH219145   0.113   1.675   1.812  0.1268 -0.1848 -0.0012
 6401TIP3    H119146   0.067   1.639   1.736  0.6908 -0.9901  0.0344
 6401TIP3    H219147   0.050   1.735   1.851 -0.7611 -0.9901 -0.1649
 6402TIP3   OH219148   7.645   4.592   5.182  0.2082 -0.7110 -0.0859
 6402TIP3    H119149   7.605   4.506   5.188 -0.1257 -0.5055  0.9376
 6402TIP3    H219150   7.736   4.578   5.208  0.0536 -0.6997  0.4828
 6403TIP3   OH219151   2.659   1.587   6.047  0.0549 -0.1415 -0.3011
 6403TIP3    H119152   2.626   1.652   5.984  1.4775  0.5102 -0.4122
 6403TIP3    H219153   2.640   1.625   6.132 -1.9489 -1.0616 -0.2803
 6404TIP3   OH219154   4.267   4.722   5.155  0.3844 -0.1796 -0.1481
 6404TIP3    H119155   4.250   4.814   5.138 -1.3251 -0.2905  0.7006
 6404TIP3    H219156   4.181   4.685   5.176  1.2590 -1.5846  1.2551
 6405TIP3   OH219157   0.180   7.442   3.709 -0.2585  0.1792  0.2360
 6405TIP3    H119158   0.096   7.420   3.670 -1.0624  3.6313 -0.3414
 6405TIP3    H219159   0.164   7.446   3.803 -1.2404  2.2459  0.0383
 6406TIP3   OH219160   3.080   1.883   6.107  0.0485  0.1070 -0.2237
 6406TIP3    H119161   3.016   1.926   6.050  0.8869 -0.4623 -1.6598
 6406TIP3    H219162   3.030   1.857   6.184 -1.0115  1.3675 -0.4528
 6407TIP3   OH219163   8.079   0.085   6.302 -0.2054  0.3005  0.3554
 6407TIP3    H119164   8.124   0.148   6.246 -1.2452  0.0700 -0.7799
 6407TIP3    H219165   8.115   0.000   6.276 -1.1222  0.1317 -0.4406
 6408TIP3   OH219166   5.536   7.068   2.162  0.2103  0.7944  0.1818
 6408TIP3    H119167   5.615   7.117   2.139 -1.3650  2.7552 -1.4079
 6408TIP3    H219168   5.500   7.039   2.078 -0.5635 -0.4575  0.9085
 6409TIP3   OH219169   7.017   6.398   6.130 -0.1960 -0.1112  0.1812
 6409TIP3    H119170   7.100   6.425   6.171  0.1896  0.8437 -1.1572
 6409TIP3    H219171   7.028   6.422   6.038 -2.1099  0.3748  0.0508
 6410TIP3   OH219172   4.890   1.967   1.713  0.3732  0.0674  0.0285
 6410TIP3    H119173   4.930   1.895   1.665 -2.0033 -0.7705 -0.8240
 6410TIP3    H219174   4.932   2.046   1.678  0.9557 -0.7229 -1.1149
 6411TIP3   OH219175   3.683   2.048   0.989 -0.7180 -0.4091 -0.7092
 6411TIP3    H119176   3.730   1.993   1.052 -0.7442 -0.2908 -0.5856
 6411TIP3    H219177   3.675   1.994   0.911 -1.7504 -1.0041 -0.2119
 6412TIP3   OH219178   3.732   2.843   5.779  0.0262 -0.0681  0.8131
 6412TIP3    H119179   3.738   2.921   5.833  1.7742 -0.1064  0.7136
 6412TIP3    H219180   3.803   2.787   5.809 -0.0497 -0.8290 -0.3523
 6413TIP3   OH219181   0.128   2.384   6.604 -0.6416  0.0989  0.3318
 6413TIP3    H119182   0.066   2.360   6.536 -1.0103  0.1153  0.6594
 6413TIP3    H219183   0.175   2.459   6.569  0.7716 -1.2673 -0.8707
 6414TIP3   OH219184   0.217   3.443   1.352 -0.1191  0.0545  0.1919
 6414TIP3    H119185   0.172   3.428   1.436  2.8108 -0.3812  1.8171
 6414TIP3    H219186   0.287   3.504   1.373  0.2774  0.5008 -2.1600
 6415TIP3   OH219187   7.171   5.134   5.569  0.6962 -0.0988  0.4765
 6415TIP3    H119188   7.166   5.214   5.622  0.2445  0.1824  0.0233
 6415TIP3    H219189   7.260   5.137   5.531  1.8881 -1.4654  2.9627
 6416TIP3   OH219190   3.067   1.576   4.844  0.0432  0.4504  0.0987
 6416TIP3    H119191   3.031   1.526   4.770 -1.7398 -0.0959  1.2631
 6416TIP3    H219192   3.155   1.540   4.856  0.5954  0.9149 -2.0514
 6417TIP3   OH219193   4.628   1.076   5.590 -0.1861  0.0408 -0.7840
 6417TIP3    H119194   4.709   1.115   5.558  0.5174 -1.9879 -1.6819
 6417TIP3    H219195   4.651   0.984   5.606 -2.3601 -0.6396 -1.2520
 6418TIP3   OH219196   1.563   0.203   5.104  0.1641 -0.6816 -0.4384
 6418TIP3    H119197   1.584   0.112   5.083 -2.0186 -1.7181  1.3603
 6418TIP3    H219198   1.604   0.218   5.189  0.0557 -0.1882 -0.4670
 6419TIP3   OH219199   6.999   6.403   3.540 -0.0062  0.4803 -0.5471
 6419TIP3    H119200   7.040   6.474   3.589 -0.0852 -0.2652  0.6426
 6419TIP3    H219201   7.059   6.385   3.469  1.8062 -0.5894  1.1632
 6420TIP3   OH219202   4.731   3.700   1.201 -0.0805  0.0311 -0.2317
 6420TIP3    H119203   4.821   3.670   1.190  0.5873  2.0095 -0.5094
 6420TIP3    H219204   4.730   3.789   1.165 -1.8867  0.4524  0.7157
 6421TIP3   OH219205   2.482   3.970   3.394 -0.0536  0.3877  0.3054
 6421TIP3    H119206   2.526   3.890   3.423 -1.2978 -0.0469  1.0431
 6421TIP3    H219207   2.406   3.979   3.451 -0.3507  1.7071 -0.2444
 6422TIP3   OH219208   7.105   7.405   1.635  0.1784 -0.2586 -0.2291
 6422TIP3    H119209   7.082   7.357   1.714  0.8184 -0.5100 -0.1860
 6422TIP3    H219210   7.201   7.400   1.631  0.3636  1.9212  0.3462
 6423TIP3   OH219211   6.836   0.873   0.753  0.4506 -0.3673 -0.4847
 6423TIP3    H119212   6.778   0.920   0.693  0.2870  1.1696  0.8091
 6423TIP3    H219213   6.785   0.797   0.781 -0.3344  0.1094 -0.5850
 6424TIP3   OH219214   6.098   6.199   1.070  0.3369 -0.0555  0.0898
 6424TIP3    H119215   6.022   6.152   1.038  1.2177  0.6748 -3.4531
 6424TIP3    H219216   6.066   6.251   1.144 -2.3087 -0.5343 -0.6489
 6425TIP3   OH219217   6.538   3.498   4.379 -0.6636  0.5117  0.1399
 6425TIP3    H119218   6.512   3.534   4.464 -3.1602  1.1979 -0.8388
 6425TIP3    H219219   6.534   3.403   4.391 -2.2161  0.5973  0.4860
 6426TIP3   OH219220   1.525   6.879   4.993  0.1588  0.0331  0.1598
 6426TIP3    H119221   1.592   6.942   5.022 -0.4498  0.7221  0.0994
 6426TIP3    H219222   1.466   6.931   4.938  1.0732 -1.1458 -2.0591
 6427TIP3   OH219223   5.887   6.450   4.407 -0.4637 -0.7565 -0.5498
 6427TIP3    H119224   5.960   6.441   4.467  0.5444  0.4802 -1.5324
 6427TIP3    H219225   5.833   6.520   4.445 -0.3304 -0.6334 -0.5858
 6428TIP3   OH219226   7.834   2.799   6.563  0.3618  0.3625  0.2338
 6428TIP3    H119227   7.836   2.879   6.510  1.9701  0.0574 -0.2053
 6428TIP3    H219228   7.805   2.731   6.502  0.6281  0.3060  0.1703
 6429TIP3   OH219229   4.048   3.855   5.274  0.4384  0.6139 -0.2381
 6429TIP3    H119230   4.012   3.943   5.265 -0.1160  0.2977 -1.3108
 6429TIP3    H219231   4.079   3.833   5.186  4.5184  1.3322  0.8500
 6430TIP3   OH219232   8.143   2.271   0.133  0.1670  0.4038  0.0858
 6430TIP3    H119233   8.103   2.341   0.081 -0.8594  0.5327  1.0044
 6430TIP3    H219234   8.230   2.260   0.096  0.8824  3.0941  0.7151
 6431TIP3   OH219235   6.209   1.446   6.757  0.3211 -0.1349  0.2543
 6431TIP3    H119236   6.210   1.488   6.671  0.6846 -0.1212  0.2635
 6431TIP3    H219237   6.172   1.512   6.815  1.8437  0.5871  0.4677
 6432TIP3   OH219238   3.821   3.921   6.486 -0.0713 -0.1363 -0.7334
 6432TIP3    H119239   3.839   3.985   6.417  1.8608 -0.5491 -0.6549
 6432TIP3    H219240   3.832   3.971   6.567 -2.4524  0.3786 -0.6501
 6433TIP3   OH219241   7.333   5.179   1.732 -0.1102 -0.0704 -0.3325
 6433TIP3    H119242   7.412   5.128   1.717  0.6735  1.4365 -1.6024
 6433TIP3    H219243   7.264   5.114   1.747  1.4167 -1.4005  1.2447
 6434TIP3   OH219244   1.408   4.131   5.772  0.3821 -0.0313 -0.3444
 6434TIP3    H119245   1.434   4.176   5.692 -1.1981  0.5494 -0.5604
 6434TIP3    H219246   1.491   4.100   5.810  1.5146  2.5855 -0.4653
 6435TIP3   OH219247   2.491   0.070   5.494 -0.4825 -0.9758 -0.2181
 6435TIP3    H119248   2.440   0.041   5.570 -0.9213  1.2214  0.3915
 6435TIP3    H219249   2.538   0.147   5.525  0.0996 -0.5989 -1.9329
 6436TIP3   OH219250   6.562   0.543   3.974 -0.0719 -0.5722 -0.0666
 6436TIP3    H119251   6.579   0.637   3.966  1.8683 -0.8602  0.3078
 6436TIP3    H219252   6.469   0.538   3.996 -0.2858  1.2395 -0.4031
 6437TIP3   OH219253   1.327   3.461   1.007  0.3999  0.3004 -0.3796
 6437TIP3    H119254   1.308   3.368   1.018  0.6826  0.2011 -0.7150
 6437TIP3    H219255   1.389   3.464   0.935 -0.5095  0.8412 -1.1653
 6438TIP3   OH219256   2.326   2.843   0.751  0.1252  0.0456 -0.3471
 6438TIP3    H119257   2.294   2.765   0.706  1.1245  0.5083 -1.9516
 6438TIP3    H219258   2.248   2.883   0.789 -0.6383 -0.7813 -1.0171
 6439TIP3   OH219259   1.668   5.745   4.041  0.3465  0.1491  0.1292
 6439TIP3    H119260   1.758   5.733   4.070  0.9343  1.5781 -1.0069
 6439TIP3    H219261   1.642   5.830   4.077  0.2540  0.8021 -1.3995
 6440TIP3   OH219262   0.038   4.759   3.916 -0.1752 -0.2580 -0.6213
 6440TIP3    H119263  -0.012   4.686   3.879 -0.7101 -0.6076  0.7458
 6440TIP3    H219264   0.039   4.825   3.846 -1.5656 -0.7003 -1.0922
 6441TIP3   OH219265   7.153   6.711   4.017  0.0463 -0.2569  0.2936
 6441TIP3    H119266   7.234   6.758   3.997  1.0460 -1.1145  2.0738
 6441TIP3    H219267   7.164   6.681   4.107 -1.4427 -2.0733 -0.0590
 6442TIP3   OH219268   1.992   0.182   1.538  0.3008 -0.0302  0.3762
 6442TIP3    H119269   2.075   0.228   1.525 -0.1470  0.3265 -1.6361
 6442TIP3    H219270   2.003   0.099   1.492 -0.8191  0.5090 -0.9373
 6443TIP3   OH219271   5.458   5.229   6.421 -0.2262  0.4400  0.4235
 6443TIP3    H119272   5.463   5.224   6.516  1.7977  1.9795  0.4653
 6443TIP3    H219273   5.538   5.186   6.391 -0.2538  1.0345 -0.5242
 6444TIP3   OH219274   4.088   4.639   4.168  0.0199  0.1584  0.0023
 6444TIP3    H119275   4.042   4.719   4.193  1.4762  0.9467  0.2715
 6444TIP3    H219276   4.080   4.581   4.245 -0.9282  0.0869 -0.1471
 6445TIP3   OH219277   0.155   5.025   5.716 -0.6238  0.4477  0.2122
 6445TIP3    H119278   0.088   5.088   5.744  0.7784  1.4951  1.4010
 6445TIP3    H219279   0.170   5.046   5.624 -2.2633 -0.1537 -0.2246
 6446TIP3   OH219280   7.818   0.124   6.229  0.1638  0.4774  0.0523
 6446TIP3    H119281   7.911   0.114   6.210  0.0047 -1.2953  0.0040
 6446TIP3    H219282   7.783   0.177   6.157  0.7542 -0.6796 -1.1158
 6447TIP3   OH219283   5.747   5.944   0.822 -0.9484  0.4510  0.6948
 6447TIP3    H119284   5.682   5.874   0.830 -0.9607  0.0832 -1.7447
 6447TIP3    H219285   5.798   5.921   0.744  0.7507  1.8364  1.3133
 6448TIP3   OH219286   8.110   1.539   3.028 -0.2884  0.2012  0.1426
 6448TIP3    H119287   8.076   1.461   3.071 -0.5334  0.3990  0.3070
 6448TIP3    H219288   8.075   1.612   3.078  0.4269  0.4110  0.3536
 6449TIP3   OH219289   2.969   6.264   2.727 -0.1152 -0.4872  0.3052
 6449TIP3    H119290   2.948   6.303   2.642  0.1760  0.6877  0.7602
 6449TIP3    H219291   2.907   6.191   2.735  0.3063 -1.0435 -1.2047
 6450TIP3   OH219292   1.146   6.435   1.146 -0.0666 -0.0834  0.3335
 6450TIP3    H119293   1.159   6.473   1.058  0.5183 -2.4276 -0.6645
 6450TIP3    H219294   1.057   6.400   1.143  0.9770 -2.9686 -0.5687
 6451TIP3   OH219295   3.917   2.819   3.603 -0.0176  0.2974  0.0315
 6451TIP3    H119296   3.831   2.843   3.638 -0.0054 -1.5157  1.4434
 6451TIP3    H219297   3.901   2.807   3.509 -1.7679 -1.6904  0.4987
 6452TIP3   OH219298   3.037   2.505   5.047 -0.1807  0.2283  0.1811
 6452TIP3    H119299   2.942   2.505   5.051 -0.2175 -1.5854  0.2552
 6452TIP3    H219300   3.057   2.502   4.953 -0.2070 -0.0641  0.1853
 6453TIP3   OH219301   6.622   1.106   5.555 -0.6695  0.0839 -0.3313
 6453TIP3    H119302   6.638   1.200   5.563 -0.3568  0.0491 -0.5179
 6453TIP3    H219303   6.568   1.084   5.631  0.3048  0.1812  0.4061
 6454TIP3   OH219304   7.309   0.478   6.269 -0.4296 -0.0445  0.8313
 6454TIP3    H119305   7.325   0.409   6.204  2.9708  1.8315 -0.5840
 6454TIP3    H219306   7.354   0.446   6.347 -0.0850 -0.0585  0.6294
 6455TIP3   OH219307   3.604   2.347   1.279 -0.5136  0.1679  0.5315
 6455TIP3    H119308   3.546   2.387   1.215  0.6746 -0.4434 -1.0142
 6455TIP3    H219309   3.692   2.365   1.246  0.1229 -0.8827  1.5600
 6456TIP3   OH219310   0.316   0.479   0.838 -0.2964  0.4524  0.0384
 6456TIP3    H119311   0.347   0.567   0.860 -0.1107  0.5851 -0.7376
 6456TIP3    H219312   0.396   0.429   0.824 -0.3199 -0.3676  2.3544
 6457TIP3   OH219313   1.472   3.099   5.838  0.1323 -0.7810 -0.5350
 6457TIP3    H119314   1.468   3.187   5.800 -0.3320 -0.7036 -0.3112
 6457TIP3    H219315   1.435   3.109   5.926 -1.6807 -1.5324 -1.1611
 6458TIP3   OH219316   4.390   1.870   6.207 -0.3383 -0.0305  0.4183
 6458TIP3    H119317   4.340   1.952   6.200  2.3260  1.6654  0.0710
 6458TIP3    H219318   4.418   1.867   6.298  2.4302  1.3552 -0.2761
 6459TIP3   OH219319   1.333   5.029   5.426  0.1851  0.2955 -0.0512
 6459TIP3    H119320   1.360   5.011   5.336 -0.1542  0.9261 -0.2860
 6459TIP3    H219321   1.405   4.996   5.480 -0.4724 -1.8957 -0.4381
 6460TIP3   OH219322   2.635   6.486   3.055  0.1032  0.3522  0.4889
 6460TIP3    H119323   2.662   6.536   3.131  1.3580  1.5343 -0.6831
 6460TIP3    H219324   2.555   6.529   3.025  0.4906  0.9011  0.2212
 6461TIP3   OH219325   4.630   2.624   1.325 -0.1775  0.0266  0.5375
 6461TIP3    H119326   4.686   2.613   1.402 -0.2179 -1.8011  0.3637
 6461TIP3    H219327   4.541   2.619   1.360 -0.2212  0.9816  0.5761
 6462TIP3   OH219328   3.626   0.132   1.223 -0.1539 -0.1306 -0.3387
 6462TIP3    H119329   3.599   0.044   1.195  1.8894 -0.4567 -1.4994
 6462TIP3    H219330   3.645   0.178   1.142 -0.0493  1.0183  0.3139
 6463TIP3   OH219331   7.067   1.129   0.429  0.1400 -0.1056  0.3641
 6463TIP3    H119332   7.010   1.141   0.505 -0.1385  0.7803  0.0285
 6463TIP3    H219333   7.151   1.167   0.456 -0.2332  1.0920 -0.0824
 6464TIP3   OH219334   0.762   7.443   3.436 -0.4195  0.1540  0.5310
 6464TIP3    H119335   0.742   7.400   3.353  2.0435  0.2266 -0.1706
 6464TIP3    H219336   0.694   7.510   3.445 -1.6713 -0.8989 -0.5887
 6465TIP3   OH219337   2.346   1.162   3.743 -0.5372 -0.4697 -0.2620
 6465TIP3    H119338   2.337   1.237   3.684  2.3841  1.1998  1.1747
 6465TIP3    H219339   2.308   1.193   3.826  1.4507 -0.1347  0.5899
 6466TIP3   OH219340   4.816   3.257   4.314  0.2660  0.1037 -0.6277
 6466TIP3    H119341   4.907   3.229   4.319  0.0067 -1.3333 -2.6431
 6466TIP3    H219342   4.781   3.213   4.236 -2.0666  0.8594 -0.1110
 6467TIP3   OH219343   7.426   1.745   1.175  0.8760 -0.3185 -0.0801
 6467TIP3    H119344   7.444   1.835   1.146  0.3144 -0.7226 -1.7277
 6467TIP3    H219345   7.497   1.727   1.238 -0.9035  2.4583  3.0756
 6468TIP3   OH219346   7.768   2.099   5.565 -0.5923  0.4013 -0.2196
 6468TIP3    H119347   7.698   2.038   5.539  0.2248  0.3754 -2.6183
 6468TIP3    H219348   7.814   2.054   5.635 -1.2687 -0.8438 -0.5337
 6469TIP3   OH219349   5.533   1.768   2.769  0.4252 -0.2995  0.2563
 6469TIP3    H119350   5.546   1.860   2.790  1.5032 -0.1276 -0.9747
 6469TIP3    H219351   5.440   1.761   2.749  0.6818  1.0896 -1.8832
 6470TIP3   OH219352   5.145   6.505   4.957 -0.3030 -0.0036 -0.4436
 6470TIP3    H119353   5.050   6.510   4.944 -0.2183 -0.5891 -1.3814
 6470TIP3    H219354   5.166   6.413   4.944  0.7676  0.5475 -3.1120
 6471TIP3   OH219355   4.023   2.126   4.391  0.4974  0.5823  0.4226
 6471TIP3    H119356   3.973   2.205   4.369  2.4289  1.5428 -0.7516
 6471TIP3    H219357   4.037   2.132   4.485 -0.6866  0.8257  0.5990
 6472TIP3   OH219358   4.552   5.751   2.426 -0.0645  0.4091 -0.6589
 6472TIP3    H119359   4.634   5.712   2.457  0.7617  0.0755 -3.0789
 6472TIP3    H219360   4.569   5.845   2.424  0.6198  0.2861 -1.9672
 6473TIP3   OH219361   2.121   2.249   0.503 -0.1856 -0.5969  0.2349
 6473TIP3    H119362   2.152   2.191   0.433  0.5936 -0.9784  0.8792
 6473TIP3    H219363   2.043   2.206   0.537 -0.1791 -0.7586  0.0535
 6474TIP3   OH219364   5.300   4.389   0.010 -0.2688  0.0136 -0.2828
 6474TIP3    H119365   5.354   4.320  -0.030 -0.8646  0.3468 -1.7160
 6474TIP3    H219366   5.359   4.434   0.070  0.8057 -0.2216 -1.1317
 6475TIP3   OH219367   0.124   3.880   0.358 -0.4550 -0.6693  0.6942
 6475TIP3    H119368   0.159   3.911   0.441 -0.1867 -1.0167  0.7100
 6475TIP3    H219369   0.070   3.805   0.381 -1.3579 -0.0419  0.6906
 6476TIP3   OH219370   5.412   0.463   4.351  0.0018 -0.7790  0.8223
 6476TIP3    H119371   5.367   0.489   4.431  3.6825  2.7936  2.0775
 6476TIP3    H219372   5.388   0.530   4.287 -0.5133 -1.8900 -0.1984
 6477TIP3   OH219373   1.926   6.246   3.998 -0.5728  0.4644  0.1820
 6477TIP3    H119374   1.967   6.261   3.913 -1.3715 -1.9829 -0.7197
 6477TIP3    H219375   1.894   6.332   4.025 -1.7503  1.0918 -2.7995
 6478TIP3   OH219376   6.237   2.683   4.852  0.8217  0.6613  0.2849
 6478TIP3    H119377   6.273   2.715   4.935 -1.7468 -3.1794  3.2585
 6478TIP3    H219378   6.284   2.602   4.836 -0.2329  0.2447 -0.8016
 6479TIP3   OH219379   1.069   5.087   0.632 -0.2022  0.3801 -0.4914
 6479TIP3    H119380   1.072   4.998   0.667  0.4354 -0.9220 -3.5969
 6479TIP3    H219381   0.992   5.089   0.575  0.2137  1.5842 -1.0583
 6480TIP3   OH219382   6.347   4.233   4.663 -0.1169  0.1622  0.0917
 6480TIP3    H119383   6.400   4.189   4.730 -1.7701 -0.4359  1.0803
 6480TIP3    H219384   6.371   4.325   4.670  0.5607 -0.0532  0.7397
 6481TIP3   OH219385   5.775   5.907   3.178  0.1477  0.5684  0.1916
 6481TIP3    H119386   5.839   5.921   3.108 -1.0366 -0.1947 -1.0821
 6481TIP3    H219387   5.697   5.954   3.149 -0.3715  0.2165  0.9954
 6482TIP3   OH219388   2.953   3.471   0.766 -0.5358  0.1567 -0.0136
 6482TIP3    H119389   2.972   3.534   0.836 -1.3718  1.0015 -0.5241
 6482TIP3    H219390   3.039   3.440   0.738  0.0856  2.7271 -1.2502
 6483TIP3   OH219391   4.693   3.377   1.946  0.6612 -0.1087  0.0386
 6483TIP3    H119392   4.689   3.337   1.859  1.1551  0.5875 -0.3121
 6483TIP3    H219393   4.782   3.410   1.954  0.7211 -0.4482  0.9493
 6484TIP3   OH219394   5.834   5.029   5.556 -0.3983  0.3180  0.0378
 6484TIP3    H119395   5.831   4.934   5.550  0.6105  0.0451  2.5934
 6484TIP3    H219396   5.743   5.058   5.549 -1.0829 -1.1186  2.3337
 6485TIP3   OH219397   7.103   7.707   5.770  0.1776 -0.0541  0.5365
 6485TIP3    H119398   7.106   7.799   5.796 -0.9130  1.1495 -3.0772
 6485TIP3    H219399   7.195   7.682   5.760  0.4686  0.8677  0.7788
 6486TIP3   OH219400   4.307   2.195   2.146 -0.3104 -1.0000 -0.3317
 6486TIP3    H119401   4.331   2.282   2.178  0.2947 -0.6982 -1.5396
 6486TIP3    H219402   4.343   2.135   2.212  0.4013 -0.3846 -0.1350
 6487TIP3   OH219403   7.683   1.204   2.110  0.0376  0.6307 -0.1500
 6487TIP3    H119404   7.755   1.157   2.151 -1.3847 -0.9731  0.6178
 6487TIP3    H219405   7.698   1.195   2.016 -0.0526 -1.1886 -0.0189
 6488TIP3   OH219406   5.166   6.186   3.834 -0.0972  0.7836  0.0807
 6488TIP3    H119407   5.072   6.181   3.849 -0.1495  1.3704 -0.0573
 6488TIP3    H219408   5.193   6.268   3.874  0.1388  1.2616 -1.0367
 6489TIP3   OH219409   3.812   2.258   2.037  0.8058  0.1872  0.0206
 6489TIP3    H119410   3.901   2.259   2.071  0.4792  1.1296  0.9202
 6489TIP3    H219411   3.816   2.310   1.957  0.6705  2.1662  1.2336
 6490TIP3   OH219412   5.210   1.044   4.329  0.6983 -0.4376  0.5812
 6490TIP3    H119413   5.300   1.065   4.306  0.4408  0.9395  0.7196
 6490TIP3    H219414   5.176   0.995   4.254  1.4262 -0.5607  0.3316
 6491TIP3   OH219415   3.099   0.432   2.829  0.1733  0.5343 -0.2867
 6491TIP3    H119416   3.063   0.481   2.756 -0.6238 -0.5245 -0.6293
 6491TIP3    H219417   3.168   0.378   2.791  1.5790  1.8815  0.2150
 6492TIP3   OH219418   3.085   2.230   2.926  0.4733 -0.1628 -0.4132
 6492TIP3    H119419   3.122   2.302   2.875 -0.7191  1.1106  0.4179
 6492TIP3    H219420   3.015   2.195   2.871 -0.6384  1.0383  0.1637
 6493TIP3   OH219421   7.833   6.459   1.796 -0.0110 -0.3681 -0.0731
 6493TIP3    H119422   7.809   6.382   1.848  0.6609 -0.2641  0.4004
 6493TIP3    H219423   7.861   6.524   1.861  0.7386 -0.1977 -0.5529
 6494TIP3   OH219424   5.459   0.752   1.397  0.3427  0.2281  0.1944
 6494TIP3    H119425   5.432   0.796   1.317 -0.5987 -1.7000 -0.6221
 6494TIP3    H219426   5.377   0.725   1.439  0.8368 -2.1882 -0.2409
 6495TIP3   OH219427   3.810   0.198   1.445 -0.0128  0.1410 -0.3057
 6495TIP3    H119428   3.788   0.219   1.354  0.4467  1.7230 -0.0857
 6495TIP3    H219429   3.893   0.243   1.460  1.3489 -2.3818  0.1017
 6496TIP3   OH219430   1.364   0.208   5.601 -0.3570  0.3998  0.1828
 6496TIP3    H119431   1.285   0.240   5.644 -0.9033  1.0944 -1.2936
 6496TIP3    H219432   1.348   0.114   5.590 -0.9065  0.5036  0.0484
 6497TIP3   OH219433   6.901   3.760   1.959  0.1884  0.7568 -0.0395
 6497TIP3    H119434   6.871   3.849   1.939 -1.6279 -0.0670 -1.2876
 6497TIP3    H219435   6.822   3.706   1.950  0.8035 -0.7636  2.5280
 6498TIP3   OH219436   0.927   3.541   0.133  0.0125  0.2623  0.0171
 6498TIP3    H119437   0.929   3.478   0.205 -0.0597  1.5153  1.1583
 6498TIP3    H219438   1.002   3.517   0.079 -1.1786 -2.0699 -0.7457
 6499TIP3   OH219439   4.657   5.614   1.497 -0.3110  0.6619 -0.0084
 6499TIP3    H119440   4.563   5.595   1.502 -0.4979  1.9233  2.1730
 6499TIP3    H219441   4.698   5.545   1.549 -0.0833  0.5499 -0.3317
 6500TIP3   OH219442   6.804   4.118   6.279  0.3577  0.1960  0.0754
 6500TIP3    H119443   6.803   4.108   6.184 -0.4712 -0.6557  0.1555
 6500TIP3    H219444   6.711   4.117   6.304  0.5970 -1.0555  1.0166
 6501TIP3   OH219445   6.115   0.012   0.358 -0.0767  0.1354 -0.1192
 6501TIP3    H119446   6.136  -0.006   0.266  0.2366  0.8991 -0.2039
 6501TIP3    H219447   6.113   0.107   0.364  0.0339  0.0948  0.6970
 6502TIP3   OH219448   5.449   5.712   3.075 -0.2816  0.1045 -0.0118
 6502TIP3    H119449   5.485   5.734   3.161  0.8995 -0.0401 -0.4556
 6502TIP3    H219450   5.416   5.795   3.040 -2.1306 -0.0709  1.1661
 6503TIP3   OH219451   1.857   6.832   0.381  0.4893 -0.0928 -0.2019
 6503TIP3    H119452   1.876   6.739   0.394 -0.3175 -0.2202  0.1333
 6503TIP3    H219453   1.910   6.877   0.447 -1.0687 -0.5105  1.4233
 6504TIP3   OH219454   4.851   4.063   5.025  0.1345  0.3802  0.3139
 6504TIP3    H119455   4.915   4.119   4.981 -0.4106  0.7335 -0.0441
 6504TIP3    H219456   4.859   4.086   5.117  1.0218 -0.0931  0.3727
 6505TIP3   OH219457   2.455   6.590   3.381  0.1136 -0.6024 -0.3779
 6505TIP3    H119458   2.461   6.681   3.350  0.1083 -0.1074  1.0087
 6505TIP3    H219459   2.544   6.557   3.375 -0.0310 -0.8367 -1.7509
 6506TIP3   OH219460   3.623   3.551   3.062  0.0348  0.3394 -0.2212
 6506TIP3    H119461   3.583   3.467   3.037 -1.6769  1.0397 -0.0186
 6506TIP3    H219462   3.551   3.614   3.053  1.2286  1.7444 -0.1394
 6507TIP3   OH219463   3.114   3.849   5.705  0.0595  0.4104  0.0062
 6507TIP3    H119464   3.087   3.757   5.702  0.8821 -0.0029  2.6804
 6507TIP3    H219465   3.039   3.895   5.742  0.4837  0.3849  0.9318
 6508TIP3   OH219466   7.228   5.492   5.676 -0.1799 -0.6905 -0.0287
 6508TIP3    H119467   7.194   5.579   5.655 -1.2990 -0.5425  2.1341
 6508TIP3    H219468   7.211   5.481   5.769 -1.2945 -3.7773 -0.4719
 6509TIP3   OH219469   2.763   6.271   5.823  0.0988  0.4276  0.3970
 6509TIP3    H119470   2.696   6.322   5.867  1.9279  1.3492  2.2870
 6509TIP3    H219471   2.737   6.271   5.731 -1.2161  2.7416  0.6993
 6510TIP3   OH219472   8.205   3.243   6.446  0.1491 -0.1676  0.4936
 6510TIP3    H119473   8.252   3.302   6.387 -0.3740  0.7317  0.9644
 6510TIP3    H219474   8.265   3.231   6.520  0.5515 -0.8149  0.0766
 6511TIP3   OH219475   5.630   5.259   0.099  0.1685 -0.4524 -0.2963
 6511TIP3    H119476   5.658   5.346   0.073  0.7322 -0.6363 -0.3226
 6511TIP3    H219477   5.540   5.270   0.129  0.6359  0.3566  0.8505
 6512TIP3   OH219478   5.571   6.848   0.501 -0.1855 -0.1755  0.2737
 6512TIP3    H119479   5.608   6.880   0.583  1.3255  2.5738 -1.3252
 6512TIP3    H219480   5.636   6.871   0.435 -1.0150 -2.9092 -1.6854
 6513TIP3   OH219481   4.740   4.440   1.890  0.4487  0.1351 -0.5653
 6513TIP3    H119482   4.818   4.490   1.914 -0.1881  0.7041  0.4097
 6513TIP3    H219483   4.689   4.500   1.835  0.3635  0.0355 -0.5960
 6514TIP3   OH219484   3.022   5.849   1.730 -0.0476 -0.2268  0.1078
 6514TIP3    H119485   2.956   5.916   1.716  0.1570  0.0365  0.3957
 6514TIP3    H219486   2.993   5.802   1.808  0.1523 -0.0445  0.2959
 6515TIP3   OH219487   7.722   1.487   0.291 -0.2539  0.2137  0.0459
 6515TIP3    H119488   7.753   1.405   0.328 -0.0400  0.3236  0.1074
 6515TIP3    H219489   7.727   1.474   0.196  1.9448  0.9566  0.0051
 6516TIP3   OH219490   6.113   1.924   0.638 -0.1489 -0.3376  0.4896
 6516TIP3    H119491   6.170   1.914   0.561 -0.5622  0.5766  0.0463
 6516TIP3    H219492   6.095   2.018   0.642  1.9079  0.0367  3.2137
 6517TIP3   OH219493   0.871   1.885   5.111  0.7751  0.1977  0.2332
 6517TIP3    H119494   0.950   1.831   5.121 -0.6838 -2.1967 -0.5385
 6517TIP3    H219495   0.799   1.828   5.137 -1.1093  0.9212 -2.9007
 6518TIP3   OH219496   6.952   6.036   1.518 -0.1662 -0.6766 -0.5388
 6518TIP3    H119497   6.898   5.972   1.564 -0.4206  0.3445  0.6382
 6518TIP3    H219498   7.009   5.983   1.462 -0.1534 -1.9546  0.6307
 6519TIP3   OH219499   0.175   6.429   3.127  0.5667  0.7230 -0.5922
 6519TIP3    H119500   0.133   6.447   3.211 -1.0549  2.3737 -1.6433
 6519TIP3    H219501   0.101   6.417   3.066  1.6410  1.4513 -2.1055
 6520TIP3   OH219502   2.204   0.248   3.933  0.2864 -0.5498  0.3835
 6520TIP3    H119503   2.128   0.227   3.879  1.2303  1.5127 -1.9261
 6520TIP3    H219504   2.279   0.233   3.876  1.3649  1.3615  1.1957
 6521TIP3   OH219505   6.103   6.465   5.332  0.1482  0.2330 -0.1055
 6521TIP3    H119506   6.010   6.448   5.349  0.5557 -0.3575  1.7658
 6521TIP3    H219507   6.108   6.559   5.314 -0.6692  0.5245  1.0762
 6522TIP3   OH219508   3.959   1.716   0.532  0.1377 -0.8245  0.6544
 6522TIP3    H119509   4.040   1.752   0.495 -0.0836 -0.7491  0.2353
 6522TIP3    H219510   3.915   1.675   0.458 -0.6747 -0.0206  0.6678
 6523TIP3   OH219511   1.071   7.353   5.402 -0.2500 -0.2285 -0.1328
 6523TIP3    H119512   1.025   7.434   5.421 -0.6393 -0.0794 -1.6006
 6523TIP3    H219513   1.033   7.289   5.463  0.8829  0.8834  1.8729
 6524TIP3   OH219514   0.704   5.006   1.406  1.1177  0.2808 -0.5931
 6524TIP3    H119515   0.723   4.963   1.490  0.0120  0.2868 -0.3285
 6524TIP3    H219516   0.610   5.023   1.409  1.0344  0.1098 -1.9257
 6525TIP3   OH219517   0.142   2.580   1.231  0.2611 -0.4616  0.6753
 6525TIP3    H119518   0.157   2.565   1.324 -0.1920  0.0247  0.8308
 6525TIP3    H219519   0.049   2.558   1.218  0.4559 -1.0401  0.2308
 6526TIP3   OH219520   0.819   3.279   3.864  0.9929  0.3858 -0.9576
 6526TIP3    H119521   0.754   3.306   3.799  0.6199  1.5058 -0.1611
 6526TIP3    H219522   0.901   3.317   3.833  1.0312  0.0273 -1.3093
 6527TIP3   OH219523   7.252   0.898   2.263 -0.1623  0.5107 -0.2285
 6527TIP3    H119524   7.185   0.844   2.305  1.0883 -1.4642 -0.6488
 6527TIP3    H219525   7.203   0.967   2.220 -1.8170 -0.0433  0.6779
 6528TIP3   OH219526   5.359   0.502   4.867  0.0881 -0.0899  0.0548
 6528TIP3    H119527   5.396   0.580   4.908  0.5725 -0.7095  0.8262
 6528TIP3    H219528   5.422   0.433   4.885  0.1980 -0.4384 -1.5658
 6529TIP3   OH219529   5.957   4.929   4.682 -0.3431 -0.2258 -0.4006
 6529TIP3    H119530   6.002   4.973   4.754 -0.1042 -1.5215  0.2607
 6529TIP3    H219531   5.864   4.949   4.697 -0.2377  0.0807 -0.1344
 6530TIP3   OH219532   0.067   0.780   5.089 -0.3926 -0.4263  0.1794
 6530TIP3    H119533   0.137   0.715   5.087 -0.3470 -0.3689 -0.1480
 6530TIP3    H219534   0.108   0.859   5.125 -0.5594 -0.7059  1.0029
 6531TIP3   OH219535   6.651   1.237   3.998 -0.1613 -0.0377  0.1924
 6531TIP3    H119536   6.591   1.279   4.060  1.5836  0.9677  1.2815
 6531TIP3    H219537   6.685   1.308   3.944  1.0433 -0.3606  0.4894
 6532TIP3   OH219538   1.500   5.549   6.410  0.6635 -0.0744  0.4973
 6532TIP3    H119539   1.570   5.614   6.403  0.2741  0.5609  2.2223
 6532TIP3    H219540   1.419   5.598   6.398  0.3719 -0.2398  1.6939
 6533TIP3   OH219541   7.316   1.330   4.861  0.3380  0.1235 -0.1671
 6533TIP3    H119542   7.273   1.388   4.799 -0.4586 -0.1837  0.0936
 6533TIP3    H219543   7.386   1.289   4.810  0.2300  0.5104 -0.6320
 6534TIP3   OH219544   3.373   0.136   3.552  0.2422 -0.4103  0.0526
 6534TIP3    H119545   3.430   0.182   3.490 -0.3683 -1.4287 -1.3017
 6534TIP3    H219546   3.322   0.206   3.593  0.1363  0.2370 -1.1308
 6535TIP3   OH219547   4.402   0.160   1.163 -0.1056 -0.3307 -0.2479
 6535TIP3    H119548   4.332   0.204   1.210  0.2772  2.6940 -2.2495
 6535TIP3    H219549   4.382   0.067   1.171 -2.3981  0.2680  2.0945
 6536TIP3   OH219550   6.143   1.461   5.282  0.1000 -0.9181  0.5134
 6536TIP3    H119551   6.233   1.482   5.306 -0.2013 -0.5304  1.3445
 6536TIP3    H219552   6.090   1.524   5.330 -0.5138  0.4683 -1.8382
 6537TIP3   OH219553   1.846   7.174   5.315  0.2524  0.0417  0.1073
 6537TIP3    H119554   1.924   7.135   5.354  1.5133  0.2796 -2.0443
 6537TIP3    H219555   1.845   7.263   5.349  0.5988 -0.1247  0.5685
 6538TIP3   OH219556   1.646   4.195   5.990  0.2496 -0.4182 -0.2039
 6538TIP3    H119557   1.597   4.277   5.999 -3.0150 -2.0194 -1.6231
 6538TIP3    H219558   1.611   4.138   6.058  0.4117 -1.5047 -1.0040
 6539TIP3   OH219559   0.509   5.858   2.328 -0.1722  0.0026  0.1652
 6539TIP3    H119560   0.499   5.796   2.400 -0.9650 -0.7318 -0.5628
 6539TIP3    H219561   0.422   5.896   2.316 -0.2146 -0.3754 -0.8260
 6540TIP3   OH219562   1.802   6.420   4.217 -0.3902 -0.2234  0.3496
 6540TIP3    H119563   1.853   6.474   4.156  0.1765 -1.0493  0.0846
 6540TIP3    H219564   1.714   6.418   4.180 -0.4473  0.5976  0.4164
 6541TIP3   OH219565   3.274   0.289   1.165  0.2919  0.1978  0.0733
 6541TIP3    H119566   3.196   0.237   1.186 -0.1965  0.8430 -0.1239
 6541TIP3    H219567   3.336   0.268   1.235  1.0456 -2.5382 -1.2474
 6542TIP3   OH219568   4.207   5.786   4.732  0.0435 -0.1002 -0.0836
 6542TIP3    H119569   4.297   5.770   4.757  1.5756  2.9462 -2.8524
 6542TIP3    H219570   4.193   5.733   4.654 -0.6286 -0.5687  0.3347
 6543TIP3   OH219571   7.700   1.636   6.159  0.3643  0.5237 -0.3461
 6543TIP3    H119572   7.744   1.609   6.078 -0.8836 -0.9387 -0.5749
 6543TIP3    H219573   7.611   1.659   6.132  0.2971  1.2411  0.4461
 6544TIP3   OH219574   7.730   6.451   2.905 -0.2362 -0.8266 -0.0561
 6544TIP3    H119575   7.699   6.444   2.815  0.2425 -2.0974 -0.1370
 6544TIP3    H219576   7.650   6.457   2.958 -0.5608 -1.7745 -0.4328
 6545TIP3   OH219577   0.536   7.251   1.304  0.0871 -0.6170 -0.0901
 6545TIP3    H119578   0.537   7.299   1.387  2.6861  3.8378 -2.2931
 6545TIP3    H219579   0.457   7.281   1.259  0.6738  0.1200 -0.6707
 6546TIP3   OH219580   6.952   2.655   3.086 -0.0402 -0.3246 -0.0745
 6546TIP3    H119581   6.927   2.645   3.178  0.4538 -0.5840  0.0354
 6546TIP3    H219582   6.914   2.739   3.060  0.4703  0.1179  0.5808
 6547TIP3   OH219583   0.658   3.046   6.364  0.0232  0.3924  0.0684
 6547TIP3    H119584   0.736   2.992   6.346  0.8913  1.0927  1.5881
 6547TIP3    H219585   0.628   3.018   6.450 -1.0800  0.5503 -0.2458
 6548TIP3   OH219586   3.871   1.004   6.692 -0.0341  0.4506 -0.4842
 6548TIP3    H119587   3.798   1.026   6.634 -0.0576  0.4050 -0.4716
 6548TIP3    H219588   3.908   0.924   6.655 -1.4531 -0.8977  0.8372
 6549TIP3   OH219589   0.565   7.554   5.675 -0.3435  0.1907 -0.7886
 6549TIP3    H119590   0.637   7.522   5.730 -2.3280 -2.2641  0.5433
 6549TIP3    H219591   0.535   7.477   5.627 -1.7067  1.2940 -1.7688
 6550TIP3   OH219592   3.263   2.013   1.206 -0.1173 -0.1081 -0.5326
 6550TIP3    H119593   3.203   1.966   1.147  0.9108  0.0899 -1.7732
 6550TIP3    H219594   3.337   2.037   1.151  0.5079  0.8227  0.6647
 6551TIP3   OH219595   0.360   2.791   1.079  0.2305  0.2244  0.3363
 6551TIP3    H119596   0.274   2.816   1.044 -0.3011 -0.0307  1.4339
 6551TIP3    H219597   0.341   2.735   1.154  1.3688 -0.1355  0.3822
 6552TIP3   OH219598   1.562   6.513   2.927  0.8391 -0.1440  0.1446
 6552TIP3    H119599   1.574   6.428   2.969  1.8752 -0.9590 -1.6533
 6552TIP3    H219600   1.474   6.510   2.891  0.5689 -0.1245  0.8086
 6553TIP3   OH219601   6.790   4.149   3.054 -0.4820 -0.1354  0.5277
 6553TIP3    H119602   6.799   4.075   3.114 -0.4197 -0.2017  0.4371
 6553TIP3    H219603   6.757   4.110   2.973  0.2685 -0.1843  0.2295
 6554TIP3   OH219604   4.747   0.419   5.637 -0.0123  0.7903 -0.0226
 6554TIP3    H119605   4.718   0.475   5.708  0.5386 -0.2860  1.1023
 6554TIP3    H219606   4.837   0.395   5.661 -0.0723 -0.1840 -0.6980
 6555TIP3   OH219607   2.450   5.172   0.427 -0.5382 -0.1722 -0.4239
 6555TIP3    H119608   2.487   5.153   0.513  0.7331 -1.0970 -1.1411
 6555TIP3    H219609   2.380   5.235   0.445 -2.1098 -2.2988  1.6105
 6556TIP3   OH219610   5.132   5.077   6.004 -0.4729  0.1285  0.0152
 6556TIP3    H119611   5.218   5.035   5.997 -0.6398 -0.2268  0.0753
 6556TIP3    H219612   5.114   5.080   6.098 -0.4977  0.2687  0.0072
 6557TIP3   OH219613   5.761   2.248   5.393  0.3331  0.1982 -0.3597
 6557TIP3    H119614   5.800   2.174   5.346 -0.9505 -0.3046 -0.6942
 6557TIP3    H219615   5.668   2.225   5.399 -0.0529  1.6845 -0.2648
 6558TIP3   OH219616   1.519   1.028   2.611  0.4624  0.0182 -0.4944
 6558TIP3    H119617   1.551   1.086   2.543 -1.3725 -0.1369 -1.5213
 6558TIP3    H219618   1.519   1.082   2.691 -0.8502  1.3412 -1.3450
 6559TIP3   OH219619   0.913   4.501   4.129  0.0132 -0.0920  0.4799
 6559TIP3    H119620   0.983   4.452   4.173  0.2996 -0.3678 -0.2644
 6559TIP3    H219621   0.957   4.578   4.093 -0.0911 -0.1824  0.1538
 6560TIP3   OH219622   1.191   4.279   5.748  0.0381  0.2893 -0.1181
 6560TIP3    H119623   1.245   4.200   5.742 -2.7854 -1.7546 -0.6886
 6560TIP3    H219624   1.182   4.309   5.658 -1.9791 -1.0456 -0.4015
 6561TIP3   OH219625   4.873   0.535   1.707 -0.0145 -0.5484 -0.0923
 6561TIP3    H119626   4.870   0.630   1.697  0.9165 -0.5013 -0.0409
 6561TIP3    H219627   4.827   0.518   1.789  2.5440  0.1974  1.6238
 6562TIP3   OH219628   5.269   2.716   5.032 -0.2423  0.7742  0.0926
 6562TIP3    H119629   5.257   2.733   4.939 -0.5003  0.4085  0.0574
 6562TIP3    H219630   5.256   2.800   5.074 -2.3642  0.5356  0.0023
 6563TIP3   OH219631   0.880   1.555   2.047 -0.2425  0.1176 -0.6974
 6563TIP3    H119632   0.934   1.606   1.986  0.1970 -0.5218 -0.8538
 6563TIP3    H219633   0.820   1.619   2.085  1.2485  1.0299  0.2040
 6564TIP3   OH219634   5.631   2.417   1.622 -0.0204  0.4511  0.0379
 6564TIP3    H119635   5.617   2.508   1.651  2.0705  0.4366  1.3642
 6564TIP3    H219636   5.620   2.420   1.527  0.9557  2.3351 -0.0743
 6565TIP3   OH219637   7.655   6.325   0.151  0.4663  0.2676 -0.3213
 6565TIP3    H119638   7.600   6.370   0.215  0.5615 -0.2683  0.1501
 6565TIP3    H219639   7.727   6.385   0.133 -0.6620  1.3232 -1.5521
 6566TIP3   OH219640   1.850   0.993   4.269  0.1009 -0.8134 -0.4657
 6566TIP3    H119641   1.799   1.063   4.308  1.1991  0.1168 -0.6506
 6566TIP3    H219642   1.829   0.996   4.176 -0.5637 -1.3513 -0.3374
 6567TIP3   OH219643   1.831   2.223   3.157 -0.4660 -0.5963 -0.2793
 6567TIP3    H119644   1.871   2.245   3.240 -2.3043  0.5932  0.3497
 6567TIP3    H219645   1.894   2.250   3.091  1.0041 -1.5359  0.7007
 6568TIP3   OH219646   5.585   7.564   5.216  0.4478  0.3200 -0.0316
 6568TIP3    H119647   5.614   7.587   5.304  0.2062  1.9464 -0.3458
 6568TIP3    H219648   5.647   7.497   5.187  1.0540  0.3954  1.0506
 6569TIP3   OH219649   5.151   5.851   0.149  0.3076  0.5922 -0.3174
 6569TIP3    H119650   5.070   5.858   0.200  0.8255  0.3396  0.5695
 6569TIP3    H219651   5.158   5.757   0.129  0.4561  0.5901 -0.2564
 6570TIP3   OH219652   0.329   6.119   4.695 -0.2110 -0.2144 -0.7876
 6570TIP3    H119653   0.259   6.076   4.647  0.4325 -0.5276 -1.4737
 6570TIP3    H219654   0.386   6.047   4.723 -0.8134 -0.0845  0.8707
 6571TIP3   OH219655   1.300   1.548   3.266  0.2316 -0.5799 -0.0506
 6571TIP3    H119656   1.300   1.524   3.358  0.1343  0.0635  0.1220
 6571TIP3    H219657   1.220   1.598   3.254  0.5775 -0.0838 -0.3254
 6572TIP3   OH219658   4.239   3.252   4.780 -0.7170  0.1212 -0.2224
 6572TIP3    H119659   4.200   3.192   4.843 -0.7322  0.6825  0.3094
 6572TIP3    H219660   4.332   3.254   4.802 -0.2751 -1.4577 -1.6843
 6573TIP3   OH219661   5.702   4.501   2.387  0.0260  0.4831  0.1504
 6573TIP3    H119662   5.715   4.412   2.421  0.9970  1.4363  2.4388
 6573TIP3    H219663   5.636   4.539   2.444  1.6473  2.1210  1.0363
 6574TIP3   OH219664   8.302   5.795   4.412 -0.1739 -0.0612  0.1463
 6574TIP3    H119665   8.254   5.726   4.457 -0.5111  0.8641  1.2653
 6574TIP3    H219666   8.296   5.773   4.319 -3.9570  0.6991  0.0669
 6575TIP3   OH219667   6.360   0.698   6.501 -0.0284  0.6300 -0.7160
 6575TIP3    H119668   6.306   0.622   6.524 -0.6090  1.4118  0.6175
 6575TIP3    H219669   6.304   0.751   6.444 -1.3399  2.1648  1.8172
 6576TIP3   OH219670   7.174   1.394   4.088  0.4923 -0.3269  0.8063
 6576TIP3    H119671   7.125   1.472   4.065 -0.5855 -1.6012 -1.5908
 6576TIP3    H219672   7.106   1.327   4.102  1.4363 -1.2797  0.9272
 6577TIP3   OH219673   1.144   4.787   5.218  0.5955 -0.1308 -0.1636
 6577TIP3    H119674   1.238   4.790   5.239  0.4263 -0.3164  0.6553
 6577TIP3    H219675   1.137   4.831   5.133  1.3338  0.5298  0.1039
 6578TIP3   OH219676   0.039   1.655   2.665 -0.1711  0.0972  0.5123
 6578TIP3    H119677   0.108   1.707   2.706  0.6368  0.4344 -1.1735
 6578TIP3    H219678  -0.041   1.679   2.712  0.5817  1.0665  1.3289
 6579TIP3   OH219679   1.550   3.690   0.573 -0.9649  0.0947 -0.3680
 6579TIP3    H119680   1.606   3.692   0.650 -1.5594 -0.6681  0.1034
 6579TIP3    H219681   1.570   3.606   0.532 -2.2824 -0.5275  0.2190
 6580TIP3   OH219682   0.396   7.417   0.695 -0.3545 -0.6060 -0.2373
 6580TIP3    H119683   0.381   7.461   0.778  1.8395 -1.8209  0.9082
 6580TIP3    H219684   0.467   7.354   0.714 -2.8136 -4.2041 -1.8469
 6581TIP3   OH219685   7.789   2.718   4.006  0.2269 -0.4358 -0.3117
 6581TIP3    H119686   7.819   2.648   4.063 -4.0685 -2.5842 -0.3132
 6581TIP3    H219687   7.761   2.787   4.066  5.0786  1.9539 -0.3136
 6582TIP3   OH219688   4.473   5.204   0.418 -0.3214  0.3361  0.0110
 6582TIP3    H119689   4.394   5.159   0.389 -0.6283  1.2589 -0.6203
 6582TIP3    H219690   4.441   5.282   0.463  0.2189  0.2938  0.4856
 6583TIP3   OH219691   2.027   3.268   2.030  0.3251  0.3627 -0.7786
 6583TIP3    H119692   2.050   3.255   2.122  0.3602 -0.7025 -0.9216
 6583TIP3    H219693   2.060   3.190   1.986 -0.1851  0.5983 -1.6037
 6584TIP3   OH219694   0.543   5.611   6.636 -0.1037  0.2945  0.1241
 6584TIP3    H119695   0.542   5.706   6.629  1.5966  0.3472  0.2098
 6584TIP3    H219696   0.635   5.587   6.630 -0.3827 -1.2524  1.3403
 6585TIP3   OH219697   2.517   1.883   3.192  0.4893  0.6088 -0.2082
 6585TIP3    H119698   2.584   1.950   3.175  0.3710  1.1488  1.2713
 6585TIP3    H219699   2.453   1.894   3.121  1.3806  0.8443 -0.9966
 6586TIP3   OH219700   6.621   0.485   0.244  0.9660  0.5167 -0.0970
 6586TIP3    H119701   6.552   0.451   0.186  1.9181 -0.0711 -0.9134
 6586TIP3    H219702   6.607   0.440   0.327 -0.0853  0.9659 -0.0022
 6587TIP3   OH219703   4.284   6.934   0.676 -0.4106  0.1827  0.3467
 6587TIP3    H119704   4.329   7.018   0.684  0.7713 -0.1009 -2.2316
 6587TIP3    H219705   4.192   6.958   0.660 -0.6150  0.8537  2.3186
 6588TIP3   OH219706   7.719   6.157   2.189  0.7316 -0.0396 -0.1360
 6588TIP3    H119707   7.737   6.250   2.206  2.4949 -0.2481 -0.6572
 6588TIP3    H219708   7.668   6.128   2.265  1.3690  1.0224  0.7331
 6589TIP3   OH219709   8.194   0.756   2.915 -0.6271  0.7256 -0.0047
 6589TIP3    H119710   8.131   0.684   2.921  0.5795 -0.2550  1.5056
 6589TIP3    H219711   8.158   0.824   2.973 -0.2714  0.1351  0.9217
 6590TIP3   OH219712   0.533   2.915   3.261  0.0310 -0.7131  0.1416
 6590TIP3    H119713   0.557   2.995   3.214  0.9813 -0.6063  0.7826
 6590TIP3    H219714   0.469   2.872   3.204  1.8513 -1.0858 -1.7503
 6591TIP3   OH219715   1.381   6.477   5.653 -0.4563 -0.4288  0.5018
 6591TIP3    H119716   1.315   6.491   5.721 -1.2442  0.3736 -0.4030
 6591TIP3    H219717   1.443   6.549   5.665 -0.4586 -0.4299  0.5225
 6592TIP3   OH219718   5.982   5.638   0.080  0.0570  0.1508 -0.3811
 6592TIP3    H119719   5.907   5.579   0.088 -0.0917  0.3249 -0.5000
 6592TIP3    H219720   6.052   5.583   0.044 -0.2659  0.2022 -1.0917
 6593TIP3   OH219721   1.724   2.034   1.163  0.1897 -0.5727  0.0342
 6593TIP3    H119722   1.811   2.045   1.201 -0.1015 -1.2894  0.9369
 6593TIP3    H219723   1.667   2.014   1.238 -0.7520 -0.1284 -0.5412
 6594TIP3   OH219724   5.627   4.554   0.972 -0.3431  0.1942  0.3881
 6594TIP3    H119725   5.645   4.632   1.024 -0.9031  0.5636  0.0448
 6594TIP3    H219726   5.614   4.485   1.036  0.4383  0.3200  0.6877
 6595TIP3   OH219727   2.145   6.817   4.314 -0.6470  0.2757 -0.2385
 6595TIP3    H119728   2.126   6.808   4.407 -0.3581  0.9842 -0.0994
 6595TIP3    H219729   2.181   6.733   4.288  0.5354  0.4929  0.6164
 6596TIP3   OH219730   0.256   7.213   2.503 -0.1197  0.6127  0.3761
 6596TIP3    H119731   0.246   7.185   2.594 -0.8910 -0.8200 -0.1248
 6596TIP3    H219732   0.182   7.273   2.488 -1.6299 -1.2779 -0.0663
 6597TIP3   OH219733   4.871   4.556   1.220  0.0722 -0.0119  0.4198
 6597TIP3    H119734   4.797   4.524   1.169 -0.1455  0.0276  0.7097
 6597TIP3    H219735   4.847   4.645   1.244  0.3931  0.1481  0.1698
 6598TIP3   OH219736   6.217   2.669   4.091 -0.3991 -0.0210 -0.2400
 6598TIP3    H119737   6.234   2.592   4.145  1.2635 -0.2495 -1.0431
 6598TIP3    H219738   6.128   2.655   4.056 -0.6863 -0.8328  0.7891
 6599TIP3   OH219739   2.559   2.474   0.448  0.3483  0.4999 -0.5688
 6599TIP3    H119740   2.607   2.523   0.515  1.1876  0.8053 -1.3856
 6599TIP3    H219741   2.593   2.506   0.365 -0.5983  0.0334 -1.1557
 6600TIP3   OH219742   2.955   0.245   3.397  0.1245  0.3515 -0.0339
 6600TIP3    H119743   2.893   0.316   3.383  0.2431  0.7954  1.4353
 6600TIP3    H219744   2.975   0.212   3.310 -0.9388  1.2566 -0.6443
 6601TIP3   OH219745   2.004   0.011   4.240  0.0137  0.3295 -0.1575
 6601TIP3    H119746   1.926  -0.043   4.251 -0.1635 -0.0632 -2.6674
 6601TIP3    H219747   1.971   0.099   4.222  0.2488  0.7782  1.4706
 6602TIP3   OH219748   3.336   0.202   4.258 -0.1026  0.1065  0.3219
 6602TIP3    H119749   3.403   0.271   4.259  1.4816 -1.3423  2.0765
 6602TIP3    H219750   3.374   0.133   4.204 -0.5619 -0.4054  0.6435
 6603TIP3   OH219751   1.477   7.751   0.280 -0.8450 -0.1616 -0.2049
 6603TIP3    H119752   1.478   7.657   0.299 -1.8645  0.0573  1.0642
 6603TIP3    H219753   1.538   7.790   0.342 -1.1350  0.1095 -0.0835
 6604TIP3   OH219754   7.081   3.152   4.761 -0.3093 -0.3136  0.5729
 6604TIP3    H119755   7.105   3.245   4.763  0.6763 -0.4266 -2.1834
 6604TIP3    H219756   7.020   3.144   4.688  0.1647 -1.9270  0.3158
 6605TIP3   OH219757   6.762   5.119   2.551 -0.2362  0.1583  0.9782
 6605TIP3    H119758   6.825   5.048   2.540  1.3781  1.5146  0.9666
 6605TIP3    H219759   6.693   5.100   2.487  0.3452 -1.1755  0.7078
 6606TIP3   OH219760   7.630   2.429   0.769  0.1043  0.0195  0.2457
 6606TIP3    H119761   7.549   2.390   0.738  0.4701  0.2207 -1.0193
 6606TIP3    H219762   7.699   2.379   0.725  0.5933  1.8587 -1.2155
 6607TIP3   OH219763   7.814   3.327   1.090 -0.2405 -0.0847  0.5702
 6607TIP3    H119764   7.846   3.384   1.019 -0.0843  0.1677  0.8364
 6607TIP3    H219765   7.891   3.276   1.115 -0.8306 -1.8129 -0.9523
 6608TIP3   OH219766   2.150   7.623   0.914  0.8626  0.2555 -0.0637
 6608TIP3    H119767   2.091   7.642   0.841  2.5119  0.6104 -1.3380
 6608TIP3    H219768   2.107   7.664   0.990 -1.4211 -1.0372 -0.5413
 6609TIP3   OH219769   4.486   2.483   6.224 -0.4215 -0.1467  0.2244
 6609TIP3    H119770   4.418   2.473   6.157 -0.4855  0.1611  0.2413
 6609TIP3    H219771   4.559   2.525   6.178  0.2895 -1.6792 -0.1321
 6610TIP3   OH219772   5.333   5.882   2.751  0.2143 -0.0226 -0.9104
 6610TIP3    H119773   5.336   5.875   2.847  0.8123 -0.9500 -0.9822
 6610TIP3    H219774   5.261   5.943   2.734 -0.7306 -0.8070  0.1009
 6611TIP3   OH219775   6.562   7.601   2.651 -0.2108  0.3732 -0.9352
 6611TIP3    H119776   6.488   7.656   2.676 -0.2764 -0.0019 -0.2863
 6611TIP3    H219777   6.584   7.629   2.562  0.2073  1.9235 -0.3771
 6612TIP3   OH219778   0.519   0.722   0.956 -0.4464  0.0629  0.0694
 6612TIP3    H119779   0.478   0.804   0.983  1.2670  0.8360  0.4871
 6612TIP3    H219780   0.526   0.671   1.036  0.4220  0.4275  0.2434
 6613TIP3   OH219781   2.154   3.320   6.156 -0.5104 -0.2136 -0.2724
 6613TIP3    H119782   2.102   3.301   6.235 -1.0359 -0.9976 -0.7996
 6613TIP3    H219783   2.208   3.395   6.181 -0.0208 -0.9983  1.1286
 6614TIP3   OH219784   8.264   0.324   5.811  0.1515 -0.2844 -0.0968
 6614TIP3    H119785   8.171   0.322   5.833 -0.3014  2.6714 -1.2866
 6614TIP3    H219786   8.289   0.416   5.822  2.4085 -0.6231 -1.7831
 6615TIP3   OH219787   1.324   0.918   2.428 -0.0974  0.5072  0.2746
 6615TIP3    H119788   1.354   0.925   2.338  1.6671 -1.2659  0.6656
 6615TIP3    H219789   1.386   0.970   2.479 -0.6583  0.9093  0.5614
 6616TIP3   OH219790   6.195   4.204   5.033  0.2885  0.3691 -0.0213
 6616TIP3    H119791   6.238   4.119   5.021 -0.6533 -0.1480  0.2233
 6616TIP3    H219792   6.140   4.215   4.955 -0.1744  0.4107  0.3126
 6617TIP3   OH219793   6.160   7.248   6.329  0.4396  0.3687 -0.7419
 6617TIP3    H119794   6.083   7.285   6.286  0.1498  1.4986  0.6819
 6617TIP3    H219795   6.156   7.155   6.308 -0.6667  0.5863 -1.6381
 6618TIP3   OH219796   2.721   3.779   6.338 -0.0886 -0.3407  0.1984
 6618TIP3    H119797   2.765   3.764   6.421  0.8387  0.9420 -0.0250
 6618TIP3    H219798   2.708   3.873   6.334 -1.9365 -0.5760 -0.2395
 6619TIP3   OH219799   4.922  -0.008   1.768  0.1799  0.0388 -0.2644
 6619TIP3    H119800   4.835   0.009   1.732 -0.1923 -1.8290 -0.3301
 6619TIP3    H219801   4.960   0.079   1.780 -2.1075  0.9781  0.8262
 6620TIP3   OH219802   4.037   2.945   4.662 -0.0807 -0.2279 -0.1599
 6620TIP3    H119803   4.091   2.942   4.583 -0.5502 -0.0808 -0.4939
 6620TIP3    H219804   4.061   3.027   4.704 -0.5501  0.1896 -0.6826
 6621TIP3   OH219805   2.601   0.007   1.365 -0.3553 -0.1912  0.1566
 6621TIP3    H119806   2.554  -0.076   1.374 -1.4587  0.2849 -0.9811
 6621TIP3    H219807   2.533   0.073   1.354  0.5377  0.6555 -0.5274
 6622TIP3   OH219808   4.689   4.728   5.820  0.1592 -0.3994  0.2404
 6622TIP3    H119809   4.723   4.722   5.909  1.7512 -3.3610 -0.4099
 6622TIP3    H219810   4.594   4.723   5.829  0.2189  0.7580  1.8063
 6623TIP3   OH219811   0.191   3.707   4.998 -0.1712 -0.1634 -0.8951
 6623TIP3    H119812   0.216   3.735   4.910  0.2285 -0.4899 -0.8866
 6623TIP3    H219813   0.176   3.789   5.046 -0.1356  0.0183 -1.1919
 6624TIP3   OH219814   3.782   1.573   0.712 -0.3002 -0.3136 -0.2011
 6624TIP3    H119815   3.808   1.488   0.677  1.1971  0.0282 -0.0009
 6624TIP3    H219816   3.844   1.635   0.673  0.0308  0.3794  1.3293
 6625TIP3   OH219817   5.408   0.647   3.961  0.7506 -0.5438 -0.1978
 6625TIP3    H119818   5.412   0.694   3.878  1.0589 -0.2859 -0.0379
 6625TIP3    H219819   5.321   0.607   3.962 -0.8550  2.6633  1.1113
 6626TIP3   OH219820   8.002   5.965   3.509 -0.0058  0.1064 -0.1340
 6626TIP3    H119821   8.034   6.048   3.543  0.5521  0.2423 -0.9851
 6626TIP3    H219822   7.915   5.985   3.475 -0.1548  0.1822  0.2750
 6627TIP3   OH219823   2.543   5.517   0.044  0.1359  0.0924  0.6192
 6627TIP3    H119824   2.546   5.431   0.087 -0.7828 -0.3282 -0.0988
 6627TIP3    H219825   2.629   5.526   0.003 -0.0164 -0.8610  0.0405
 6628TIP3   OH219826   0.658   1.642   5.817  0.1629 -0.4193 -0.1344
 6628TIP3    H119827   0.635   1.555   5.784 -1.7936 -0.1156  0.3026
 6628TIP3    H219828   0.600   1.655   5.892 -1.5554  2.3229 -1.7778
 6629TIP3   OH219829   1.891   4.956   5.203  0.3585 -0.5603 -0.2815
 6629TIP3    H119830   1.885   4.922   5.113  1.1664  0.0411 -0.5759
 6629TIP3    H219831   1.808   5.001   5.217  0.1016 -0.9205 -0.6150
 6630TIP3   OH219832   3.253   5.162   6.126  0.6172 -0.3070  0.2896
 6630TIP3    H119833   3.212   5.137   6.043  1.4210  0.0805 -0.2416
 6630TIP3    H219834   3.281   5.080   6.164  0.0543 -0.5071  0.2771
 6631TIP3   OH219835   3.292   4.007   5.504  0.2475  0.7583 -0.1836
 6631TIP3    H119836   3.353   4.027   5.575 -0.3046 -1.2432  0.9475
 6631TIP3    H219837   3.209   3.990   5.548 -0.3458  0.3729 -1.4057
 6632TIP3   OH219838   6.438   0.520   3.728  0.6499  0.4757 -0.6464
 6632TIP3    H119839   6.399   0.433   3.722  0.8668  0.4313 -1.5126
 6632TIP3    H219840   6.386   0.564   3.796  0.7787 -0.4370  0.0757
 6633TIP3   OH219841   8.067   0.200   0.764  0.1012 -0.3719 -0.1135
 6633TIP3    H119842   8.059   0.217   0.670 -0.0624 -1.2033 -0.2593
 6633TIP3    H219843   7.987   0.153   0.786  1.7115 -3.5436 -0.3627
 6634TIP3   OH219844   2.924   6.020   6.693  0.2307  0.5770  0.0833
 6634TIP3    H119845   2.975   5.979   6.762 -0.7373  1.7255  1.5381
 6634TIP3    H219846   2.974   6.004   6.613  2.6537  1.2969  1.3603
 6635TIP3   OH219847   2.408   4.903   5.046 -0.1084 -0.1321 -1.1109
 6635TIP3    H119848   2.363   4.912   5.130  0.1873 -1.1643 -0.8195
 6635TIP3    H219849   2.498   4.877   5.070 -0.1231 -0.7923 -1.7444
 6636TIP3   OH219850   5.209   4.455   5.135 -0.9014 -0.6786  0.6496
 6636TIP3    H119851   5.243   4.386   5.191 -1.0198  0.5971  2.3487
 6636TIP3    H219852   5.280   4.473   5.073 -0.9766 -2.4747  0.0102
 6637TIP3   OH219853   7.745   0.690   1.726  0.2079  0.2200  0.1514
 6637TIP3    H119854   7.753   0.662   1.635  0.8307  1.5061 -0.2055
 6637TIP3    H219855   7.654   0.717   1.735 -0.1689 -1.0467  0.2574
 6638TIP3   OH219856   8.107   0.024   5.092 -0.0076 -0.1771 -0.0953
 6638TIP3    H119857   8.028   0.020   5.147  1.2529  1.3231  1.9477
 6638TIP3    H219858   8.121   0.118   5.077  1.3335 -0.4263 -0.5223
 6639TIP3   OH219859   6.929   3.062   4.536 -1.0806  0.2369 -0.3158
 6639TIP3    H119860   6.852   3.117   4.520 -0.7606  0.6791 -0.3686
 6639TIP3    H219861   6.922   2.992   4.471 -2.6053 -0.9983  1.0945
 6640TIP3   OH219862   1.810   6.708   6.665 -0.0842  0.3388  0.5934
 6640TIP3    H119863   1.728   6.696   6.618  0.9025 -1.9602 -0.7279
 6640TIP3    H219864   1.795   6.668   6.751 -0.2744 -0.4056  0.2244
 6641TIP3   OH219865   1.428   2.176   3.270  0.4866  0.3918 -0.0564
 6641TIP3    H119866   1.437   2.147   3.179 -0.0569  0.3181 -0.0916
 6641TIP3    H219867   1.348   2.133   3.301  0.0313  1.3150  0.0929
 6642TIP3   OH219868   5.610   5.237   0.550  0.0395  0.1070 -0.0316
 6642TIP3    H119869   5.705   5.240   0.534  0.1479 -0.2107  0.4996
 6642TIP3    H219870   5.578   5.170   0.489  0.3874 -0.8209  0.7758
 6643TIP3   OH219871   8.061   5.686   6.598 -0.0662  0.0513 -0.5821
 6643TIP3    H119872   8.075   5.780   6.609 -0.2215 -0.0889  0.9115
 6643TIP3    H219873   7.966   5.675   6.606 -0.0113 -0.2840 -0.4039
 6644TIP3   OH219874   5.603   6.283   6.173  0.6377 -0.6185  0.2593
 6644TIP3    H119875   5.654   6.227   6.231  0.2676 -0.7146  0.4962
 6644TIP3    H219876   5.593   6.365   6.220  2.1379  0.0713 -0.5514
 6645TIP3   OH219877   1.933   1.586   3.377 -0.3446  0.2024 -0.0544
 6645TIP3    H119878   1.915   1.499   3.414 -0.1369 -0.3487 -1.2324
 6645TIP3    H219879   1.856   1.606   3.324  1.0622 -0.8382 -2.6611
 6646TIP3   OH219880   5.107   0.874   4.151 -0.4588 -0.2149  0.3426
 6646TIP3    H119881   5.094   0.798   4.093 -0.9022 -0.0917  0.2781
 6646TIP3    H219882   5.078   0.949   4.098 -1.3087 -0.1515  0.8859
 6647TIP3   OH219883   4.164   7.551   1.207 -0.1120 -0.1103 -0.3822
 6647TIP3    H119884   4.115   7.496   1.145 -1.3348 -0.4240  0.7971
 6647TIP3    H219885   4.126   7.530   1.292  0.7676  1.1207  0.3506
 6648TIP3   OH219886   4.030   3.330   0.081 -0.4217 -0.2289 -0.1152
 6648TIP3    H119887   3.986   3.411   0.054  0.0264  0.4746  1.1941
 6648TIP3    H219888   3.966   3.287   0.139  0.7710  1.1599  2.4071
 6649TIP3   OH219889   3.070   3.306   5.275  0.0901  0.2815 -0.1870
 6649TIP3    H119890   3.103   3.364   5.206  0.2329 -0.5803 -0.8601
 6649TIP3    H219891   3.148   3.284   5.326  0.1447  0.1967 -0.3045
 6650TIP3   OH219892   5.858   6.192   0.805  0.2587  0.0891  0.1710
 6650TIP3    H119893   5.796   6.265   0.811  0.6205  0.3563  0.7518
 6650TIP3    H219894   5.810   6.117   0.838  0.7600  0.6329  2.2465
 6651TIP3   OH219895   5.217   5.614   4.796  0.0907 -0.0743  0.1947
 6651TIP3    H119896   5.264   5.555   4.855  0.2179  0.5205  0.6986
 6651TIP3    H219897   5.241   5.583   4.708 -1.3366 -1.9552  0.4044
 6652TIP3   OH219898   2.254   0.677   6.215  0.2896 -0.0539  0.3947
 6652TIP3    H119899   2.232   0.770   6.204  2.1760  0.2529 -1.3001
 6652TIP3    H219900   2.228   0.657   6.305 -1.1074  1.8270  0.4579
 6653TIP3   OH219901   3.849   7.678   2.146  0.4313 -0.1856 -0.3181
 6653TIP3    H119902   3.879   7.678   2.055  0.1171 -0.0558 -0.4247
 6653TIP3    H219903   3.864   7.589   2.176  1.3037 -0.0190 -0.2352
 6654TIP3   OH219904   5.355   1.425   6.314  0.0696 -0.2914  0.3131
 6654TIP3    H119905   5.444   1.459   6.328 -0.1494 -0.7168  3.7448
 6654TIP3    H219906   5.299   1.502   6.322  0.0670 -0.1326 -1.1271
 6655TIP3   OH219907   3.259   3.724   6.385 -0.7188  0.4440  0.0537
 6655TIP3    H119908   3.223   3.704   6.471 -0.6374 -0.7252 -0.1650
 6655TIP3    H219909   3.229   3.652   6.329  1.8325 -0.5747 -0.1693
 6656TIP3   OH219910   3.813   5.441   6.531  0.3637  0.1027  0.0364
 6656TIP3    H119911   3.751   5.371   6.510  0.3080 -0.1820  1.0650
 6656TIP3    H219912   3.758   5.516   6.554  0.4013  0.0185  0.4096
 6657TIP3   OH219913   5.149   7.012  -0.004 -0.0166 -0.2109 -0.0005
 6657TIP3    H119914   5.140   6.920   0.018 -0.3375  0.3216  2.3838
 6657TIP3    H219915   5.243   7.030  -0.001 -0.0884  0.0145  1.9148
 6658TIP3   OH219916   7.704   4.047   0.662 -0.0426  0.9172  0.0677
 6658TIP3    H119917   7.679   4.065   0.572 -2.3225 -0.3692  0.3483
 6658TIP3    H219918   7.787   4.094   0.675 -0.2287  2.0306 -2.3184
 6659TIP3   OH219919   0.042   0.489   0.889  0.4576 -0.3426 -0.2797
 6659TIP3    H119920   0.015   0.456   0.975 -0.9749  0.0717 -0.5525
 6659TIP3    H219921   0.136   0.471   0.885  0.2886 -1.5988  0.8229
 6660TIP3   OH219922   6.212   4.404   3.822  0.4842 -0.6052 -0.1777
 6660TIP3    H119923   6.265   4.465   3.771 -1.3779  0.2514 -1.1844
 6660TIP3    H219924   6.160   4.460   3.880 -1.7429 -1.0808 -1.5821
 6661TIP3   OH219925   0.409   0.444   4.062  0.0230 -0.2302 -0.3775
 6661TIP3    H119926   0.475   0.502   4.023  0.7164 -0.5404  0.3092
 6661TIP3    H219927   0.460   0.371   4.098 -0.5904  0.0498  1.1146
 6662TIP3   OH219928   6.539   5.723   6.524 -0.1608 -0.1753 -0.4814
 6662TIP3    H119929   6.507   5.633   6.516  0.5354 -0.7628  2.1593
 6662TIP3    H219930   6.617   5.715   6.579  0.6816  1.9333 -1.2658
 6663TIP3   OH219931   5.999   2.450   6.139  0.1650 -0.2996 -0.4674
 6663TIP3    H119932   5.952   2.515   6.087 -0.3500  1.0201  1.5332
 6663TIP3    H219933   6.072   2.497   6.177  1.3023 -1.5646 -1.0048
 6664TIP3   OH219934   4.698   7.761   4.851  0.5397  0.7032  0.4205
 6664TIP3    H119935   4.755   7.815   4.796  0.2566  0.7163  0.1334
 6664TIP3    H219936   4.749   7.682   4.868  0.6657  0.7352  0.1999
 6665TIP3   OH219937   7.783   3.042   6.413 -0.1279  0.9809 -0.3628
 6665TIP3    H119938   7.751   3.108   6.475 -1.3986 -0.2506  0.3797
 6665TIP3    H219939   7.721   3.047   6.340  0.1734  1.0734 -0.6099
 6666TIP3   OH219940   1.195   3.013   6.569  0.0099  0.6918  0.2071
 6666TIP3    H119941   1.190   2.919   6.587 -0.4717  0.7493  0.3866
 6666TIP3    H219942   1.216   3.018   6.476  0.3489  0.4041  0.2662
 6667TIP3   OH219943   2.781   3.406   2.844 -0.1676 -0.3825  0.3038
 6667TIP3    H119944   2.854   3.362   2.801  0.6586  0.5089  0.7409
 6667TIP3    H219945   2.705   3.385   2.791  0.8349  0.8401 -1.7548
 6668TIP3   OH219946   2.105   2.619   1.808  0.0753 -0.1635 -0.3443
 6668TIP3    H119947   2.025   2.567   1.817  0.8585 -1.2282  0.7753
 6668TIP3    H219948   2.099   2.657   1.720 -1.8865  0.2042 -0.1144
 6669TIP3   OH219949   8.223   1.659   4.508  0.0139  0.0976 -0.3130
 6669TIP3    H119950   8.264   1.586   4.462  1.0495  0.7675 -0.4940
 6669TIP3    H219951   8.293   1.724   4.516 -0.7291  0.8352  0.3522
 6670TIP3   OH219952   5.804   1.206   6.643 -0.5303  0.4244 -0.0691
 6670TIP3    H119953   5.767   1.224   6.556  0.4635 -2.2782 -1.1871
 6670TIP3    H219954   5.779   1.115   6.661  2.3452 -0.3337  0.7321
 6671TIP3   OH219955   3.261   5.453   0.130 -0.0145 -0.3573  0.3790
 6671TIP3    H119956   3.323   5.419   0.194  0.8331 -0.3957 -0.4316
 6671TIP3    H219957   3.180   5.466   0.179  1.1661  1.6092  1.9648
 6672TIP3   OH219958   6.940   5.662   3.051 -0.1405  0.1674 -0.5657
 6672TIP3    H119959   6.989   5.674   3.132 -1.0776 -0.7262  0.1608
 6672TIP3    H219960   6.931   5.750   3.015  1.0144  0.4732 -0.1495
 6673TIP3   OH219961   7.554   5.690   6.335 -0.0544 -0.2291  0.3173
 6673TIP3    H119962   7.633   5.738   6.309 -0.7603  0.3315 -0.8544
 6673TIP3    H219963   7.585   5.602   6.355  0.7921 -0.1641 -0.6655
 6674TIP3   OH219964   2.977   5.270   2.477  0.0968 -0.1900 -0.2551
 6674TIP3    H119965   2.922   5.343   2.446  0.3282 -0.7119 -1.9544
 6674TIP3    H219966   2.914   5.205   2.508 -0.1462  0.1768  0.0496
 6675TIP3   OH219967   1.974   4.544   3.521  0.3967 -0.1070 -0.4003
 6675TIP3    H119968   1.926   4.490   3.583  0.4187  0.9965  0.6234
 6675TIP3    H219969   1.908   4.602   3.483  0.5443 -0.1348 -0.7052
 6676TIP3   OH219970   3.881   6.351   6.445  0.6049 -0.0664 -0.6233
 6676TIP3    H119971   3.961   6.308   6.414  0.5348 -0.4237 -0.3178
 6676TIP3    H219972   3.911   6.417   6.508  0.5940 -0.9810  0.3678
 6677TIP3   OH219973   5.168   3.265   0.606 -0.5673  0.0640 -0.4117
 6677TIP3    H119974   5.075   3.264   0.584 -0.4569 -1.1602 -0.8798
 6677TIP3    H219975   5.201   3.346   0.566 -1.9375  2.0112  2.1085
 6678TIP3   OH219976   1.983   6.495   3.416 -0.1907  0.2221  0.3287
 6678TIP3    H119977   1.913   6.474   3.355 -0.5323  0.1790  0.7278
 6678TIP3    H219978   2.062   6.455   3.379 -0.9766 -2.7158  1.5647
 6679TIP3   OH219979   5.146   6.033   3.366  0.2735  0.1337 -0.3393
 6679TIP3    H119980   5.123   6.004   3.455  0.8863 -0.1805 -0.2766
 6679TIP3    H219981   5.237   6.063   3.374  0.5599 -0.5448 -1.0087
 6680TIP3   OH219982   0.112   7.207   5.119 -0.0470  0.0117 -0.1876
 6680TIP3    H119983   0.128   7.251   5.035  0.0483 -0.2831 -0.3257
 6680TIP3    H219984   0.067   7.272   5.172  0.1238  0.2848 -0.3804
 6681TIP3   OH219985   2.159   7.618   1.573 -0.0284  0.1230  0.9545
 6681TIP3    H119986   2.232   7.584   1.623 -1.0657 -0.3497  2.2067
 6681TIP3    H219987   2.115   7.679   1.633 -1.4729 -0.6790  0.7715
 6682TIP3   OH219988   1.686   1.901   4.337  0.3842  0.3489  0.3969
 6682TIP3    H119989   1.747   1.957   4.386  0.2425 -0.7234  1.8919
 6682TIP3    H219990   1.599   1.931   4.364  0.2855  0.3345  0.0991
 6683TIP3   OH219991   4.947   3.365   0.260 -0.5337 -0.1667 -0.4843
 6683TIP3    H119992   4.877   3.393   0.202 -0.0229  1.7914 -0.2127
 6683TIP3    H219993   4.909   3.371   0.348 -0.2016  0.3755 -0.3746
 6684TIP3   OH219994   3.684   3.554   0.148 -0.0184 -0.2011 -0.3746
 6684TIP3    H119995   3.732   3.580   0.070  0.4144  0.6219  0.1531
 6684TIP3    H219996   3.597   3.591   0.136 -0.4345 -1.3698 -1.1543
 6685TIP3   OH219997   1.395   5.744   5.662  0.0274 -0.0424 -0.9699
 6685TIP3    H119998   1.384   5.839   5.660  0.7584  0.0279 -2.0687
 6685TIP3    H219999   1.479   5.728   5.619 -0.0430 -1.1804 -0.7109
 6686TIP3   OH220000  -0.015   4.487   3.444  0.0105 -0.0073 -0.1716
 6686TIP3    H120001  -0.037   4.456   3.532  1.8238 -0.3002  0.2189
 6686TIP3    H220002   0.060   4.434   3.418 -0.5439  0.0201 -1.9529
 6687TIP3   OH220003   1.764   3.591   1.862 -0.3468  0.4375  0.1671
 6687TIP3    H120004   1.716   3.596   1.944 -1.0713  0.7370 -0.2648
 6687TIP3    H220005   1.732   3.511   1.820  1.8714 -1.1570  1.2870
 6688TIP3   OH220006   4.021   0.627   0.498  0.7341  0.3063 -0.7193
 6688TIP3    H120007   3.960   0.696   0.525 -0.2875 -1.1802  0.9913
 6688TIP3    H220008   4.066   0.602   0.578  0.6372 -1.4111 -1.1643
 6689TIP3   OH220009   5.876   7.207   0.093 -0.0600 -0.0319  0.0079
 6689TIP3    H120010   5.914   7.281   0.140 -2.0438  0.2201  1.3268
 6689TIP3    H220011   5.787   7.201   0.125 -0.1505 -2.6484 -0.4976
 6690TIP3   OH220012   3.117   7.234   2.925  1.2182  0.3267  0.6786
 6690TIP3    H120013   3.211   7.253   2.920  1.2274  0.1132 -0.3314
 6690TIP3    H220014   3.113   7.139   2.933  1.0940  0.0626 -1.6516
 6691TIP3   OH220015   5.739   3.408   4.853 -0.1397 -0.3980  0.2166
 6691TIP3    H120016   5.822   3.367   4.880 -0.6552 -1.6575 -0.0543
 6691TIP3    H220017   5.744   3.497   4.888  2.8342  0.7586 -2.6485
 6692TIP3   OH220018   2.893   0.339   0.253  0.0808 -0.3638 -0.1156
 6692TIP3    H120019   2.962   0.396   0.218  0.4431 -0.1154  0.9797
 6692TIP3    H220020   2.930   0.303   0.333 -1.0078 -0.3602  0.4062
 6693TIP3   OH220021   3.553   4.854   4.133  0.3815  0.0402  0.3476
 6693TIP3    H120022   3.572   4.883   4.043 -0.5946 -1.6857 -0.4697
 6693TIP3    H220023   3.625   4.795   4.154  1.1604  1.2385  1.1285
 6694TIP3   OH220024   3.455   1.060   3.795 -0.2444  0.2396  0.0343
 6694TIP3    H120025   3.465   1.134   3.855 -0.1681 -0.0830  0.4207
 6694TIP3    H220026   3.421   0.989   3.849 -0.0961 -0.0775 -0.2863
 6695TIP3   OH220027   8.194   3.188   0.630 -0.1910 -0.4654 -0.1372
 6695TIP3    H120028   8.272   3.208   0.680 -0.5435 -1.9821  1.1033
 6695TIP3    H220029   8.221   3.118   0.570 -0.8631 -1.9585  1.2325
 6696TIP3   OH220030   6.072   3.386   6.612 -0.0385  0.0151 -0.2202
 6696TIP3    H120031   6.025   3.436   6.678  1.6639 -0.8207  1.7320
 6696TIP3    H220032   6.116   3.452   6.558  0.7836  0.7326  1.2465
 6697TIP3   OH220033   8.067   6.701   3.638  0.4578 -0.1253 -0.1369
 6697TIP3    H120034   8.121   6.625   3.616  1.7423  1.1326 -1.5760
 6697TIP3    H220035   8.130   6.768   3.666 -0.3885  1.1419 -1.1327
 6698TIP3   OH220036   5.158   2.253   3.387 -0.5835 -0.7518  0.2162
 6698TIP3    H120037   5.068   2.223   3.402 -0.9456  0.2090  0.0730
 6698TIP3    H220038   5.173   2.317   3.457 -0.5743  0.2187 -0.6420
 6699TIP3   OH220039   1.095   1.029   0.582  0.2365  0.1746 -0.1390
 6699TIP3    H120040   1.133   1.111   0.613 -0.1981  0.8646 -1.3471
 6699TIP3    H220041   1.075   1.046   0.490 -0.8411 -0.9440 -0.1309
 6700TIP3   OH220042   7.769   4.198   2.683 -0.0013 -0.1621 -0.2290
 6700TIP3    H120043   7.699   4.257   2.709  0.8142  0.0470  1.5896
 6700TIP3    H220044   7.733   4.111   2.695 -0.2822 -0.0482 -0.2487
 6701TIP3   OH220045   8.271   5.924   6.631  0.1924  0.1655 -0.0539
 6701TIP3    H120046   8.250   5.883   6.715 -0.1408  2.2648  0.9538
 6701TIP3    H220047   8.258   6.018   6.646  1.8470  0.7720 -1.9440
 6702TIP3   OH220048   1.333   6.689   3.223  0.0652  0.0429  0.1192
 6702TIP3    H120049   1.365   6.763   3.276 -0.5467  1.0744 -0.9040
 6702TIP3    H220050   1.245   6.715   3.197 -0.0376 -0.9205 -0.5351
 6703TIP3   OH220051   5.623   4.017   0.479 -0.6918 -0.2385 -0.0664
 6703TIP3    H120052   5.718   4.008   0.485 -0.8167 -0.6653  1.8495
 6703TIP3    H220053   5.610   4.080   0.408  1.2297  2.9870  2.1443
 6704TIP3   OH220054   1.270   5.732   2.915  0.0091  0.3630  0.0060
 6704TIP3    H120055   1.315   5.766   2.838  2.2443 -0.1783  0.9965
 6704TIP3    H220056   1.282   5.638   2.911 -0.4316  0.2694  0.6676
 6705TIP3   OH220057   3.484   0.051   6.112 -0.4662  0.4119  0.0463
 6705TIP3    H120058   3.416   0.117   6.125 -1.4729 -0.7418  0.9503
 6705TIP3    H220059   3.491   0.041   6.017 -2.3356 -0.1824 -0.0710
 6706TIP3   OH220060   7.075   3.449   4.899 -0.2626  0.5806  0.5014
 6706TIP3    H120061   7.028   3.520   4.944 -1.9658  0.7247 -1.3524
 6706TIP3    H220062   7.157   3.490   4.871 -0.8252  1.5804  0.2443
 6707TIP3   OH220063   1.500   4.570   6.606 -0.0920  0.3930  0.1575
 6707TIP3    H120064   1.495   4.632   6.678  1.3620 -0.3976  1.0064
 6707TIP3    H220065   1.506   4.484   6.648 -2.2986 -0.4113 -0.9795
 6708TIP3   OH220066   8.222   5.258   1.817  0.3471 -0.6736  0.2674
 6708TIP3    H120067   8.241   5.196   1.888 -3.2678 -0.8877  1.2894
 6708TIP3    H220068   8.129   5.243   1.797 -0.5236  3.7970 -0.0593
 6709TIP3   OH220069   5.280   0.472   1.372 -0.5197  0.3672 -0.1125
 6709TIP3    H120070   5.231   0.518   1.441 -0.3409  1.8363 -0.9352
 6709TIP3    H220071   5.263   0.523   1.293  2.1567  0.8223 -0.4761
 6710TIP3   OH220072   0.582   7.848   1.838  0.5494 -0.1221 -0.0183
 6710TIP3    H120073   0.639   7.789   1.788  1.1512  0.7374 -0.3738
 6710TIP3    H220074   0.493   7.819   1.816  0.8025 -2.2628  1.4867
 6711TIP3   OH220075   6.945   0.274   2.983  0.1099 -0.0413 -0.2637
 6711TIP3    H120076   6.893   0.193   2.980  0.4694 -0.2578 -0.6782
 6711TIP3    H220077   6.881   0.342   3.004  0.0035 -0.6080  1.3759
 6712TIP3   OH220078   6.731   0.703   5.884 -0.4519 -0.0381  0.1594
 6712TIP3    H120079   6.791   0.750   5.827  0.0415  1.2352  1.6373
 6712TIP3    H220080   6.644   0.726   5.851 -0.1756  0.3905 -0.2839
 6713TIP3   OH220081   7.857   1.788   1.425  0.6842 -0.1774 -0.1443
 6713TIP3    H120082   7.898   1.737   1.495 -0.0033 -0.7246 -0.1373
 6713TIP3    H220083   7.848   1.876   1.461 -0.9925 -0.7897  1.0025
 6714TIP3   OH220084   0.321   2.287   2.374  0.4346 -0.5014 -0.5417
 6714TIP3    H120085   0.392   2.282   2.439 -0.2228  0.3701  0.2737
 6714TIP3    H220086   0.340   2.368   2.325  1.2345 -1.4321 -1.8469
 6715TIP3   OH220087   3.789   5.155   1.563  0.1699  0.1116 -0.2388
 6715TIP3    H120088   3.725   5.217   1.529 -0.2392 -1.4534 -2.5222
 6715TIP3    H220089   3.801   5.091   1.493  1.3039 -1.8626  1.6215
 6716TIP3   OH220090   6.754   0.707   0.180  0.1759 -0.4689 -0.3185
 6716TIP3    H120091   6.698   0.640   0.219 -1.1909  1.5132  1.3568
 6716TIP3    H220092   6.782   0.761   0.253  2.3813  0.0374 -1.4348
 6717TIP3   OH220093   7.674   4.588   3.756 -0.3283  0.2785 -0.2416
 6717TIP3    H120094   7.612   4.580   3.829 -0.0846  1.6362  0.1432
 6717TIP3    H220095   7.746   4.640   3.792  0.2095  0.2147 -1.2039
 6718TIP3   OH220096   3.987   2.848   5.619  0.0230 -0.3283  0.3375
 6718TIP3    H120097   4.027   2.763   5.638 -0.1991 -0.4954  0.0641
 6718TIP3    H220098   4.060   2.903   5.589  0.6172  0.3253  2.8077
 6719TIP3   OH220099   3.724   6.198   5.875  0.7378 -0.2559  0.3141
 6719TIP3    H120100   3.724   6.261   5.804  0.1579 -1.1896 -0.5488
 6719TIP3    H220101   3.682   6.120   5.838  2.0992 -1.4230  1.0910
 6720TIP3   OH220102   2.230   6.378   5.388  0.1413  0.0539 -0.2045
 6720TIP3    H120103   2.251   6.470   5.370 -0.4807  0.6384  1.7696
 6720TIP3    H220104   2.160   6.357   5.326 -0.0700  1.0882 -0.3442
 6721TIP3   OH220105   7.323   2.709   0.143  0.4988 -0.1290 -0.1129
 6721TIP3    H120106   7.381   2.696   0.219  1.5655  1.6800 -0.5637
 6721TIP3    H220107   7.250   2.760   0.178 -0.3145 -1.4650  0.2114
 6722TIP3   OH220108   7.475   4.405   0.420 -0.2540  0.4292 -0.4311
 6722TIP3    H120109   7.564   4.419   0.452 -0.4941 -0.9396  0.9632
 6722TIP3    H220110   7.468   4.460   0.342  1.7310  0.7273 -0.4386
 6723TIP3   OH220111   2.287   4.063   1.210  0.2687  0.4796  0.3532
 6723TIP3    H120112   2.324   4.060   1.298 -0.0156 -1.0895  0.4438
 6723TIP3    H220113   2.204   4.017   1.217  1.0421 -1.2648 -1.0817
 6724TIP3   OH220114   8.090  -0.002   5.975  0.1035  0.0728  0.5301
 6724TIP3    H120115   8.016  -0.063   5.977 -0.8327  1.1550  2.6706
 6724TIP3    H220116   8.053   0.079   5.940  0.7272  0.1232 -0.0257
 6725TIP3   OH220117   6.790   5.142   4.303  0.5351  0.4850 -0.0013
 6725TIP3    H120118   6.719   5.106   4.250  0.2309  0.0742  0.6771
 6725TIP3    H220119   6.769   5.115   4.392  1.3957  0.6074  0.2401
 6726TIP3   OH220120   3.662   3.554   0.414 -0.9491 -0.3056 -0.1048
 6726TIP3    H120121   3.688   3.533   0.324  0.7979 -1.0692  0.5265
 6726TIP3    H220122   3.638   3.469   0.451  0.1699 -0.2996  0.6750
 6727TIP3   OH220123   3.560   1.492   5.244 -0.0833  0.8521 -0.3707
 6727TIP3    H120124   3.589   1.573   5.286 -0.9189 -0.0951  2.2144
 6727TIP3    H220125   3.550   1.429   5.316  2.4107 -2.2233 -2.4254
 6728TIP3   OH220126   7.798   1.964   0.758  0.0528  0.1209  0.2428
 6728TIP3    H120127   7.738   1.929   0.824 -0.1218  0.4476  0.2591
 6728TIP3    H220128   7.872   1.904   0.760 -0.7515 -0.9365 -0.5689
 6729TIP3   OH220129   0.601   4.456   5.024  0.4236  0.2016  0.0820
 6729TIP3    H120130   0.677   4.443   4.967  2.4113  1.0141  2.3701
 6729TIP3    H220131   0.635   4.443   5.112 -2.2831  0.0157  1.1865
 6730TIP3   OH220132   1.721   5.440   4.191  0.3163  0.5226 -0.2153
 6730TIP3    H120133   1.777   5.515   4.214 -0.3972  0.5426  1.6668
 6730TIP3    H220134   1.770   5.364   4.221  0.3856  0.3523 -0.7603
 6731TIP3   OH220135   5.392   6.066   1.529 -0.0770  0.3548 -0.1894
 6731TIP3    H120136   5.390   6.113   1.445  0.5770  0.3809 -0.1972
 6731TIP3    H220137   5.422   6.132   1.592  1.2394 -0.1490 -0.2703
 6732TIP3   OH220138   3.981   4.159   3.325  0.0416  0.3861  0.1695
 6732TIP3    H120139   3.961   4.201   3.409  0.6627  0.9864  0.0247
 6732TIP3    H220140   4.077   4.154   3.323 -0.0093 -2.2905  0.7889
 6733TIP3   OH220141   2.720   2.283   0.228  0.5586  0.3121  0.3373
 6733TIP3    H120142   2.681   2.196   0.240  1.3287 -0.4393 -2.0348
 6733TIP3    H220143   2.783   2.291   0.300  0.3809 -1.0528  0.6674
 6734TIP3   OH220144   2.757   0.606   3.913  0.6286  0.2284 -0.1957
 6734TIP3    H120145   2.841   0.616   3.869  0.3345  0.6774 -0.6743
 6734TIP3    H220146   2.708   0.685   3.889 -0.5795 -0.8325 -1.3523
 6735TIP3   OH220147   3.666   1.462   2.934 -0.4018 -0.4211 -0.5061
 6735TIP3    H120148   3.701   1.551   2.927  0.0505 -0.4285  1.2249
 6735TIP3    H220149   3.578   1.474   2.971 -0.5180 -0.6748 -0.6994
 6736TIP3   OH220150   3.112   1.736   5.060 -0.3048 -0.7899 -0.3619
 6736TIP3    H120151   3.202   1.709   5.077  1.1875  3.5183 -0.3489
 6736TIP3    H220152   3.093   1.702   4.973  1.5534 -1.2602 -0.6238
 6737TIP3   OH220153   2.908   5.254   0.152 -0.0017 -0.3153 -0.2911
 6737TIP3    H120154   2.951   5.289   0.230  0.3424 -0.4396 -0.4258
 6737TIP3    H220155   2.956   5.175   0.131  0.1164 -0.1089 -0.8215
 6738TIP3   OH220156   3.363   5.219   0.938  0.3866  0.1960  0.1032
 6738TIP3    H120157   3.360   5.225   0.843 -0.5209  0.9235  0.1598
 6738TIP3    H220158   3.280   5.177   0.963  0.8589 -0.4924  0.5420
 6739TIP3   OH220159   1.870   4.125   1.239  0.2184  0.2446  0.0572
 6739TIP3    H120160   1.922   4.046   1.252  0.2789  0.2433 -0.1902
 6739TIP3    H220161   1.779   4.094   1.243  0.1918  0.4328  1.7122
 6740TIP3   OH220162   3.999   1.497   6.603 -0.3109 -0.4040 -0.0764
 6740TIP3    H120163   4.013   1.478   6.510 -1.5777  1.8862 -0.8146
 6740TIP3    H220164   4.086   1.491   6.642  0.3868 -0.5816 -1.5895
 6741TIP3   OH220165   6.554   4.951   3.727 -0.4742  0.2666  0.0018
 6741TIP3    H120166   6.508   4.990   3.801  0.7519  1.4821  0.1843
 6741TIP3    H220167   6.552   4.857   3.744 -1.5144  0.4101  0.7831
 6742TIP3   OH220168   4.356   6.966   5.684  0.4647  0.3213  0.2195
 6742TIP3    H120169   4.442   6.994   5.713  1.2751 -2.6040  1.0399
 6742TIP3    H220170   4.332   6.896   5.745 -1.0976 -1.0475 -1.8267
 6743TIP3   OH220171   5.488   0.073   5.757  0.3477  0.0658  0.1158
 6743TIP3    H120172   5.582   0.086   5.769  0.4240 -0.6361  0.3057
 6743TIP3    H220173   5.454   0.059   5.845 -0.1073  1.3647  0.1643
 6744TIP3   OH220174   6.165   3.726   4.822 -0.1819  0.0082  0.3501
 6744TIP3    H120175   6.089   3.739   4.765 -0.0660  0.0945  0.2161
 6744TIP3    H220176   6.192   3.635   4.806 -0.2476 -0.0179  0.3866
 6745TIP3   OH220177   4.805   6.316   2.274  0.3448 -0.9309  0.5188
 6745TIP3    H120178   4.711   6.314   2.260  0.3349 -1.3101  0.6133
 6745TIP3    H220179   4.843   6.290   2.190  0.4254  0.7502  0.0043
 6746TIP3   OH220180   3.222   2.935   4.725  0.3738 -0.0287  0.5425
 6746TIP3    H120181   3.230   3.001   4.656 -1.3576  1.0718  1.3257
 6746TIP3    H220182   3.228   2.852   4.679  0.0825  0.6735 -0.8380
 6747TIP3   OH220183   0.388   6.291   3.972  0.3657 -0.0327 -0.1425
 6747TIP3    H120184   0.463   6.258   3.924  0.2707 -1.1430  0.4356
 6747TIP3    H220185   0.312   6.253   3.927  0.3135 -2.1586  1.5727
 6748TIP3   OH220186   4.128   4.767   5.827  0.1633  0.3551 -0.2694
 6748TIP3    H120187   4.161   4.815   5.903 -0.9447  1.5592 -0.5109
 6748TIP3    H220188   4.086   4.689   5.865 -1.2735  1.4374  0.5052
 6749TIP3   OH220189   1.882   0.998   6.700  0.5620  0.3077  0.1303
 6749TIP3    H120190   1.835   1.040   6.772  0.7352 -1.5039  1.3276
 6749TIP3    H220191   1.881   1.065   6.631 -0.3740  1.7639  1.4616
 6750TIP3   OH220192   7.644   0.662   6.753 -1.1412  0.1455 -0.3049
 6750TIP3    H120193   7.556   0.654   6.715 -0.7597  0.4806 -1.3029
 6750TIP3    H220194   7.660   0.576   6.793 -1.5810 -0.2278 -0.8971
 6751TIP3   OH220195   5.588   4.479   3.338 -0.0316 -0.1872 -0.2056
 6751TIP3    H120196   5.551   4.410   3.283  0.9035 -1.2019  0.4029
 6751TIP3    H220197   5.596   4.439   3.425 -1.0802  1.2458  0.5888
 6752TIP3   OH220198   2.576   4.895   6.175  0.3569  0.0853 -0.1149
 6752TIP3    H120199   2.526   4.815   6.158 -2.1014  2.0450 -3.0516
 6752TIP3    H220200   2.662   4.877   6.136  0.6850 -1.8413  1.3062
 6753TIP3   OH220201   0.172   4.722   3.377 -0.0405 -0.2650  0.4840
 6753TIP3    H120202   0.193   4.708   3.470 -0.0759  0.2324  0.5710
 6753TIP3    H220203   0.096   4.667   3.361 -0.6721  0.4250  1.0279
 6754TIP3   OH220204   5.628   3.773   4.049  0.9976 -0.0518 -0.4561
 6754TIP3    H120205   5.672   3.855   4.026  0.0328  0.7170  0.3304
 6754TIP3    H220206   5.558   3.765   3.985 -0.3687  0.9905  0.8459
 6755TIP3   OH220207   5.600   3.133   2.797 -0.5188 -0.0704  0.3372
 6755TIP3    H120208   5.675   3.077   2.817  1.0998  2.1293  0.8413
 6755TIP3    H220209   5.610   3.153   2.704  0.1069  0.9686  0.6093
 6756TIP3   OH220210   1.820   1.450   4.083 -0.4951  0.5391 -0.1915
 6756TIP3    H120211   1.810   1.545   4.090  1.0758  0.7168 -0.0447
 6756TIP3    H220212   1.818   1.433   3.989  0.1708  0.8401 -0.2647
 6757TIP3   OH220213   1.656   0.127   6.263  0.7036  0.0865  0.5873
 6757TIP3    H120214   1.704   0.200   6.224  1.4715  0.2781  1.8278
 6757TIP3    H220215   1.724   0.060   6.278  0.5979  0.3269  2.2868
 6758TIP3   OH220216   7.779   2.447   2.168 -0.3478 -0.1371 -0.4157
 6758TIP3    H120217   7.733   2.450   2.252  0.2898 -2.6660  0.1037
 6758TIP3    H220218   7.836   2.525   2.169 -2.3306  1.3819  0.2328
 6759TIP3   OH220219   0.043   0.551   6.676  0.5830 -0.3553  0.5646
 6759TIP3    H120220  -0.015   0.501   6.618 -1.0286 -0.3247  2.0654
 6759TIP3    H220221   0.081   0.618   6.620 -0.3543 -0.7803 -0.6180
 6760TIP3   OH220222   5.804   4.681   1.822  0.4080 -0.1273  0.0826
 6760TIP3    H120223   5.859   4.746   1.778  1.7323 -0.7541  0.7313
 6760TIP3    H220224   5.720   4.684   1.777  0.1015  2.7023  0.6821
 6761TIP3   OH220225   8.245   0.765   0.908 -0.0662 -0.2477 -0.0879
 6761TIP3    H120226   8.255   0.670   0.902  2.1622 -0.1278  0.9342
 6761TIP3    H220227   8.150   0.779   0.913 -0.5778 -2.2156 -2.5550
 6762TIP3   OH220228   3.220   0.868   2.292 -0.1417 -0.2310  0.7680
 6762TIP3    H120229   3.168   0.832   2.364 -0.6835  0.0397  0.5196
 6762TIP3    H220230   3.158   0.876   2.220  0.9865 -3.3153 -0.7314
 6763TIP3   OH220231   3.485   3.817   2.511 -0.4685  0.4300 -0.0194
 6763TIP3    H120232   3.545   3.749   2.481  1.2837  1.8720  0.0336
 6763TIP3    H220233   3.513   3.896   2.465 -1.0200  1.5978  1.5436
 6764TIP3   OH220234   0.444   6.197   5.413  0.4966  0.0126 -0.4362
 6764TIP3    H120235   0.510   6.192   5.344  1.8642  0.4330  0.7916
 6764TIP3    H220236   0.442   6.290   5.437 -0.5883  0.0136 -0.4800
 6765TIP3   OH220237   6.514   4.305   2.719 -0.2126  0.1969 -0.1707
 6765TIP3    H120238   6.435   4.304   2.665  0.1831 -0.6687 -0.7470
 6765TIP3    H220239   6.580   4.348   2.665 -0.1173  0.3691  0.0781
 6766TIP3   OH220240   1.175   4.138   4.414  0.3169 -0.1553 -0.1952
 6766TIP3    H120241   1.103   4.091   4.456 -1.4058  0.8622 -1.8456
 6766TIP3    H220242   1.230   4.070   4.376 -0.4006 -0.9381  0.1457
 6767TIP3   OH220243   8.078   1.094   1.820 -1.1665  0.6877  0.3416
 6767TIP3    H120244   8.049   1.081   1.911 -1.4192 -1.5915  0.0123
 6767TIP3    H220245   8.024   1.033   1.769 -0.0953  0.9239 -1.1537
 6768TIP3   OH220246   5.565   3.810   0.013 -0.2982  0.0376  0.0838
 6768TIP3    H120247   5.575   3.780   0.103 -0.4766 -0.6120 -0.1031
 6768TIP3    H220248   5.532   3.733  -0.034  2.0838 -0.3887 -1.0285
 6769TIP3   OH220249   4.829   2.561   0.331 -0.3135 -0.5365  0.1410
 6769TIP3    H120250   4.808   2.501   0.402  1.2756 -2.3766 -0.8347
 6769TIP3    H220251   4.913   2.599   0.356 -0.4110 -0.1430 -0.1185
 6770TIP3   OH220252   0.738   0.052   2.959  0.7244 -0.2253 -0.3269
 6770TIP3    H120253   0.666   0.023   3.016  0.5069  1.7460  0.4690
 6770TIP3    H220254   0.792   0.108   3.015  1.6525  0.1259 -1.5326
 6771TIP3   OH220255   6.370   0.303   6.435  0.7034  0.1798  1.1133
 6771TIP3    H120256   6.291   0.350   6.462  0.9358  2.7426 -1.9273
 6771TIP3    H220257   6.442   0.354   6.473  0.9155 -0.0483  1.0189
 6772TIP3   OH220258   7.285   3.753   1.467  0.2743 -0.0939 -0.0943
 6772TIP3    H120259   7.222   3.723   1.402 -0.7271 -0.4362  0.9906
 6772TIP3    H220260   7.231   3.789   1.538  1.2766 -0.6923  1.0088
 6773TIP3   OH220261   2.426   4.258   2.472  0.1122  0.4283 -0.1613
 6773TIP3    H120262   2.471   4.175   2.487  1.1430  0.5667 -2.1605
 6773TIP3    H220263   2.495   4.318   2.445 -1.0225  1.1017 -1.7000
 6774TIP3   OH220264   7.161   3.042  -0.018  0.1275 -0.5115  0.4249
 6774TIP3    H120265   7.125   3.130  -0.014  0.3999 -0.3003 -1.1424
 6774TIP3    H220266   7.232   3.042   0.046  0.9878  0.8426 -0.4850
 6775TIP3   OH220267   0.582   6.282   2.059  0.0470  0.0453  0.0007
 6775TIP3    H120268   0.509   6.224   2.041  0.3082 -0.3345  0.1451
 6775TIP3    H220269   0.648   6.226   2.101 -0.3675  0.7881  1.7531
 6776TIP3   OH220270   6.859   7.406   2.494 -0.3383  0.2150  0.1552
 6776TIP3    H120271   6.908   7.433   2.571  1.3204  1.1526 -1.1740
 6776TIP3    H220272   6.916   7.342   2.451 -0.2856  1.2312 -1.3566
 6777TIP3   OH220273   7.422   6.154   6.661 -0.2011  0.2037  0.5611
 6777TIP3    H120274   7.484   6.193   6.599  0.3929  0.3732  1.2517
 6777TIP3    H220275   7.433   6.204   6.742  0.1351 -0.9831  1.2788
 6778TIP3   OH220276   6.137   3.752   2.432  1.0592  0.1585 -0.0423
 6778TIP3    H120277   6.207   3.813   2.408  1.0417  0.2102  0.0398
 6778TIP3    H220278   6.108   3.716   2.348 -0.6207  2.0992 -0.3733
 6779TIP3   OH220279   5.637   2.405   3.864  0.0099  0.3076  0.0527
 6779TIP3    H120280   5.695   2.482   3.868  2.2266 -1.3224  1.0750
 6779TIP3    H220281   5.661   2.362   3.782  0.3743 -0.4413  0.5402
 6780TIP3   OH220282   1.389   5.683   6.048  0.6523 -0.2824  0.2824
 6780TIP3    H120283   1.355   5.594   6.053  0.3671 -0.1731  0.2898
 6780TIP3    H220284   1.391   5.714   6.139 -0.3072  0.1147  0.1747
 6781TIP3   OH220285   4.727   6.154   5.087 -0.2158  0.1416  0.4083
 6781TIP3    H120286   4.754   6.067   5.115 -1.5645  0.0407  1.4567
 6781TIP3    H220287   4.650   6.140   5.032 -0.8189  0.6804  1.0812
 6782TIP3   OH220288   5.571   4.023   4.555  0.0306 -0.3119  0.6883
 6782TIP3    H120289   5.540   3.933   4.549  0.2091 -0.3565  0.3871
 6782TIP3    H220290   5.551   4.050   4.644  0.8281 -0.9770  1.0876
 6783TIP3   OH220291   4.572   1.545   2.925 -0.2992 -0.5635  0.4027
 6783TIP3    H120292   4.661   1.551   2.891 -1.3607 -0.1382 -2.6325
 6783TIP3    H220293   4.532   1.629   2.901 -2.2677 -1.7778 -0.8149
 6784TIP3   OH220294   3.122   0.700   1.639 -0.0949  0.3601  0.0169
 6784TIP3    H120295   3.102   0.763   1.570  0.2130  0.1600 -0.2575
 6784TIP3    H220296   3.137   0.617   1.593 -0.8125  0.0104  0.4011
 6785TIP3   OH220297   6.325   7.432   1.765 -0.7082 -0.3928  0.2463
 6785TIP3    H120298   6.308   7.508   1.821 -1.0906 -0.2046 -0.1209
 6785TIP3    H220299   6.382   7.465   1.696 -0.0683 -0.6728  0.6355
 6786TIP3   OH220300   0.294   6.848   3.320  0.5463 -0.5786  0.1028
 6786TIP3    H120301   0.287   6.806   3.234 -0.0527  1.2440 -0.7886
 6786TIP3    H220302   0.378   6.893   3.319  1.0145 -1.4001  0.9007
 6787TIP3   OH220303   5.765   3.154   2.054  0.6372  0.3695 -0.8669
 6787TIP3    H120304   5.747   3.070   2.013  0.6729 -0.0592 -0.0378
 6787TIP3    H220305   5.791   3.131   2.144 -0.7074  1.3373 -0.2013
 6788TIP3   OH220306   6.284   2.613   1.044 -0.1304  0.4364  0.0507
 6788TIP3    H120307   6.197   2.629   1.007 -0.2595 -0.5578 -0.0939
 6788TIP3    H220308   6.321   2.701   1.056 -0.8540  0.8431 -0.5930
 6789TIP3   OH220309   7.931   3.191   6.653 -0.2471  0.1030  0.2329
 6789TIP3    H120310   7.943   3.103   6.688 -1.1910  0.9642  2.9381
 6789TIP3    H220311   8.014   3.211   6.609  0.7237 -1.3787  1.2978
 6790TIP3   OH220312   0.063   4.675   6.599 -0.1008  0.4354 -0.2062
 6790TIP3    H120313   0.107   4.704   6.519  0.1979 -1.0947 -0.6221
 6790TIP3    H220314   0.120   4.706   6.669  1.3850 -1.0071 -0.7161
 6791TIP3   OH220315   0.706   1.258   2.981  0.4731 -0.0860  0.4753
 6791TIP3    H120316   0.671   1.203   2.911 -0.6160  0.0575  0.8844
 6791TIP3    H220317   0.630   1.278   3.036  0.8422  1.7832  0.3651
 6792TIP3   OH220318   2.303   6.140   5.141  0.0742 -0.3208 -0.0562
 6792TIP3    H120319   2.363   6.201   5.099 -0.8351  0.6949  0.0884
 6792TIP3    H220320   2.262   6.093   5.068 -1.2324  1.1824 -0.3494
 6793TIP3   OH220321   0.463   5.895   6.594  0.3633  0.2059 -0.7002
 6793TIP3    H120322   0.375   5.859   6.593  1.1312 -1.8504 -0.0736
 6793TIP3    H220323   0.486   5.900   6.687  1.5128 -1.0252 -0.8760
 6794TIP3   OH220324   0.095   6.475   2.286  0.1245 -0.1291 -0.6126
 6794TIP3    H120325   0.075   6.566   2.268 -0.9327 -0.5336 -1.5821
 6794TIP3    H220326   0.175   6.478   2.339 -0.4882  1.3948  0.2888
 6795TIP3   OH220327   2.330   3.024   3.770  0.1178  0.2076 -0.4631
 6795TIP3    H120328   2.265   3.091   3.750  0.1655  0.2064 -0.6191
 6795TIP3    H220329   2.320   3.009   3.864 -0.3119 -0.0005 -0.5376
 6796TIP3   OH220330   1.497   5.987   6.728 -0.4974 -0.1393 -0.0945
 6796TIP3    H120331   1.496   6.029   6.814 -1.8505 -0.2592 -0.0410
 6796TIP3    H220332   1.421   5.930   6.728  0.7807 -1.9493 -0.4975
 6797TIP3   OH220333   0.645   4.411   4.476  0.1427 -0.7532  0.5268
 6797TIP3    H120334   0.728   4.427   4.431  0.5758 -2.5562  0.6024
 6797TIP3    H220335   0.636   4.485   4.536  1.4282 -0.2386  0.1231
 6798TIP3   OH220336   1.430   4.764   4.731 -0.3158  0.0220 -0.0414
 6798TIP3    H120337   1.501   4.711   4.767 -0.8680 -0.7552 -0.0772
 6798TIP3    H220338   1.465   4.796   4.648 -0.2697 -1.0020 -0.4396
 6799TIP3   OH220339   2.182   0.691   3.371  0.2434 -0.1377 -0.2907
 6799TIP3    H120340   2.101   0.653   3.404 -0.8275  1.5195 -0.9423
 6799TIP3    H220341   2.198   0.645   3.289  0.7372 -1.4036  0.4669
 6800TIP3   OH220342   4.433   5.573   2.942 -0.2446  0.0228  0.6600
 6800TIP3    H120343   4.449   5.665   2.963 -0.8263  0.5654 -1.1199
 6800TIP3    H220344   4.350   5.552   2.986  0.7536 -0.2109  2.5333
 6801TIP3   OH220345   1.768   4.904   2.436  0.0979 -0.0547  0.0586
 6801TIP3    H120346   1.818   4.868   2.509 -0.2054  0.8068  0.7133
 6801TIP3    H220347   1.824   4.891   2.359 -0.3238 -2.6413  0.0806
 6802TIP3   OH220348   5.388   4.516   5.407  0.7366  0.2794 -0.0616
 6802TIP3    H120349   5.443   4.564   5.344  1.0564 -1.4488 -1.1921
 6802TIP3    H220350   5.428   4.533   5.492  1.5627  1.0136 -0.5777
 6803TIP3   OH220351   3.881   7.154   2.339 -0.2034  0.0389  0.0977
 6803TIP3    H120352   3.970   7.128   2.313 -0.0373  0.2225  0.4787
 6803TIP3    H220353   3.825   7.082   2.308  0.5232 -2.1083  3.3146
 6804TIP3   OH220354   2.355   2.711   1.947 -0.6139 -0.0282 -0.5335
 6804TIP3    H120355   2.403   2.638   1.909  0.0400  0.5168 -0.7782
 6804TIP3    H220356   2.280   2.723   1.889 -0.3647 -0.0842 -0.8730
 6805TIP3   OH220357   6.267   6.192   4.513  0.0164  0.3120 -0.6439
 6805TIP3    H120358   6.362   6.190   4.499  0.0496 -2.1034 -0.4010
 6805TIP3    H220359   6.232   6.128   4.452 -1.3547  0.3370  0.0769
 6806TIP3   OH220360   1.619   6.489   1.999  0.1418  0.1104 -0.0075
 6806TIP3    H120361   1.592   6.567   2.047  1.3663  0.5300  0.0466
 6806TIP3    H220362   1.620   6.420   2.065  3.9186  1.1115  1.2681
 6807TIP3   OH220363   4.758   6.394   3.515 -0.0974  0.1947 -0.3967
 6807TIP3    H120364   4.664   6.392   3.531 -0.0734  0.3235 -0.2271
 6807TIP3    H220365   4.774   6.323   3.453 -0.2905  0.1065 -0.3464
 6808TIP3   OH220366   5.409   0.692   5.086 -0.2028  0.2946  0.2748
 6808TIP3    H120367   5.441   0.709   5.175 -0.7877  0.9288  0.3718
 6808TIP3    H220368   5.402   0.779   5.047 -0.7408  0.0746 -0.1161
 6809TIP3   OH220369   7.694   6.218   4.164  0.2250 -0.1024  0.7330
 6809TIP3    H120370   7.726   6.305   4.140 -1.0489  0.2912  0.3489
 6809TIP3    H220371   7.723   6.205   4.254 -1.7581  1.8867  1.7718
 6810TIP3   OH220372   7.329   2.624   2.964 -0.0592 -0.1282  0.5670
 6810TIP3    H120373   7.348   2.574   2.885  2.8491  1.1093  0.3924
 6810TIP3    H220374   7.270   2.694   2.935  1.0881  0.3930 -0.5725
 6811TIP3   OH220375   3.219   5.794   1.347  0.4552  0.3190 -0.3613
 6811TIP3    H120376   3.207   5.735   1.273  0.0894 -0.6378  0.4428
 6811TIP3    H220377   3.166   5.871   1.324 -1.5187 -0.8925 -0.1186
 6812TIP3   OH220378   5.078   1.736   5.303  0.0578 -0.4630 -0.0632
 6812TIP3    H120379   5.096   1.823   5.338 -1.5412 -0.6151  1.2798
 6812TIP3    H220380   5.062   1.751   5.210  0.4475  0.5808  0.0224
 6813TIP3   OH220381   6.649   3.193   0.842  0.3079  0.4021 -0.7509
 6813TIP3    H120382   6.731   3.158   0.805  1.2722  3.1400 -1.4815
 6813TIP3    H220383   6.620   3.257   0.777 -1.3504  0.9095  0.4406
 6814TIP3   OH220384   5.484   5.740   6.326  0.0356 -0.9207  0.0126
 6814TIP3    H120385   5.476   5.650   6.357 -1.0940 -0.7745  0.1691
 6814TIP3    H220386   5.472   5.733   6.231  0.9042 -1.0421 -0.0980
 6815TIP3   OH220387   6.959   3.223   2.997 -0.2595  0.0458  0.7679
 6815TIP3    H120388   7.009   3.167   2.938  0.0096  0.7984  0.2701
 6815TIP3    H220389   6.991   3.312   2.979 -1.2436  0.4570  0.9697
 6816TIP3   OH220390   6.984   1.205   1.795  0.3550  0.2952  0.0611
 6816TIP3    H120391   7.010   1.250   1.715 -3.0023  0.3233 -1.1797
 6816TIP3    H220392   6.921   1.265   1.837 -0.3514 -1.0629  1.0336
 6817TIP3   OH220393   6.639   0.816   1.666 -0.2256  0.4937 -0.3551
 6817TIP3    H120394   6.727   0.798   1.634  0.4109  1.4992  0.7628
 6817TIP3    H220395   6.651   0.881   1.735 -1.8932  1.0283 -0.5191
 6818TIP3   OH220396   6.190   1.925   2.724  0.1850  0.2536 -0.5960
 6818TIP3    H120397   6.244   1.875   2.664  0.9617 -0.6939  0.8262
 6818TIP3    H220398   6.134   1.859   2.766 -2.0957  1.1905 -1.9829
 6819TIP3   OH220399   3.626   7.455   5.459 -0.1821  0.4215  0.3057
 6819TIP3    H120400   3.703   7.510   5.444  0.2111 -0.0209  0.6904
 6819TIP3    H220401   3.596   7.431   5.371  1.5205 -1.3502  0.1491
 6820TIP3   OH220402   3.961   3.417   5.247  0.0042 -0.3520 -0.1965
 6820TIP3    H120403   3.917   3.410   5.331 -1.1668 -0.9570 -0.8421
 6820TIP3    H220404   3.933   3.340   5.198 -0.8864  0.9460 -1.8431
 6821TIP3   OH220405   7.868   6.064   6.250 -0.2405 -0.5327  0.2525
 6821TIP3    H120406   7.791   6.056   6.195  0.5722  1.0062 -1.1893
 6821TIP3    H220407   7.911   5.979   6.243 -0.7971 -0.7602 -0.4847
 6822TIP3   OH220408   3.546   7.263   1.658  0.6422 -0.1253  0.1503
 6822TIP3    H120409   3.571   7.242   1.568  1.3709 -1.6862  0.6848
 6822TIP3    H220410   3.463   7.309   1.649  0.1531 -1.1916 -1.2937
 6823TIP3   OH220411   8.102   2.552   4.913  0.0343  0.1286  0.3197
 6823TIP3    H120412   8.128   2.642   4.932 -0.1521  0.1820  0.3160
 6823TIP3    H220413   8.121   2.504   4.994 -2.6618  0.7380  1.4180
 6824TIP3   OH220414   5.113   5.002   0.472 -0.0441 -0.0988  1.0960
 6824TIP3    H120415   5.101   5.034   0.562 -1.1361  0.1780  0.8608
 6824TIP3    H220416   5.125   4.907   0.482 -0.4706 -0.1131  1.5096
 6825TIP3   OH220417   5.559   1.171   4.007  0.3705  0.2068 -0.2368
 6825TIP3    H120418   5.529   1.260   3.991  0.4712 -0.0303 -1.8923
 6825TIP3    H220419   5.607   1.147   3.928  0.2296 -1.3649  0.1176
 6826TIP3   OH220420   3.660   4.110   2.057 -0.3081 -0.2529 -0.0008
 6826TIP3    H120421   3.654   4.096   1.962 -1.7591 -2.2254  0.3161
 6826TIP3    H220422   3.729   4.176   2.067  0.2184 -0.3389 -2.3872
 6827TIP3   OH220423   2.151   0.430   5.822 -0.1852 -0.2242  0.1933
 6827TIP3    H120424   2.196   0.482   5.755 -3.1043  2.5897  0.1782
 6827TIP3    H220425   2.180   0.469   5.905 -0.6295 -0.0927  0.2895
 6828TIP3   OH220426   7.312   7.018   6.391  0.0852 -0.0111  0.6507
 6828TIP3    H120427   7.362   7.088   6.434 -0.7107 -0.6097  2.6544
 6828TIP3    H220428   7.377   6.951   6.370  0.6119  0.6401  0.1733
 6829TIP3   OH220429   4.795   2.195   2.979  0.5441  0.1516 -0.3006
 6829TIP3    H120430   4.876   2.145   2.991  0.2262 -0.1601  0.6612
 6829TIP3    H220431   4.825   2.282   2.954  1.3474  0.7749  2.4253
 6830TIP3   OH220432   2.742   4.406   6.608 -0.3130 -0.3895  0.0714
 6830TIP3    H120433   2.786   4.401   6.693 -2.1290 -3.4135  1.0328
 6830TIP3    H220434   2.801   4.361   6.548 -1.1289 -2.9130  0.9893
 6831TIP3   OH220435   7.156   6.637   4.626 -0.0868 -0.3355  0.1975
 6831TIP3    H120436   7.176   6.594   4.709  1.3356 -1.2086 -0.5740
 6831TIP3    H220437   7.078   6.592   4.594  0.2207 -0.9870  0.3560
 6832TIP3   OH220438   3.670   0.035   2.137  0.2244 -0.2084  0.1415
 6832TIP3    H120439   3.618   0.112   2.113 -0.3304 -1.0154 -1.3762
 6832TIP3    H220440   3.721   0.064   2.212 -1.1459  1.1522  0.6180
 6833TIP3   OH220441   3.618   7.385   3.953  0.3805  0.2509 -0.6801
 6833TIP3    H120442   3.631   7.332   3.874 -0.8711  0.2249 -0.8951
 6833TIP3    H220443   3.523   7.391   3.962  0.4499 -0.8413  1.5599
 6834TIP3   OH220444   4.259   1.576   6.736 -0.3806 -0.5902 -0.2335
 6834TIP3    H120445   4.289   1.537   6.654  0.4599 -0.2961 -0.0776
 6834TIP3    H220446   4.339   1.590   6.787 -0.6330  1.4285 -0.3181
 6835TIP3   OH220447   8.163   4.903   0.627 -0.3243  0.0304  0.3179
 6835TIP3    H120448   8.228   4.915   0.558  1.6367  0.7082  2.1759
 6835TIP3    H220449   8.086   4.951   0.595  0.2499 -0.2660 -1.6748
 6836TIP3   OH220450   5.554   1.658   1.476  0.2561  0.1889  0.1958
 6836TIP3    H120451   5.487   1.725   1.461  0.7479  0.8853  1.0669
 6836TIP3    H220452   5.635   1.706   1.491  0.5885 -0.5798  1.0018
 6837TIP3   OH220453   3.902   7.564   2.475  0.1480 -0.1007  0.0177
 6837TIP3    H120454   3.939   7.638   2.427  1.1606  1.7121  3.3217
 6837TIP3    H220455   3.977   7.518   2.510 -0.5689 -1.1407  0.2347
 6838TIP3   OH220456   6.246   4.824   6.319  0.5198  0.6101  0.7063
 6838TIP3    H120457   6.198   4.897   6.358 -1.8461 -0.7880  0.5453
 6838TIP3    H220458   6.205   4.810   6.234  1.4692 -0.4097  0.3917
 6839TIP3   OH220459   5.431   6.045   0.677 -0.3429  0.3314 -0.0770
 6839TIP3    H120460   5.452   5.954   0.656  0.5764 -0.1976  2.7064
 6839TIP3    H220461   5.489   6.096   0.620  2.1070 -0.9615  1.1127
 6840TIP3   OH220462   0.648   7.052   2.116 -0.1269  0.3895 -0.5232
 6840TIP3    H120463   0.579   7.115   2.096  1.1724  2.3268  0.6824
 6840TIP3    H220464   0.722   7.081   2.061  1.2097  1.4111  1.6665
 6841TIP3   OH220465   0.297   4.588   3.596 -0.6774  0.0989 -0.1462
 6841TIP3    H120466   0.388   4.562   3.607 -0.5520  0.3302 -0.6180
 6841TIP3    H220467   0.256   4.514   3.550 -0.3381  0.6764 -1.4204
 6842TIP3   OH220468   5.763   1.535   1.251 -0.4145  0.0040  0.2558
 6842TIP3    H120469   5.753   1.618   1.298 -0.9812  0.1560 -0.1192
 6842TIP3    H220470   5.767   1.561   1.159 -0.4963 -0.3772  0.1439
 6843TIP3   OH220471   2.901   2.483   2.099 -0.4057  0.3965 -0.1077
 6843TIP3    H120472   2.994   2.503   2.113 -0.4196 -0.6750  1.8723
 6843TIP3    H220473   2.855   2.544   2.157 -0.7812 -0.6131  0.6932
 6844TIP3   OH220474   1.002   6.605   1.439  0.0524 -0.0896 -0.9682
 6844TIP3    H120475   0.961   6.539   1.495 -0.1707  0.2493 -0.7294
 6844TIP3    H220476   1.023   6.558   1.358  0.9008 -0.7262 -0.3995
 6845TIP3   OH220477   0.180   1.319   0.347  0.0930  0.1659 -0.0795
 6845TIP3    H120478   0.160   1.412   0.357 -2.5830 -0.2619 -0.7175
 6845TIP3    H220479   0.217   1.293   0.432 -0.1513  1.5709  0.4800
 6846TIP3   OH220480   6.978   6.762   4.365 -0.5358 -0.1163 -0.0787
 6846TIP3    H120481   7.057   6.708   4.362 -0.9009 -0.8588  1.8800
 6846TIP3    H220482   6.910   6.706   4.328 -1.0007 -1.2868  2.3296
 6847TIP3   OH220483   4.215   5.159   2.710  0.2253 -0.6831 -0.8761
 6847TIP3    H120484   4.140   5.111   2.744 -0.1791 -0.4859 -1.4704
 6847TIP3    H220485   4.177   5.234   2.665  0.8635  0.2774  0.1620
 6848TIP3   OH220486   6.834   6.185   5.974  0.0121  0.2447  0.0574
 6848TIP3    H120487   6.744   6.153   5.969 -0.0546  0.4617 -0.1614
 6848TIP3    H220488   6.838   6.256   5.910  0.8507 -0.9672 -1.2693
 6849TIP3   OH220489   1.952   3.309   5.967  0.6867  0.4074 -1.0090
 6849TIP3    H120490   2.036   3.334   6.006  0.2177  0.0174  0.3027
 6849TIP3    H220491   1.974   3.285   5.877  2.2634 -1.1311 -0.2775
 6850TIP3   OH220492   3.470   1.339   4.990  0.4165 -0.3814  1.2119
 6850TIP3    H120493   3.435   1.346   5.079 -1.3348  2.0407  0.4361
 6850TIP3    H220494   3.544   1.400   4.989 -1.8133  2.5307  0.1464
 6851TIP3   OH220495   0.773   3.441   6.463 -0.3309  0.5221  0.5045
 6851TIP3    H120496   0.824   3.430   6.383  0.3377 -1.0575  1.1081
 6851TIP3    H220497   0.839   3.447   6.533 -0.9237 -0.5708  1.1893
 6852TIP3   OH220498   3.067   6.448   4.032 -0.7121 -0.0509 -0.1142
 6852TIP3    H120499   3.008   6.414   3.964  0.7546 -0.6666 -1.1273
 6852TIP3    H220500   3.027   6.532   4.057 -1.6859 -0.1469 -1.2121
 6853TIP3   OH220501   2.774   3.355   4.703  0.4907  0.2347 -0.2035
 6853TIP3    H120502   2.780   3.311   4.787  2.8383  0.7411 -0.0218
 6853TIP3    H220503   2.818   3.439   4.717 -0.6640  1.0872 -1.4745
 6854TIP3   OH220504   0.725   6.554   3.692  0.2393 -0.5940 -0.0933
 6854TIP3    H120505   0.707   6.602   3.612  0.1518 -1.1327 -0.4027
 6854TIP3    H220506   0.782   6.482   3.665 -1.8604 -2.3484 -0.1898
 6855TIP3   OH220507   2.419   7.524   3.362 -0.2212  0.1820 -0.1628
 6855TIP3    H120508   2.323   7.523   3.359 -0.2063  0.9443 -1.0744
 6855TIP3    H220509   2.439   7.575   3.441 -0.5548 -0.3396  0.2709
 6856TIP3   OH220510   7.100   4.154   1.966  0.1677  0.4742 -0.3165
 6856TIP3    H120511   7.125   4.229   2.020 -1.1409  0.1616  0.7951
 6856TIP3    H220512   7.183   4.114   1.941  0.8789  2.2144 -0.8438
 6857TIP3   OH220513   6.891   4.672   2.650  0.6185 -0.4154  0.2799
 6857TIP3    H120514   6.877   4.581   2.623 -1.8884 -1.0182  3.0247
 6857TIP3    H220515   6.959   4.668   2.717  1.0901 -0.1159 -0.1707
 6858TIP3   OH220516   2.985   1.651   3.281  0.1976  0.1078  0.2629
 6858TIP3    H120517   2.950   1.563   3.291  0.4913 -0.0003  0.3369
 6858TIP3    H220518   2.907   1.707   3.280 -0.1468 -0.3185 -1.7819
 6859TIP3   OH220519   2.016   3.635   5.261  0.5478 -0.3235  0.2783
 6859TIP3    H120520   2.086   3.571   5.271 -0.0166 -1.0801 -0.4923
 6859TIP3    H220521   2.051   3.701   5.201  0.3497 -1.1117 -0.7395
 6860TIP3   OH220522   7.627   2.637   3.741 -0.3102  0.3093 -0.1787
 6860TIP3    H120523   7.673   2.695   3.802 -0.5931 -0.9437  1.2777
 6860TIP3    H220524   7.683   2.636   3.662  1.4768 -0.0850  1.0314
 6861TIP3   OH220525   1.316   6.821   5.719 -0.0043 -0.6686  0.0495
 6861TIP3    H120526   1.403   6.781   5.717  0.1144 -0.3834 -1.8273
 6861TIP3    H220527   1.323   6.897   5.662 -1.4605 -0.5850 -0.0533
 6862TIP3   OH220528   0.235   1.967   2.070  0.3236  0.2206  0.1167
 6862TIP3    H120529   0.217   1.962   2.164  1.2331  0.0913  0.2951
 6862TIP3    H220530   0.302   2.035   2.062  0.4964 -0.0029 -0.3914
 6863TIP3   OH220531   5.747   0.130   5.748 -0.1664 -0.1663  0.2326
 6863TIP3    H120532   5.836   0.115   5.715 -0.2620 -1.9192  0.6784
 6863TIP3    H220533   5.757   0.200   5.813  0.5825  0.8780 -0.9503
 6864TIP3   OH220534   3.961   6.546   1.698  0.2123  0.4997  0.2828
 6864TIP3    H120535   4.029   6.613   1.708  0.8473 -0.4496  3.9775
 6864TIP3    H220536   3.887   6.579   1.748 -0.8602  0.0325 -0.9362
 6865TIP3   OH220537   8.156   7.288   2.922 -0.6860  0.5330 -0.0564
 6865TIP3    H120538   8.109   7.205   2.919  1.7962 -1.0710  1.3974
 6865TIP3    H220539   8.132   7.327   3.006  2.0579 -1.4200  1.8198
 6866TIP3   OH220540   7.787   6.872   3.345  0.2196 -0.1417 -0.0010
 6866TIP3    H120541   7.724   6.855   3.416  0.2878 -0.8465 -0.1020
 6866TIP3    H220542   7.854   6.927   3.385 -0.5610  0.7806  0.0554
 6867TIP3   OH220543   1.341   3.434   4.832 -0.1664 -0.7335  0.5775
 6867TIP3    H120544   1.323   3.404   4.743  0.1760  0.6361  0.0210
 6867TIP3    H220545   1.424   3.480   4.825 -0.7853  0.5515  1.3137
 6868TIP3   OH220546   8.199   0.138   3.871  0.2907  0.4173 -0.0847
 6868TIP3    H120547   8.272   0.181   3.915 -0.6630  0.6975  1.2996
 6868TIP3    H220548   8.127   0.202   3.877 -0.6619 -0.6713  0.4810
 6869TIP3   OH220549   7.823   0.796   4.377 -0.8585  0.4310  0.4928
 6869TIP3    H120550   7.743   0.774   4.329  0.8980 -0.7315 -2.1757
 6869TIP3    H220551   7.843   0.885   4.348 -1.5677  1.0525  1.8221
 6870TIP3   OH220552   2.669   5.325   1.213 -0.6681 -0.2915 -0.5750
 6870TIP3    H120553   2.713   5.374   1.282  0.9962 -1.1703 -0.9582
 6870TIP3    H220554   2.579   5.357   1.214 -0.3697  0.5828  1.1710
 6871TIP3   OH220555   3.620   0.750   4.127  0.2914 -0.0689 -0.0468
 6871TIP3    H120556   3.560   0.695   4.177  0.1835 -0.5047 -0.6466
 6871TIP3    H220557   3.563   0.799   4.067  0.5878 -1.0850 -1.1880
 6872TIP3   OH220558   1.635   5.798   3.758  0.2936  0.0467  0.2319
 6872TIP3    H120559   1.634   5.822   3.850 -0.3563 -0.0127  0.2442
 6872TIP3    H220560   1.652   5.704   3.757 -0.9900 -0.1981  0.3543
 6873TIP3   OH220561   2.135   4.020   1.854 -0.0259  0.0975 -0.5292
 6873TIP3    H120562   2.185   4.058   1.782 -0.7964 -0.9534 -1.6633
 6873TIP3    H220563   2.105   3.936   1.820 -1.0104 -0.1062  0.7781
 6874TIP3   OH220564   1.414   3.533   4.208  0.0766  0.3263 -0.0354
 6874TIP3    H120565   1.487   3.574   4.255  0.3908 -0.0433 -0.1936
 6874TIP3    H220566   1.336   3.563   4.254  0.3679  0.1549  0.5893
 6875TIP3   OH220567   2.312   5.008   5.505 -0.2993 -0.1034  0.0090
 6875TIP3    H120568   2.350   4.975   5.586 -0.0351  0.4338  0.1090
 6875TIP3    H220569   2.235   5.057   5.533 -0.6753 -0.6011 -0.1366
 6876TIP3   OH220570   5.374   6.531   0.164 -0.0513  0.0578 -0.0510
 6876TIP3    H120571   5.443   6.529   0.098 -1.4848 -0.1782 -1.6230
 6876TIP3    H220572   5.421   6.533   0.248  1.8592 -1.6865 -0.9880
 6877TIP3   OH220573   3.545   5.175   2.568  0.3533  0.4858  0.3336
 6877TIP3    H120574   3.544   5.182   2.663  1.2189 -0.7775  0.4523
 6877TIP3    H220575   3.494   5.096   2.549  0.7039  0.3811 -0.2095
 6878TIP3   OH220576   1.912   2.216   2.267  0.0457 -0.4824  0.8361
 6878TIP3    H120577   1.990   2.267   2.290 -1.3253  2.1722 -0.1088
 6878TIP3    H220578   1.844   2.248   2.326 -1.1969 -0.2197 -0.6954
 6879TIP3   OH220579   1.217   0.436   6.006 -0.5271  0.0098  0.3615
 6879TIP3    H120580   1.297   0.382   6.007  0.6473  1.7018  0.8611
 6879TIP3    H220581   1.245   0.521   6.039 -1.5779  1.9384 -3.1794
 6880TIP3   OH220582   0.904   3.145   1.200 -0.4465  0.4387 -0.0256
 6880TIP3    H120583   0.885   3.075   1.137 -0.4046  0.7143 -0.3447
 6880TIP3    H220584   0.973   3.108   1.256 -0.2977  0.2885 -0.3056
 6881TIP3   OH220585   6.396   3.915   0.552  0.0479  0.1803 -0.0838
 6881TIP3    H120586   6.362   3.835   0.592 -0.3354  0.2953 -0.1765
 6881TIP3    H220587   6.435   3.963   0.625 -0.9884  0.5670  0.2299
 6882TIP3   OH220588   2.556   6.782   4.589 -0.2789 -0.2551  0.0128
 6882TIP3    H120589   2.479   6.824   4.551 -0.5783 -0.8514 -0.0478
 6882TIP3    H220590   2.527   6.694   4.612  1.0768 -1.5022 -2.5924
 6883TIP3   OH220591   6.601   2.509   0.692 -0.0938 -0.4261  0.3790
 6883TIP3    H120592   6.524   2.467   0.732 -1.6969  0.0882 -2.0112
 6883TIP3    H220593   6.615   2.588   0.744 -1.7562 -0.0650  0.3074
 6884TIP3   OH220594   4.371   0.714   2.284  0.6951  0.1726 -0.0810
 6884TIP3    H120595   4.454   0.671   2.301  0.7617  1.3125  3.3700
 6884TIP3    H220596   4.305   0.648   2.302  0.7598 -0.4495 -1.8894
 6885TIP3   OH220597   5.125   0.206   1.986 -0.2146  0.7602 -0.7161
 6885TIP3    H120598   5.169   0.291   1.982  0.2561  0.4873 -1.4342
 6885TIP3    H220599   5.069   0.204   1.909 -0.6709  0.6501 -0.3890
 6886TIP3   OH220600   7.496   5.378   0.192 -0.2516  0.0638  0.6543
 6886TIP3    H120601   7.479   5.415   0.106  0.5847 -1.6360 -0.2889
 6886TIP3    H220602   7.414   5.334   0.216  0.1833 -1.2938 -0.2693
 6887TIP3   OH220603   5.676   0.546   3.848  0.1003  0.7368 -0.2333
 6887TIP3    H120604   5.651   0.491   3.774  1.4554  0.2961 -0.3908
 6887TIP3    H220605   5.595   0.558   3.898 -0.2153 -1.4540 -0.1504
 6888TIP3   OH220606   4.495   6.786   5.436  0.1646  0.2845  0.6499
 6888TIP3    H120607   4.497   6.691   5.447  0.8423  0.4499  2.2055
 6888TIP3    H220608   4.463   6.819   5.520  1.2121  1.4982  0.5952
 6889TIP3   OH220609   2.795   5.778   0.226  0.0748 -0.1913  0.1643
 6889TIP3    H120610   2.865   5.721   0.193 -1.4141 -0.8438 -2.0513
 6889TIP3    H220611   2.792   5.851   0.164  0.6222  1.3751  1.8546
 6890TIP3   OH220612   5.498   6.603   0.402 -0.1248 -0.5917  0.0909
 6890TIP3    H120613   5.528   6.690   0.428  0.3322 -0.6711 -0.1586
 6890TIP3    H220614   5.573   6.546   0.419  0.8137 -0.4100 -2.8340
 6891TIP3   OH220615   6.700   2.929   1.053  0.0571 -0.6990 -0.2945
 6891TIP3    H120616   6.660   2.987   0.989 -0.4226  1.9638  2.2344
 6891TIP3    H220617   6.792   2.956   1.057 -0.1300 -0.1353  0.7705
 6892TIP3   OH220618   3.004   4.226   3.993  0.8081  0.1395 -0.3605
 6892TIP3    H120619   2.929   4.232   3.935 -1.1966 -0.8157  1.9349
 6892TIP3    H220620   3.046   4.312   3.987 -2.1460  1.7612  0.3047
 6893TIP3   OH220621   4.914   4.848   1.206 -0.0688  0.5509  0.1539
 6893TIP3    H120622   4.888   4.894   1.126 -0.2809 -0.4043 -0.3288
 6893TIP3    H220623   4.872   4.898   1.277  0.4618  1.6537 -0.2725
 6894TIP3   OH220624   7.052   3.750   1.643 -0.3538 -0.0050  0.0138
 6894TIP3    H120625   7.001   3.829   1.627  0.3911  0.3316 -0.7829
 6894TIP3    H220626   6.992   3.678   1.622  0.0452  0.3961 -2.8636
 6895TIP3   OH220627   7.964   4.065   3.059  0.3283 -0.3297  0.0003
 6895TIP3    H120628   7.990   4.003   3.126  1.7937  0.5172  0.2562
 6895TIP3    H220629   7.927   4.011   2.989 -2.5696 -1.1480  1.9753
 6896TIP3   OH220630   6.844   7.082   3.872  0.0579  0.5451 -0.2019
 6896TIP3    H120631   6.833   7.111   3.781 -2.3656  0.6025  0.0569
 6896TIP3    H220632   6.866   6.989   3.864 -0.4294  0.4737 -0.8721
 6897TIP3   OH220633   1.380   1.777   5.758 -0.3760 -0.1099 -0.3900
 6897TIP3    H120634   1.360   1.738   5.843 -0.0501 -0.3484 -0.4192
 6897TIP3    H220635   1.452   1.838   5.777 -0.4323 -0.0220 -0.4604
 6898TIP3   OH220636   7.979   1.582   2.528 -0.3998 -0.5640  0.2391
 6898TIP3    H120637   8.025   1.503   2.558 -0.5046 -0.5135  0.5427
 6898TIP3    H220638   8.031   1.655   2.563  0.6776 -0.4557 -1.4967
 6899TIP3   OH220639   5.380   2.500   4.047 -0.1849 -0.4686  0.6177
 6899TIP3    H120640   5.447   2.562   4.075 -0.0383 -0.7574  0.9203
 6899TIP3    H220641   5.427   2.417   4.039  0.4717  0.0555 -3.2124
 6900TIP3   OH220642   6.964   6.383   5.251 -0.0878  0.1950  0.5539
 6900TIP3    H120643   6.869   6.392   5.259 -0.6822 -2.8925 -1.4516
 6900TIP3    H220644   6.992   6.345   5.335 -0.5963  1.1414  1.1621
 6901TIP3   OH220645   2.155   3.061   1.515  0.2427 -0.5690  0.1134
 6901TIP3    H120646   2.147   2.990   1.451 -0.9874  0.4050 -0.8797
 6901TIP3    H220647   2.116   3.137   1.471  1.4933  0.7254  1.1396
 6902TIP3   OH220648   4.239   4.711   1.279  0.2599  0.0464  0.9342
 6902TIP3    H120649   4.208   4.799   1.302 -2.9216 -0.8678  0.7082
 6902TIP3    H220650   4.238   4.710   1.183  0.1437 -0.2547  0.9370
 6903TIP3   OH220651   7.505   5.566   5.859 -0.3506  0.2289  0.0653
 6903TIP3    H120652   7.457   5.562   5.942 -0.7940  1.7499 -0.0798
 6903TIP3    H220653   7.479   5.487   5.813 -3.5383  1.3821 -0.3876
 6904TIP3   OH220654   6.460   0.694   1.454  0.5077  0.0515  0.0378
 6904TIP3    H120655   6.426   0.761   1.395 -0.5049 -1.0640 -0.6805
 6904TIP3    H220656   6.523   0.740   1.509  0.3404  1.4390 -0.8980
 6905TIP3   OH220657   6.206   1.214   5.366  0.5555 -0.0991  0.0416
 6905TIP3    H120658   6.292   1.196   5.330  0.8722  0.5810  0.4436
 6905TIP3    H220659   6.179   1.297   5.326  0.7141  0.4255  0.9951
 6906TIP3   OH220660   6.053   2.817   1.226 -0.0479 -0.3457 -0.3145
 6906TIP3    H120661   6.109   2.868   1.284  1.0976 -2.8391  0.8953
 6906TIP3    H220662   6.094   2.826   1.140 -0.2122  1.1925 -0.2591
 6907TIP3   OH220663   2.563   4.431   2.998  0.4920  0.2926  1.1500
 6907TIP3    H120664   2.609   4.495   3.052  1.0461  0.8218  0.0874
 6907TIP3    H220665   2.634   4.384   2.953  0.1051 -1.1515  1.9915
 6908TIP3   OH220666   4.443   1.881   5.787 -0.0733  1.0021  0.0563
 6908TIP3    H120667   4.353   1.898   5.759  0.0781 -0.6140 -1.6866
 6908TIP3    H220668   4.497   1.915   5.715  0.4532 -1.4218 -0.8130
 6909TIP3   OH220669   3.861   2.265   2.922 -0.2706  0.3562 -0.2262
 6909TIP3    H120670   3.876   2.206   2.849 -0.6117  0.7083 -0.5887
 6909TIP3    H220671   3.860   2.209   2.999  2.1883  0.2023 -0.2273
 6910TIP3   OH220672   5.180   6.849   3.826 -0.3592  0.2186 -0.2140
 6910TIP3    H120673   5.201   6.777   3.766  0.5808 -1.6683  2.2106
 6910TIP3    H220674   5.087   6.839   3.844 -0.2754 -0.3023 -0.0423
 6911TIP3   OH220675   0.137   3.957   5.126  0.3990 -0.3148  0.1589
 6911TIP3    H120676   0.065   3.969   5.064  1.7996 -2.6425 -2.1004
 6911TIP3    H220677   0.131   4.033   5.184 -3.4167 -0.0640 -0.3081
 6912TIP3   OH220678   6.808   2.433   4.973 -0.0170 -0.2691 -0.4473
 6912TIP3    H120679   6.843   2.517   5.003 -1.4397  0.1403  0.1954
 6912TIP3    H220680   6.840   2.423   4.884  2.6467 -0.5035  0.4452
 6913TIP3   OH220681   5.747   4.696   5.306 -0.5254  0.1446  0.4186
 6913TIP3    H120682   5.835   4.709   5.342  0.6966  0.1078 -2.3539
 6913TIP3    H220683   5.734   4.769   5.247 -1.8635 -0.5354 -0.1733
 6914TIP3   OH220684   4.383   7.752   3.183  0.0942 -0.2448  1.3254
 6914TIP3    H120685   4.370   7.799   3.101  1.1948 -1.4475  0.4168
 6914TIP3    H220686   4.468   7.784   3.215  0.8137 -1.5165  0.7394
 6915TIP3   OH220687   4.616   4.248   2.627  0.5241  0.1994  0.0421
 6915TIP3    H120688   4.695   4.288   2.589  0.5226  0.1876  0.0272
 6915TIP3    H220689   4.564   4.221   2.552  0.8740 -0.5216  0.0550
 6916TIP3   OH220690   0.029   2.821   3.911 -0.0860  0.0375  0.3923
 6916TIP3    H120691   0.107   2.855   3.955 -0.0931  1.8030 -0.8044
 6916TIP3    H220692  -0.021   2.778   3.979  1.7614 -0.8559  1.2638
 6917TIP3   OH220693   2.848   3.591   5.708 -0.1777  0.1833  0.1009
 6917TIP3    H120694   2.866   3.674   5.663 -1.2260  1.5625  2.0917
 6917TIP3    H220695   2.875   3.524   5.645  1.4384  2.0037 -1.2833
 6918TIP3   OH220696   6.897   1.878   5.416  0.7039 -0.0897  0.3096
 6918TIP3    H120697   6.832   1.909   5.353  0.4532  1.7187  1.3599
 6918TIP3    H220698   6.876   1.926   5.496  2.4805 -0.5047  1.0693
 6919TIP3   OH220699   4.727   1.792   1.218 -0.4520  0.3182  0.3518
 6919TIP3    H120700   4.688   1.877   1.240 -4.6143 -0.7397 -1.8409
 6919TIP3    H220701   4.658   1.729   1.237  1.5351 -2.3183 -0.5819
 6920TIP3   OH220702   0.041   1.205   5.305 -0.2217 -0.2048 -0.3197
 6920TIP3    H120703  -0.001   1.133   5.352 -0.3034 -0.2986 -0.5362
 6920TIP3    H220704   0.111   1.234   5.363 -0.4588 -0.1800 -0.0450
 6921TIP3   OH220705   7.860   0.400   0.256 -0.1987  0.1951  0.0769
 6921TIP3    H120706   7.798   0.327   0.259 -0.1171  0.1520  0.9653
 6921TIP3    H220707   7.946   0.360   0.269 -0.1757  0.4639  0.7871
 6922TIP3   OH220708   1.542   6.399   4.152  0.8566  0.6721 -0.1854
 6922TIP3    H120709   1.493   6.437   4.079  2.2424  1.6789 -0.6293
 6922TIP3    H220710   1.480   6.401   4.225 -0.8544 -1.1720 -1.4775
 6923TIP3   OH220711   1.729   2.309   0.796 -0.0934  0.7026 -0.7663
 6923TIP3    H120712   1.651   2.353   0.831  0.9363  2.5813 -0.6797
 6923TIP3    H220713   1.794   2.379   0.786  1.3111 -0.6467 -1.6736
 6924TIP3   OH220714   5.158   2.195   2.393  0.0060  0.2894 -0.1941
 6924TIP3    H120715   5.202   2.114   2.421  0.2435  0.8077  0.9786
 6924TIP3    H220716   5.096   2.166   2.326  0.2445 -0.8378  0.0492
 6925TIP3   OH220717   2.370   5.272   5.136 -0.2407  0.0941 -0.5593
 6925TIP3    H120718   2.384   5.246   5.045 -1.8450  1.7004 -1.3109
 6925TIP3    H220719   2.285   5.234   5.159 -1.0006  1.7258 -0.5692
 6926TIP3   OH220720   7.855   4.434   1.610 -0.5445 -0.1750 -0.5015
 6926TIP3    H120721   7.760   4.437   1.595 -0.6237  1.1222  0.1286
 6926TIP3    H220722   7.890   4.508   1.560  0.2119 -0.9500 -1.1444
 6927TIP3   OH220723   4.039   0.628   1.305 -0.3441  0.4389  0.1609
 6927TIP3    H120724   4.002   0.690   1.242  0.0004 -0.4501 -0.9483
 6927TIP3    H220725   4.050   0.679   1.385  2.1753  2.5416 -1.3636
 6928TIP3   OH220726   8.036   3.684   3.407 -0.3324  0.0725 -0.1506
 6928TIP3    H120727   7.961   3.724   3.451 -0.5133 -0.0932 -0.3042
 6928TIP3    H220728   8.089   3.647   3.478 -0.5297 -0.0352 -0.0582
 6929TIP3   OH220729   7.912   4.250   2.454 -0.7061 -0.0775 -0.0973
 6929TIP3    H120730   7.881   4.226   2.541  0.1510 -1.2093 -0.0811
 6929TIP3    H220731   7.932   4.343   2.460  0.4898 -0.3926  1.2849
 6930TIP3   OH220732   5.689   4.722   0.148  0.6588  0.7504  0.0131
 6930TIP3    H120733   5.773   4.687   0.119  0.4584  2.2424 -2.7252
 6930TIP3    H220734   5.711   4.796   0.205  1.2413  1.2930 -0.8972
 6931TIP3   OH220735   5.255   1.576   1.401 -0.2748 -0.2199  0.0314
 6931TIP3    H120736   5.219   1.488   1.409 -1.0873  0.0566 -0.5050
 6931TIP3    H220737   5.327   1.567   1.339  0.2644 -0.6721  0.7021
 6932TIP3   OH220738   0.167   6.078   1.247 -0.0097 -0.3166  0.1705
 6932TIP3    H120739   0.107   6.096   1.174  0.0231  1.5071  0.5339
 6932TIP3    H220740   0.148   5.988   1.272  0.2028 -1.1064 -2.2750
 6933TIP3   OH220741   5.230   1.377   0.036 -0.4713  0.5137  0.2033
 6933TIP3    H120742   5.210   1.470   0.046  0.0700  0.6182  0.3286
 6933TIP3    H220743   5.196   1.337   0.116  0.9213  0.8720  0.9903
 6934TIP3   OH220744   4.409   3.144   1.816 -0.3246 -0.0416  0.4693
 6934TIP3    H120745   4.343   3.177   1.877 -2.9028 -1.0485 -1.5945
 6934TIP3    H220746   4.427   3.055   1.846 -0.3834  0.0167  0.6779
 6935TIP3   OH220747   8.012   7.227   4.918  0.0581 -0.1137 -0.4722
 6935TIP3    H120748   8.083   7.166   4.938  2.9900  3.1280 -0.0852
 6935TIP3    H220749   7.972   7.245   5.003 -1.8333 -2.4315 -0.7710
 6936TIP3   OH220750   0.997   3.725   0.401 -0.1215  0.0132 -0.5490
 6936TIP3    H120751   0.973   3.632   0.408  0.3510 -0.2045 -1.6987
 6936TIP3    H220752   1.080   3.732   0.449  0.2858 -0.3444 -1.1854
 6937TIP3   OH220753   7.201   3.260   1.345 -0.6096  0.1342 -0.2398
 6937TIP3    H120754   7.142   3.272   1.419 -2.0663  0.2677 -1.3812
 6937TIP3    H220755   7.147   3.277   1.268  1.1035  1.0195 -1.3197
 6938TIP3   OH220756   5.147   3.023   3.621  0.6025 -0.2140  0.1270
 6938TIP3    H120757   5.139   3.090   3.688  0.5175  0.2622 -0.3531
 6938TIP3    H220758   5.166   3.071   3.540  0.6884 -0.7743 -0.1959
 6939TIP3   OH220759   4.071   5.042   2.223  0.0167  0.0763  0.0237
 6939TIP3    H120760   4.054   5.030   2.316  0.2257 -1.2914 -0.1033
 6939TIP3    H220761   4.029   5.126   2.202 -0.4875  0.1445  1.2262
 6940TIP3   OH220762   0.482   7.589   2.037 -0.9356 -0.2532  0.1004
 6940TIP3    H120763   0.510   7.678   2.055 -0.0343 -0.4807 -0.1416
 6940TIP3    H220764   0.449   7.593   1.947  0.2713 -0.4238 -0.3593
 6941TIP3   OH220765   6.787   3.781   6.393  0.0105  0.1787  0.3820
 6941TIP3    H120766   6.858   3.841   6.371  0.5372 -1.1546 -1.8872
 6941TIP3    H220767   6.823   3.694   6.373 -2.9606 -0.4470 -3.4726
 6942TIP3   OH220768   1.448   2.011   0.978 -0.1804 -0.0001  0.5098
 6942TIP3    H120769   1.442   1.926   0.934 -1.2726  0.9467 -1.2848
 6942TIP3    H220770   1.357   2.036   0.994  0.1484  0.5232  1.7252
 6943TIP3   OH220771   4.105   7.526   4.973  0.3012 -0.2333  0.1182
 6943TIP3    H120772   4.013   7.543   4.991 -0.3815 -2.2155 -1.2469
 6943TIP3    H220773   4.136   7.476   5.049  0.6281  1.4047  1.1262
 6944TIP3   OH220774   0.805   6.270   4.416  0.0744 -0.0125 -0.4456
 6944TIP3    H120775   0.710   6.268   4.407  0.1462 -0.6405 -1.1804
 6944TIP3    H220776   0.837   6.215   4.344  0.9793 -0.0303 -0.0444
 6945TIP3   OH220777   4.345   2.825   2.464  0.0307 -0.4449 -0.6364
 6945TIP3    H120778   4.354   2.732   2.483 -1.0379 -0.5516 -0.5741
 6945TIP3    H220779   4.348   2.830   2.368 -2.5696 -0.9135 -0.8248
 6946TIP3   OH220780   1.261   3.279   3.490 -0.0835 -0.1667  0.0815
 6946TIP3    H120781   1.356   3.284   3.476 -0.0084  0.3050  0.7390
 6946TIP3    H220782   1.244   3.185   3.503  0.1048 -0.3982 -1.2759
 6947TIP3   OH220783   4.854   1.803   4.483  0.5190  0.4529 -0.0332
 6947TIP3    H120784   4.824   1.894   4.483 -0.6512  0.1619  2.5608
 6947TIP3    H220785   4.929   1.803   4.542  0.3266 -0.2959  0.2213
 6948TIP3   OH220786   6.128   5.839   4.684 -0.0727 -0.6705  0.0487
 6948TIP3    H120787   6.172   5.770   4.734  0.5932  0.7201  1.4444
 6948TIP3    H220788   6.077   5.887   4.749 -0.3087  0.3311 -0.8514
 6949TIP3   OH220789   6.790   5.618   4.093  0.3090  0.2616  0.3205
 6949TIP3    H120790   6.712   5.629   4.039  0.5887 -1.6742 -0.5578
 6949TIP3    H220791   6.786   5.690   4.156 -1.5157  0.9248 -0.4902
 6950TIP3   OH220792   0.469   2.734   2.484 -0.1409 -0.3343 -0.1646
 6950TIP3    H120793   0.500   2.796   2.419 -0.5969 -0.4431 -0.4871
 6950TIP3    H220794   0.548   2.706   2.530  0.4053 -1.4243 -1.6783
 6951TIP3   OH220795   1.904   5.487   1.265 -0.4400 -0.0930  0.4135
 6951TIP3    H120796   1.838   5.436   1.219  1.0629 -0.9071 -0.9518
 6951TIP3    H220797   1.957   5.422   1.312  0.1497  0.4046  0.4632
 6952TIP3   OH220798   2.851   0.888   1.785 -0.2129  0.2398  0.0554
 6952TIP3    H120799   2.807   0.814   1.826  0.5018  1.0718  2.4995
 6952TIP3    H220800   2.887   0.853   1.703 -1.0435 -1.7247  0.4864
 6953TIP3   OH220801   0.402   1.842   0.885  0.1305 -0.0482 -0.1037
 6953TIP3    H120802   0.467   1.853   0.954 -1.1632  0.3602  1.1074
 6953TIP3    H220803   0.318   1.854   0.929 -0.7489  0.2815 -1.7703
 6954TIP3   OH220804   0.435   2.470   6.698 -0.2156 -0.6873 -0.1509
 6954TIP3    H120805   0.374   2.542   6.686 -0.4677 -0.8067  0.3718
 6954TIP3    H220806   0.515   2.497   6.652 -0.3862 -0.1819 -0.1482
 6955TIP3   OH220807   3.922   4.226   3.607 -0.1543 -0.2971  0.0052
 6955TIP3    H120808   3.829   4.225   3.631 -0.0611 -0.8344  0.3587
 6955TIP3    H220809   3.962   4.289   3.668 -0.2419 -0.2506  0.0147
 6956TIP3   OH220810   1.321   7.006   3.017 -0.1078  0.3310 -0.2582
 6956TIP3    H120811   1.379   6.936   2.987 -0.1292  0.9560 -1.8410
 6956TIP3    H220812   1.258   6.961   3.075  0.4704 -0.7788 -0.4588
 6957TIP3   OH220813   3.791   3.884   3.646  1.0561  0.5431 -0.6968
 6957TIP3    H120814   3.757   3.972   3.634 -0.3302  0.0058 -0.8658
 6957TIP3    H220815   3.836   3.863   3.564 -1.1966  0.0031 -1.8745
 6958TIP3   OH220816   3.399   3.204   5.913  0.4430  0.1565  0.6304
 6958TIP3    H120817   3.373   3.291   5.883 -2.8634 -1.2218 -0.9590
 6958TIP3    H220818   3.343   3.186   5.989  1.4070 -0.4413  1.2262
 6959TIP3   OH220819   7.067   5.044   3.614  0.3687  0.1155 -0.0218
 6959TIP3    H120820   7.066   4.985   3.539  0.7534  0.3167 -0.1896
 6959TIP3    H220821   7.105   4.992   3.685  0.8579  0.2075 -0.2125
 6960TIP3   OH220822   7.930   0.754   4.818  0.3718 -0.6477  0.2932
 6960TIP3    H120823   7.890   0.837   4.843  1.2516 -1.0488  3.6017
 6960TIP3    H220824   8.024   0.772   4.820  0.5361 -1.4111 -0.2973
 6961TIP3   OH220825   4.769   5.547   4.269 -0.2080 -0.1854 -0.0143
 6961TIP3    H120826   4.781   5.595   4.351 -2.6099 -2.8261  2.0685
 6961TIP3    H220827   4.847   5.492   4.262 -0.7313 -1.1266  1.3955
 6962TIP3   OH220828   5.822   2.272   0.840  0.1143 -0.0204 -0.1760
 6962TIP3    H120829   5.900   2.253   0.892  1.0378  0.3084 -1.4089
 6962TIP3    H220830   5.749   2.243   0.895  0.9591  1.4068  1.8372
 6963TIP3   OH220831   6.777   2.221   0.331 -0.1350 -0.4349  0.1022
 6963TIP3    H120832   6.786   2.297   0.274 -2.2005 -0.6096 -0.5268
 6963TIP3    H220833   6.750   2.257   0.415  1.1770 -0.3270  0.5068
 6964TIP3   OH220834   6.067   4.769   0.740  0.0868  0.0615  0.3043
 6964TIP3    H120835   6.077   4.764   0.645  0.5062  0.6474  0.3157
 6964TIP3    H220836   6.016   4.691   0.763  1.3432 -0.9666 -0.2222
 6965TIP3   OH220837   7.220   5.090   0.678 -0.5596 -0.0462 -0.5585
 6965TIP3    H120838   7.275   5.147   0.625  2.0250 -0.7083  1.2228
 6965TIP3    H220839   7.161   5.149   0.724  0.6768  1.0307 -0.3056
 6966TIP3   OH220840   5.070   4.182   4.877 -0.1805 -0.3869 -0.2557
 6966TIP3    H120841   5.148   4.167   4.824  0.0855 -0.5307  0.1642
 6966TIP3    H220842   5.061   4.277   4.880  0.1834 -0.3539 -0.0259
 6967TIP3   OH220843   7.930   0.311   3.393 -0.2485 -0.2322  0.1666
 6967TIP3    H120844   7.945   0.406   3.397 -1.6241  0.0438 -0.3385
 6967TIP3    H220845   7.986   0.281   3.321  0.2714  0.1746  0.3947
 6968TIP3   OH220846   2.276   5.777   1.576 -0.1024  0.3900 -0.1622
 6968TIP3    H120847   2.251   5.831   1.651 -2.6488 -1.4373  0.4254
 6968TIP3    H220848   2.350   5.824   1.536 -0.3931  2.7952  1.8942
 6969TIP3   OH220849   3.786   5.596   4.511  0.2303 -0.4310 -0.7540
 6969TIP3    H120850   3.858   5.648   4.475  1.1800 -0.2094  1.3094
 6969TIP3    H220851   3.799   5.599   4.606 -1.9337 -1.2516 -0.3701
 6970TIP3   OH220852   3.247   5.237   6.388  0.3482  0.1296  0.4472
 6970TIP3    H120853   3.161   5.277   6.395  0.9558  1.6728 -0.3840
 6970TIP3    H220854   3.257   5.217   6.294 -0.6091 -3.6943  0.9881
 6971TIP3   OH220855   0.812   5.007   6.050 -0.1217 -0.2370 -0.2440
 6971TIP3    H120856   0.879   4.999   5.982 -0.9346 -1.4999 -0.9359
 6971TIP3    H220857   0.851   4.969   6.128  0.4867  0.3722 -0.2470
 6972TIP3   OH220858   4.154   4.018   6.476  0.4435  0.1923  0.1143
 6972TIP3    H120859   4.081   4.017   6.538  0.8774 -1.7386  0.6579
 6972TIP3    H220860   4.225   3.971   6.521  1.6493  1.0272 -0.8476
 6973TIP3   OH220861   5.109   2.810   4.201 -0.1725 -0.1000  0.0240
 6973TIP3    H120862   5.081   2.896   4.168 -1.0801 -0.3672  0.0530
 6973TIP3    H220863   5.100   2.751   4.127  1.9019  0.0850 -0.4265
 6974TIP3   OH220864   0.711   5.425   5.561 -0.6231 -0.4723  0.2510
 6974TIP3    H120865   0.754   5.340   5.560 -0.6709 -0.5058 -1.3022
 6974TIP3    H220866   0.752   5.472   5.634  0.5033 -1.2785  0.1568
 6975TIP3   OH220867   0.883   4.912   6.300 -0.2540 -0.1591  0.2754
 6975TIP3    H120868   0.934   4.991   6.282  0.0619 -0.4410 -0.0729
 6975TIP3    H220869   0.926   4.872   6.375 -0.4951  0.0635  0.5392
 6976TIP3   OH220870   1.762   5.853   3.302 -0.2591  0.2876  0.7185
 6976TIP3    H120871   1.781   5.943   3.276  0.1744  0.1824  0.6685
 6976TIP3    H220872   1.842   5.804   3.282 -0.7407 -0.2505  0.0842
 6977TIP3   OH220873   5.360   0.970   3.940  0.6062 -0.3557 -0.5420
 6977TIP3    H120874   5.327   0.920   4.015  0.0462 -0.7528 -1.0384
 6977TIP3    H220875   5.420   1.034   3.977 -0.2838 -0.0139  0.3302
 6978TIP3   OH220876   3.666   3.069   5.328  0.3987 -0.0773  0.0170
 6978TIP3    H120877   3.727   3.002   5.357  0.0699  0.0963  1.1766
 6978TIP3    H220878   3.598   3.021   5.280 -0.5901 -0.8199  2.0170
 6979TIP3   OH220879   0.397   0.503   1.164 -0.4080 -0.3283 -0.1123
 6979TIP3    H120880   0.359   0.591   1.167 -0.0810 -0.1365 -1.2368
 6979TIP3    H220881   0.393   0.472   1.254 -0.0772  1.0287  0.3823
 6980TIP3   OH220882   0.494   0.858   0.294  0.3823  0.7441  0.0627
 6980TIP3    H120883   0.466   0.859   0.202 -0.2903  0.3124  0.2577
 6980TIP3    H220884   0.588   0.841   0.290  0.1033 -0.7734 -0.4921
 6981TIP3   OH220885   3.623   6.363   3.315 -0.2689 -0.2010 -0.2495
 6981TIP3    H120886   3.701   6.413   3.338  0.0622 -1.1701  0.8519
 6981TIP3    H220887   3.591   6.329   3.399  0.4180 -3.1019 -1.0415
 6982TIP3   OH220888   6.343   6.214   6.143  0.0287 -0.2123  0.0263
 6982TIP3    H120889   6.409   6.156   6.179  0.0567  0.5387  1.2402
 6982TIP3    H220890   6.336   6.188   6.051 -0.2086 -2.3493  0.5855
 6983TIP3   OH220891   5.001   6.777   2.050 -0.1108  0.4964  0.3169
 6983TIP3    H120892   5.008   6.873   2.044 -0.2778  0.4145 -2.8640
 6983TIP3    H220893   4.910   6.758   2.027  0.3707 -0.4491 -0.9762
 6984TIP3   OH220894   3.480   1.568   5.586 -0.0270  0.5286  0.4447
 6984TIP3    H120895   3.436   1.566   5.671 -0.6586 -0.0085  0.1161
 6984TIP3    H220896   3.422   1.620   5.530 -1.1324 -1.5260 -0.4399
 6985TIP3   OH220897   1.950   2.800   6.341  0.3556  0.3067  0.3469
 6985TIP3    H120898   1.977   2.874   6.287 -0.1584 -0.8980 -1.6511
 6985TIP3    H220899   1.863   2.823   6.373  0.3672  0.7250  0.0808
 6986TIP3   OH220900   1.354   6.811   2.747 -0.5241  0.0674  0.2732
 6986TIP3    H120901   1.301   6.873   2.796 -0.3312 -1.2602  2.3023
 6986TIP3    H220902   1.444   6.831   2.773 -0.3405 -0.0453 -0.2742
 6987TIP3   OH220903   6.268   5.291   4.818  0.0220 -0.1202 -0.3829
 6987TIP3    H120904   6.347   5.327   4.858  0.7097 -2.5524  0.6604
 6987TIP3    H220905   6.196   5.343   4.854  0.9685  0.4629  0.7294
 6988TIP3   OH220906   5.707   4.487   6.150  0.0929  1.0362  0.4042
 6988TIP3    H120907   5.736   4.489   6.059  0.2771 -0.8581  0.3796
 6988TIP3    H220908   5.627   4.540   6.152 -1.5143 -1.1247 -1.4955
 6989TIP3   OH220909   7.800   5.481   6.060 -0.8886  0.5197 -0.2581
 6989TIP3    H120910   7.730   5.438   6.108  0.2566 -0.1466  0.8786
 6989TIP3    H220911   7.840   5.410   6.009 -0.3366  0.6505 -0.0170
 6990TIP3   OH220912   2.890   1.007   4.371 -0.3755 -0.3925  0.9762
 6990TIP3    H120913   2.963   0.953   4.402  0.1313 -0.7921 -0.8106
 6990TIP3    H220914   2.882   1.076   4.437  0.3673 -1.4132  2.1903
 6991TIP3   OH220915   4.304   4.773   0.450 -0.3892  0.4811 -0.2684
 6991TIP3    H120916   4.238   4.842   0.440 -0.8148  0.6168  2.6457
 6991TIP3    H220917   4.306   4.729   0.365 -3.4399  1.1751 -0.8104
 6992TIP3   OH220918   5.156   0.421   6.126  0.1400  0.1369 -0.4075
 6992TIP3    H120919   5.109   0.404   6.045 -0.4005  2.1455 -0.5596
 6992TIP3    H220920   5.213   0.345   6.137 -0.7851 -0.8237 -1.9212
 6993TIP3   OH220921   2.432   5.535   4.401 -0.7593 -0.0868 -0.6615
 6993TIP3    H120922   2.448   5.629   4.413  0.8337 -0.3172 -0.7195
 6993TIP3    H220923   2.384   5.530   4.318  1.6014  0.5524 -2.1826
 6994TIP3   OH220924   1.921   7.426   5.753  0.0443 -0.2959 -0.2961
 6994TIP3    H120925   1.870   7.346   5.755  0.1185 -0.3298  1.1433
 6994TIP3    H220926   1.878   7.484   5.815  0.4937  0.4761 -0.6825
 6995TIP3   OH220927   7.160   4.781   4.697  0.4001  0.8856 -0.3138
 6995TIP3    H120928   7.149   4.853   4.634 -0.1488  0.6463 -0.4951
 6995TIP3    H220929   7.183   4.705   4.643 -0.9966  0.4517 -0.3477
 6996TIP3   OH220930   4.318   4.099   3.909  0.3630 -0.2444  0.2143
 6996TIP3    H120931   4.228   4.087   3.879  1.4315 -1.5796 -2.8772
 6996TIP3    H220932   4.320   4.188   3.945 -1.6076  0.9251 -2.2782
 6997TIP3   OH220933   7.840   6.492   1.356 -0.1203 -0.4041 -0.7334
 6997TIP3    H120934   7.751   6.527   1.354 -0.7788 -1.8746  0.6958
 6997TIP3    H220935   7.852   6.453   1.269 -0.7693  0.0373 -1.0292
 6998TIP3   OH220936   7.502   2.130  -0.011 -0.2213 -0.2935 -0.6351
 6998TIP3    H120937   7.556   2.095   0.060  1.6702 -1.5455 -2.5593
 6998TIP3    H220938   7.555   2.201  -0.047 -0.4835 -0.6240 -1.6889
 6999TIP3   OH220939   1.524   4.419   6.370  0.3364  0.0493  0.3801
 6999TIP3    H120940   1.513   4.480   6.443 -2.0481 -1.8131  1.7508
 6999TIP3    H220941   1.573   4.346   6.407  0.1306 -0.4014 -0.2137
 7000TIP3   OH220942   3.112   4.762   2.118 -0.3553  0.0098 -0.3264
 7000TIP3    H120943   3.077   4.768   2.207  1.6681  0.6034  0.4739
 7000TIP3    H220944   3.128   4.668   2.105 -2.7494 -0.3805 -0.9818
 7001TIP3   OH220945   0.285   4.758   0.976  0.2175 -0.0709  0.5333
 7001TIP3    H120946   0.354   4.693   0.991  0.1952 -0.2810 -0.2032
 7001TIP3    H220947   0.314   4.836   1.023 -0.4989 -1.0596  2.7773
 7002TIP3   OH220948   4.886   2.379   1.199 -0.0434  0.0596  0.3402
 7002TIP3    H120949   4.837   2.427   1.132  0.2580 -0.6993 -0.4375
 7002TIP3    H220950   4.818   2.345   1.258 -0.5228 -1.3211 -0.9463
 7003TIP3   OH220951   5.306   5.337   3.537 -0.1922  0.5078 -0.3488
 7003TIP3    H120952   5.224   5.367   3.576 -0.2116 -1.3898  1.2266
 7003TIP3    H220953   5.373   5.391   3.579 -0.5573  1.9051 -1.4696
 7004TIP3   OH220954   5.832   1.825   5.248  0.1812  0.0850 -0.3236
 7004TIP3    H120955   5.756   1.873   5.216  1.4518  1.4641 -1.4423
 7004TIP3    H220956   5.796   1.758   5.306 -1.7746  1.5695  0.2855
 7005TIP3   OH220957   3.747   5.843   5.318  0.4320 -0.3032 -0.2835
 7005TIP3    H120958   3.681   5.818   5.383  1.0621  1.0949  0.9577
 7005TIP3    H220959   3.718   5.801   5.237 -2.1679  0.5257  0.1242
 7006TIP3   OH220960   3.952   2.269   6.085  0.1525  0.0843  0.2462
 7006TIP3    H120961   3.940   2.208   6.158 -1.0477  0.4326  0.3703
 7006TIP3    H220962   4.016   2.332   6.117  0.4376 -0.3741  0.5970
 7007TIP3   OH220963   7.406   1.622   6.067  0.3401  0.2610  0.1502
 7007TIP3    H120964   7.415   1.595   5.975 -0.8101  1.5726 -0.3918
 7007TIP3    H220965   7.335   1.569   6.101  1.0008 -0.4776  0.4044
 7008TIP3   OH220966   2.866   2.984   0.002 -0.0356 -0.0873  0.1351
 7008TIP3    H120967   2.780   3.025  -0.007 -0.9285 -1.8754  0.2593
 7008TIP3    H220968   2.913   3.041   0.064 -1.4390  0.4353  0.7636
 7009TIP3   OH220969   4.442   1.279   0.875 -0.0800 -0.4573 -0.6422
 7009TIP3    H120970   4.365   1.333   0.892 -0.5564 -1.0746 -0.8311
 7009TIP3    H220971   4.426   1.199   0.924  1.2912  0.1092  0.8501
 7010TIP3   OH220972   4.812   3.434   3.567  0.2147  0.0386 -0.1221
 7010TIP3    H120973   4.796   3.528   3.572  1.9580  0.3529  0.3764
 7010TIP3    H220974   4.742   3.400   3.512 -1.3347  1.3868  0.9042
 7011TIP3   OH220975   4.822   5.715   6.301 -0.3103 -0.0054 -0.4094
 7011TIP3    H120976   4.765   5.760   6.238 -0.6588 -0.0455 -0.1279
 7011TIP3    H220977   4.775   5.723   6.385 -1.1164 -2.1698 -0.5986
 7012TIP3   OH220978   3.817   3.681   6.362 -0.1972 -0.3334 -0.1339
 7012TIP3    H120979   3.801   3.625   6.438  0.3732  0.0229  0.2588
 7012TIP3    H220980   3.820   3.770   6.398 -0.1493 -0.1407 -0.6072
 7013TIP3   OH220981   6.018   6.238   3.924  0.2368 -0.6141 -0.0654
 7013TIP3    H120982   6.041   6.154   3.962  0.7038  0.1642  1.4465
 7013TIP3    H220983   5.974   6.286   3.994  1.0537  0.8488 -0.4863
 7014TIP3   OH220984   3.966   0.922   1.232  0.1042  0.0247 -0.3002
 7014TIP3    H120985   3.873   0.903   1.242  0.4402 -1.0824  0.9179
 7014TIP3    H220986   3.980   0.999   1.288  0.4338 -1.4662  1.7443
 7015TIP3   OH220987   0.608   2.913   1.393 -0.0510  0.3716 -0.0173
 7015TIP3    H120988   0.579   2.821   1.395 -0.6324  0.5536  0.2634
 7015TIP3    H220989   0.573   2.947   1.310 -0.9975  0.6967  0.5014
 7016TIP3   OH220990   6.114   5.820   0.757 -0.0429  0.1836  0.1645
 7016TIP3    H120991   6.140   5.733   0.729  0.0429  0.3295 -0.2176
 7016TIP3    H220992   6.030   5.835   0.713  0.6159  0.8501 -0.9260
 7017TIP3   OH220993   6.649   0.512   3.442  0.1031 -0.1691 -0.2687
 7017TIP3    H120994   6.660   0.535   3.534 -1.4860 -1.8434  0.3996
 7017TIP3    H220995   6.723   0.454   3.423  1.7770  1.9761 -0.8042
 7018TIP3   OH220996   1.269   1.375   5.791 -0.0950 -0.5247  0.1602
 7018TIP3    H120997   1.315   1.340   5.715 -0.7668  1.5348 -1.2946
 7018TIP3    H220998   1.187   1.326   5.794 -1.3631  1.2027 -2.3051
 7019TIP3   OH220999   2.976   2.862   4.140 -0.9235 -0.1165 -0.3448
 7019TIP3    H121000   3.059   2.816   4.155 -0.7943  0.3368  0.3837
 7019TIP3    H221001   2.939   2.873   4.227 -1.7258 -0.2586 -0.6588
 7020TIP3   OH221002   6.808   2.635   3.800 -0.0363 -0.1034  0.0535
 7020TIP3    H121003   6.715   2.643   3.823 -0.0212  0.0520  0.0593
 7020TIP3    H221004   6.834   2.551   3.837  0.2989  0.6798  1.6733
 7021TIP3   OH221005   3.268   1.387   3.377  0.2707 -0.1867  0.1974
 7021TIP3    H121006   3.281   1.421   3.289 -0.8856 -1.2209 -0.3961
 7021TIP3    H221007   3.340   1.424   3.428  0.5626  0.9830 -1.0092
 7022TIP3   OH221008   6.679   0.479   1.085 -1.1491  0.1215 -0.0777
 7022TIP3    H121009   6.650   0.465   1.175 -1.5773  0.0550 -0.2232
 7022TIP3    H221010   6.769   0.448   1.084 -0.1442  2.7383  1.0326
 7023TIP3   OH221011   3.511   3.311   3.001  0.1676  0.3314 -0.3772
 7023TIP3    H121012   3.458   3.332   3.077 -2.4269  0.9272 -2.2054
 7023TIP3    H221013   3.523   3.216   3.005 -1.1559  0.1642  0.0563
 7024TIP3   OH221014   3.689   7.107   1.366 -0.3712  0.1072  0.1354
 7024TIP3    H121015   3.697   7.032   1.424  2.1855 -0.4163 -0.7992
 7024TIP3    H221016   3.660   7.071   1.282  0.6788  0.1741 -0.2637
 7025TIP3   OH221017   5.006   0.747   0.595 -0.0060 -0.0305 -0.3719
 7025TIP3    H121018   4.970   0.658   0.588 -1.2478  0.1295  2.5017
 7025TIP3    H221019   4.944   0.793   0.650  3.0201  1.2261  2.2760
 7026TIP3   OH221020   5.116   1.498   4.653  0.3131 -0.5745 -0.4140
 7026TIP3    H121021   5.211   1.485   4.646  0.2605 -1.7763  0.6188
 7026TIP3    H221022   5.105   1.538   4.740 -0.1873 -1.3178 -0.1326
 7027TIP3   OH221023   2.642   1.999   1.421 -0.2411 -0.4418 -0.2365
 7027TIP3    H121024   2.708   2.056   1.461 -0.9308  2.1532 -2.4492
 7027TIP3    H221025   2.651   1.916   1.466  2.5185  0.6918  1.5603
 7028TIP3   OH221026   3.782   1.670   5.609  0.6988 -0.4133 -0.2797
 7028TIP3    H121027   3.746   1.584   5.629  2.4786 -1.7482 -2.3747
 7028TIP3    H221028   3.802   1.708   5.695 -1.4372 -1.4306  0.7378
 7029TIP3   OH221029   5.960   1.732   5.528  0.1821  0.1967  0.1502
 7029TIP3    H121030   5.877   1.748   5.483  0.3694  0.9491  0.0604
 7029TIP3    H221031   5.953   1.781   5.609  1.4273  2.2133 -0.8773
 7030TIP3   OH221032   4.023   0.729   3.189 -0.1270  0.1451 -0.6681
 7030TIP3    H121033   4.110   0.753   3.221 -0.8215  1.2769  0.5008
 7030TIP3    H221034   4.024   0.634   3.182  0.0557 -0.2650  3.0375
 7031TIP3   OH221035   5.619   4.241   1.705  0.9614  0.3978 -0.3772
 7031TIP3    H121036   5.627   4.308   1.773  1.8312  0.8433 -0.9060
 7031TIP3    H221037   5.654   4.282   1.627 -0.4342  0.0419 -1.2189
 7032TIP3   OH221038   7.490   6.177   5.819  0.2062 -0.1858  0.9936
 7032TIP3    H121039   7.441   6.260   5.816 -1.5089 -1.1316 -2.2701
 7032TIP3    H221040   7.433   6.118   5.868  0.2249 -0.0930  1.1264
 7033TIP3   OH221041   6.727   0.321   3.952 -0.0376  0.4966  0.0073
 7033TIP3    H121042   6.667   0.395   3.942 -0.6942 -0.0368 -0.0283
 7033TIP3    H221043   6.778   0.341   4.030  0.1973  1.2698 -0.3342
 7034TIP3   OH221044   3.899   6.483   4.125 -0.2342  0.3996 -0.1821
 7034TIP3    H121045   3.922   6.401   4.169 -1.0704  0.1043 -0.2782
 7034TIP3    H221046   3.834   6.524   4.182  0.7872  1.4221  0.2883
 7035TIP3   OH221047   3.968   0.123   6.563 -0.8901 -0.0821  0.6202
 7035TIP3    H121048   3.943   0.202   6.515  0.0804 -0.7131 -0.9805
 7035TIP3    H221049   4.047   0.092   6.519 -0.8723 -1.5854  1.6429
 7036TIP3   OH221050   5.530   2.476   3.552  0.7508 -0.7431 -0.2332
 7036TIP3    H121051   5.483   2.396   3.576  0.4355 -0.9822 -1.5852
 7036TIP3    H221052   5.511   2.537   3.623  0.1116 -1.5160  0.2782
 7037TIP3   OH221053   7.142   7.796   1.555 -0.0243  0.5288 -0.0011
 7037TIP3    H121054   7.165   7.888   1.542  0.8813  0.2139 -0.7168
 7037TIP3    H221055   7.166   7.778   1.646 -1.7916  1.4273  0.6988
 7038TIP3   OH221056   5.917   3.631   1.866  0.7832 -0.0981 -0.1106
 7038TIP3    H121057   5.955   3.548   1.897 -1.0282 -0.1892  2.0941
 7038TIP3    H221058   5.828   3.608   1.840  0.3283  1.1075  0.3248
 7039TIP3   OH221059   6.921   5.361   5.897 -0.2482 -0.2163 -0.9770
 7039TIP3    H121060   6.903   5.290   5.836  0.3685 -0.6458 -0.6624
 7039TIP3    H221061   6.854   5.427   5.877 -0.9010 -0.9321 -1.1835
 7040TIP3   OH221062   6.785   2.442   6.102  0.2972  0.1646  0.9267
 7040TIP3    H121063   6.840   2.493   6.161  0.1288 -0.1646  1.3683
 7040TIP3    H221064   6.770   2.359   6.148  1.0865 -0.5492 -0.0361
 7041TIP3   OH221065   7.820   5.977   6.608 -0.3303  0.3427 -0.6359
 7041TIP3    H121066   7.757   5.961   6.679  0.2785 -1.2855 -0.4154
 7041TIP3    H221067   7.798   5.914   6.541  1.2521 -0.5186 -0.4057
 7042TIP3   OH221068   3.226   2.005   3.947 -0.4723 -0.1103  0.1088
 7042TIP3    H121069   3.243   1.912   3.956 -1.1827 -0.1912  0.6958
 7042TIP3    H221070   3.206   2.034   4.036 -0.1089  0.6339 -0.0431
 7043TIP3   OH221071   4.619   7.027   2.495  0.5519  0.0599 -0.2024
 7043TIP3    H121072   4.708   7.015   2.462 -0.1122 -0.1766 -2.0322
 7043TIP3    H221073   4.581   6.939   2.494  0.3378  0.1327  0.7304
 7044TIP3   OH221074   5.797   6.633   5.902 -0.0343  0.5621 -0.2967
 7044TIP3    H121075   5.807   6.541   5.926 -0.8881  0.3946 -0.5658
 7044TIP3    H221076   5.887   6.662   5.885  0.1539 -0.5562 -1.4012
 7045TIP3   OH221077   2.610   5.945   2.188  0.2453 -0.2914  0.0747
 7045TIP3    H121078   2.665   5.981   2.118 -2.1276  1.6864 -0.9349
 7045TIP3    H221079   2.616   5.850   2.177  1.1491 -0.0621 -1.8321
 7046TIP3   OH221080   1.058   4.690   0.535 -0.1979  0.1575  0.0583
 7046TIP3    H121081   1.125   4.680   0.467 -0.2394 -1.1289  0.1774
 7046TIP3    H221082   0.978   4.659   0.493 -0.1286 -1.1328  0.8206
 7047TIP3   OH221083   3.673   3.697   1.960  0.2988  0.1512 -0.1391
 7047TIP3    H121084   3.763   3.724   1.945  0.9716 -1.7318  0.1906
 7047TIP3    H221085   3.678   3.602   1.969 -1.4758  0.1469  1.5401
 7048TIP3   OH221086   7.842   6.499   5.275 -0.1993  0.2153 -0.6427
 7048TIP3    H121087   7.915   6.529   5.330 -0.7161 -0.8797  0.7137
 7048TIP3    H221088   7.853   6.403   5.272 -2.1895 -0.1093  0.5722
 7049TIP3   OH221089   7.586   4.624   2.642  0.4626 -0.1733  0.4847
 7049TIP3    H121090   7.667   4.655   2.681  1.4334  1.9367 -2.8461
 7049TIP3    H221091   7.517   4.669   2.691  1.3472 -0.3045  1.9217
 7050TIP3   OH221092   3.360   1.366   6.114 -0.3484 -0.4754  0.3839
 7050TIP3    H121093   3.292   1.385   6.179 -0.8834  0.5334 -0.4303
 7050TIP3    H221094   3.427   1.433   6.129 -1.3635  1.0078 -1.2899
 7051TIP3   OH221095   2.056   2.854   6.768  0.1847 -0.7031  0.1369
 7051TIP3    H121096   2.040   2.935   6.816  1.1747 -0.3272 -0.1548
 7051TIP3    H221097   1.970   2.831   6.732 -0.0127  0.4917 -0.2001
 7052TIP3   OH221098   1.687   2.276   6.153  0.2362  0.3806 -0.1035
 7052TIP3    H121099   1.780   2.298   6.155  0.2364  0.3320  0.6662
 7052TIP3    H221100   1.677   2.208   6.220 -0.3317  0.3126 -0.2544
 7053TIP3   OH221101   2.844   2.668   3.840  0.0307 -0.3452  0.0580
 7053TIP3    H121102   2.803   2.584   3.822 -1.2419  0.1135  0.6776
 7053TIP3    H221103   2.913   2.648   3.904  0.0902 -0.9856 -0.2021
 7054TIP3   OH221104   5.911   3.972   0.470  0.2473 -0.1111 -0.2336
 7054TIP3    H121105   5.883   3.942   0.383  0.0500 -0.0150 -0.2022
 7054TIP3    H221106   6.002   4.000   0.457 -0.1251  0.9574 -0.6559
 7055TIP3   OH221107   0.478   4.482   4.039 -0.4286  0.5816  0.4940
 7055TIP3    H121108   0.546   4.547   4.022 -1.0349  0.5691 -2.4653
 7055TIP3    H221109   0.396   4.525   4.012 -1.2128 -0.4470  1.1447
 7056TIP3   OH221110   4.335   7.233   2.333 -0.1732  0.3368  0.1099
 7056TIP3    H121111   4.404   7.247   2.398 -0.3206 -1.5200  0.7214
 7056TIP3    H221112   4.306   7.321   2.310  0.1223  1.0763  2.3202
 7057TIP3   OH221113   0.272   6.506   2.499 -0.4863 -0.8954 -0.0809
 7057TIP3    H121114   0.303   6.551   2.578 -0.0062 -2.5772  0.7386
 7057TIP3    H221115   0.335   6.530   2.431  0.0051 -0.6842  0.4453
 7058TIP3   OH221116   7.819   5.299   5.845  0.6425  0.2513  0.1473
 7058TIP3    H121117   7.753   5.336   5.786  1.0764  0.0418 -0.4828
 7058TIP3    H221118   7.898   5.293   5.792  0.3201 -2.7092 -0.1710
 7059TIP3   OH221119   4.863   5.600   4.991 -0.1756 -0.6322 -0.2664
 7059TIP3    H121120   4.841   5.649   5.070  0.9579 -0.9267  0.2617
 7059TIP3    H221121   4.890   5.666   4.928  0.9250 -0.5316  0.2962
 7060TIP3   OH221122   7.430   0.607   2.047  0.3495 -0.3970  1.0636
 7060TIP3    H121123   7.425   0.618   1.952  0.8136 -1.5602  0.8919
 7060TIP3    H221124   7.341   0.583   2.072  0.4847 -1.2200  0.7625
 7061TIP3   OH221125   1.188   6.856   5.358  0.1823 -0.1233  0.0455
 7061TIP3    H121126   1.169   6.886   5.269  0.4644  1.4376  0.4817
 7061TIP3    H221127   1.103   6.858   5.402  0.4190  1.6361  0.5014
 7062TIP3   OH221128   0.787   5.462   4.983  0.5974 -0.6202 -0.2701
 7062TIP3    H121129   0.782   5.518   4.905 -2.1400  2.2385  1.7051
 7062TIP3    H221130   0.720   5.396   4.969 -1.1601  0.9555  0.2736
 7063TIP3   OH221131   2.026   5.869   6.039  0.4884 -0.5970 -0.0753
 7063TIP3    H121132   1.944   5.854   6.086  1.2042 -0.9455  1.1086
 7063TIP3    H221133   2.027   5.802   5.971  0.7457 -1.9896  1.2386
 7064TIP3   OH221134   0.326   5.033   1.213 -0.4174  0.5843  0.7876
 7064TIP3    H121135   0.410   4.990   1.195 -0.4252  0.8982 -0.0816
 7064TIP3    H221136   0.351   5.119   1.248 -0.3815  0.5160  0.9307
 7065TIP3   OH221137   1.180   2.475   3.841 -0.3137  0.0963 -0.5899
 7065TIP3    H121138   1.093   2.451   3.808 -0.2641 -0.5744 -0.2472
 7065TIP3    H221139   1.162   2.536   3.913 -0.5177 -0.2154 -0.3711
 7066TIP3   OH221140   4.161   7.418   2.213  0.2321 -0.8910  0.3600
 7066TIP3    H121141   4.088   7.438   2.271  0.6332 -0.3432  0.6922
 7066TIP3    H221142   4.121   7.402   2.127 -0.1601  1.2533  0.0879
 7067TIP3   OH221143   4.698   7.757   0.689 -0.2142  0.8393 -0.2742
 7067TIP3    H121144   4.737   7.784   0.606  2.0436  0.1299  0.4741
 7067TIP3    H221145   4.712   7.833   0.747  0.0657  0.5941 -0.0137
 7068TIP3   OH221146   5.684   5.729   5.870  0.4557  0.0260 -0.3699
 7068TIP3    H121147   5.725   5.790   5.931 -2.9270  1.7589  0.4514
 7068TIP3    H221148   5.644   5.785   5.804 -4.1347 -0.9210  1.2468
 7069TIP3   OH221149   7.670   6.666   0.946  0.0509 -0.3830  0.3700
 7069TIP3    H121150   7.754   6.639   0.984  0.6571  0.6018 -0.2494
 7069TIP3    H221151   7.606   6.647   1.015  1.1694  1.6869  2.1020
 7070TIP3   OH221152   5.959   3.609   4.139  0.2311  0.6532  0.2267
 7070TIP3    H121153   5.931   3.517   4.140 -0.6496  0.9212  1.0552
 7070TIP3    H221154   6.055   3.604   4.132  0.1583 -0.3140 -0.3203
 7071TIP3   OH221155   6.904   5.735   4.911 -0.1113  0.8528  0.4034
 7071TIP3    H121156   6.901   5.662   4.973 -0.4506 -0.4903 -1.1288
 7071TIP3    H221157   6.997   5.747   4.894 -0.0732  0.4359  0.2954
 7072TIP3   OH221158   2.537   5.144   3.920 -0.5946  0.5513 -0.7580
 7072TIP3    H121159   2.614   5.093   3.949 -0.7489  1.0403  0.5941
 7072TIP3    H221160   2.463   5.099   3.962 -0.9282  0.7566 -1.1317
 7073TIP3   OH221161   7.065   3.399   6.105 -0.1653 -0.1028 -0.3873
 7073TIP3    H121162   7.004   3.353   6.048 -0.7569  0.3366 -0.1264
 7073TIP3    H221163   7.131   3.436   6.045 -0.0440 -0.7396 -0.6512
 7074TIP3   OH221164   7.384   0.244   6.153 -0.4537 -0.3950  0.1384
 7074TIP3    H121165   7.334   0.178   6.201 -0.1250  0.2163  1.3450
 7074TIP3    H221166   7.470   0.243   6.194  0.3871 -1.0235 -1.5426
 7075TIP3   OH221167   0.437   4.343   4.313  0.1459 -0.2462  0.5772
 7075TIP3    H121168   0.354   4.380   4.340  0.5657  0.5511  0.7990
 7075TIP3    H221169   0.500   4.374   4.378  0.7379 -0.2510  0.0205
 7076TIP3   OH221170   2.072   0.721   0.764  0.2421  0.4036 -0.5786
 7076TIP3    H121171   1.977   0.721   0.778  0.1740 -0.0085 -1.0110
 7076TIP3    H221172   2.083   0.678   0.679  0.8401  0.1359 -0.3683
 7077TIP3   OH221173   3.999   6.774   2.049  0.1405  0.6901 -0.3616
 7077TIP3    H121174   4.046   6.850   2.014  1.1788  0.9318  1.4634
 7077TIP3    H221175   4.066   6.723   2.096 -0.9715 -0.1955  0.3238
 7078TIP3   OH221176   5.216   5.593   5.281  0.2804 -0.0127 -0.2014
 7078TIP3    H121177   5.290   5.640   5.319 -1.4691  1.4810  1.5661
 7078TIP3    H221178   5.187   5.648   5.209 -0.2089  0.3465  0.2629
 7079TIP3   OH221179   1.014   0.279   5.394  0.0172  0.0857  0.0551
 7079TIP3    H121180   0.998   0.364   5.353  0.7695  0.7080  0.9932
 7079TIP3    H221181   1.059   0.228   5.327  1.5929  1.2213  0.1900
 7080TIP3   OH221182   2.786   3.325   1.880 -0.7784 -0.4042  0.1571
 7080TIP3    H121183   2.784   3.235   1.911  1.1679  0.0388  1.7339
 7080TIP3    H221184   2.721   3.370   1.933 -0.8947 -0.6206  0.2007
 7081TIP3   OH221185   7.988   3.924   1.668  0.0580 -0.3739  0.1412
 7081TIP3    H121186   8.000   4.017   1.651 -2.5505  0.3440  1.6610
 7081TIP3    H221187   7.990   3.883   1.582 -1.0780  1.4352 -0.8015
 7082TIP3   OH221188   3.208   6.233   6.664 -0.4464 -0.5494  0.0406
 7082TIP3    H121189   3.132   6.214   6.609 -0.4289 -0.5863  0.0288
 7082TIP3    H221190   3.178   6.218   6.753 -0.1912 -1.4679 -0.0166
 7083TIP3   OH221191   0.269   7.080   2.107 -0.5262  0.8093 -0.0028
 7083TIP3    H121192   0.334   7.133   2.060 -2.0863  1.2418 -1.7994
 7083TIP3    H221193   0.246   7.010   2.045  0.3729 -1.1596  1.7465
 7084TIP3   OH221194   4.935   0.343   5.299  0.3647 -0.1664  0.2664
 7084TIP3    H121195   5.016   0.382   5.331 -0.9292  1.5781  1.6094
 7084TIP3    H221196   4.882   0.417   5.270 -0.5976 -1.3071 -1.0366
 7085TIP3   OH221197   6.609   6.851   6.306 -0.2890 -0.0745  0.0616
 7085TIP3    H121198   6.693   6.832   6.347 -0.4330  0.8397  0.8129
 7085TIP3    H221199   6.547   6.796   6.353 -0.3018  0.2216  0.3940
 7086TIP3   OH221200   3.967   5.194   6.600 -0.2522 -0.3009  0.0407
 7086TIP3    H121201   3.901   5.217   6.664  1.9372  0.8201  2.0658
 7086TIP3    H221202   4.021   5.272   6.592  1.4048 -1.4521 -0.7490
 7087TIP3   OH221203   1.897   6.865   5.522 -0.4209 -0.3137 -0.0744
 7087TIP3    H121204   1.857   6.788   5.483 -0.3455 -0.0371 -0.7142
 7087TIP3    H221205   1.835   6.936   5.503 -0.6154 -0.2558  0.7318
 7088TIP3   OH221206   0.967   5.069   3.452  0.4258  0.2311  0.9029
 7088TIP3    H121207   1.029   5.017   3.402 -0.3735 -0.0783  0.2099
 7088TIP3    H221208   0.916   5.116   3.385 -0.2935  0.2296  1.4382
 7089TIP3   OH221209   0.290   4.211   1.965 -0.2222 -0.2665 -0.1709
 7089TIP3    H121210   0.204   4.180   1.938 -0.5905  1.2400 -0.7970
 7089TIP3    H221211   0.273   4.288   2.019  0.7104 -0.5090  0.5149
 7090TIP3   OH221212   5.707   0.441   1.649 -0.0761 -0.6051 -0.3954
 7090TIP3    H121213   5.791   0.395   1.657 -0.0418 -0.4822 -0.0449
 7090TIP3    H221214   5.728   0.524   1.606 -0.1045 -0.8111 -0.8199
 7091TIP3   OH221215   6.358   2.372   2.139  0.3256 -0.0629  0.5787
 7091TIP3    H121216   6.275   2.329   2.118  0.3539 -0.8355  1.9556
 7091TIP3    H221217   6.423   2.327   2.084 -0.1558  0.6282 -0.5953
 7092TIP3   OH221218   3.488   6.369   6.674  0.0465  0.2002 -0.2896
 7092TIP3    H121219   3.405   6.329   6.649  0.9765 -1.3867 -0.9539
 7092TIP3    H221220   3.521   6.408   6.592  0.5158 -0.2284 -0.3080
 7093TIP3   OH221221   4.462   3.916   3.085 -0.4580 -0.1871 -0.4494
 7093TIP3    H121222   4.429   3.847   3.027  0.8786 -2.8243  1.6891
 7093TIP3    H221223   4.542   3.946   3.043 -0.4503 -0.7592 -0.8593
 7094TIP3   OH221224   0.878   5.001   5.440 -0.2796  0.1849 -0.2526
 7094TIP3    H121225   0.811   5.052   5.395  0.3904 -0.0658 -1.5680
 7094TIP3    H221226   0.835   4.918   5.461 -0.4266  0.0572 -1.0148
 7095TIP3   OH221227   7.588   2.216   1.499 -0.1362 -0.1311 -0.4126
 7095TIP3    H121228   7.649   2.212   1.573  0.5758  0.2634 -0.9670
 7095TIP3    H221229   7.638   2.257   1.429 -1.4576  1.4535 -0.4742
 7096TIP3   OH221230   2.082   2.396   4.417  0.0104 -0.4369  0.0173
 7096TIP3    H121231   2.107   2.410   4.326  0.6218 -0.1862  0.2200
 7096TIP3    H221232   2.111   2.475   4.463 -0.9959 -0.2031  0.2999
 7097TIP3   OH221233   0.391   5.324   5.186  0.2565  0.1649 -0.1389
 7097TIP3    H121234   0.413   5.231   5.179 -1.7003 -0.3379 -0.0072
 7097TIP3    H221235   0.395   5.342   5.281 -0.8938 -0.2009 -0.0102
 7098TIP3   OH221236   5.447   4.249   5.558 -0.2643 -0.3668  0.2116
 7098TIP3    H121237   5.541   4.258   5.548  0.0189 -1.3546  1.7739
 7098TIP3    H221238   5.411   4.295   5.482  1.4328  0.6451 -0.0327
 7099TIP3   OH221239   6.860   4.696   5.079  0.1215 -0.0516 -0.5110
 7099TIP3    H121240   6.941   4.709   5.130 -0.7351  0.9227  0.6753
 7099TIP3    H221241   6.889   4.691   4.988  1.4328  1.4814 -0.2240
 7100TIP3   OH221242   0.204   7.788   1.296 -0.2574 -0.1556  0.2903
 7100TIP3    H121243   0.183   7.879   1.316 -0.6800 -0.3404  0.7261
 7100TIP3    H221244   0.165   7.738   1.369  1.4413 -0.5504  0.9832
 7101TIP3   OH221245   3.664   7.095   6.562  0.3752  0.0986  0.3007
 7101TIP3    H121246   3.648   7.085   6.469 -0.4383  0.5116  0.3816
 7101TIP3    H221247   3.755   7.123   6.569  0.1065  1.2244 -0.4551
 7102TIP3   OH221248   3.017   6.188   5.874 -0.4499 -0.0227  0.5377
 7102TIP3    H121249   2.925   6.205   5.854 -1.1041 -2.1536  1.4737
 7102TIP3    H221250   3.035   6.103   5.833  0.3355 -0.8608  2.5090
 7103TIP3   OH221251   1.049   6.345   3.099 -0.2059 -0.2189 -0.0527
 7103TIP3    H121252   1.016   6.323   3.011  1.6631 -0.5431 -0.7128
 7103TIP3    H221253   0.984   6.308   3.159  0.4071 -3.4973 -1.2118
 7104TIP3   OH221254   7.856   2.629   4.779 -0.2762  0.0412  0.2205
 7104TIP3    H121255   7.943   2.593   4.797 -0.0033  0.4049 -0.3284
 7104TIP3    H221256   7.855   2.713   4.825  0.5175  1.0923 -1.5484
 7105TIP3   OH221257   3.599   0.593   2.570 -0.0301  0.6127  0.1609
 7105TIP3    H121258   3.583   0.511   2.616 -0.8326  0.6032 -0.1197
 7105TIP3    H221259   3.597   0.570   2.477  1.0041  0.7321  0.1001
 7106TIP3   OH221260   4.748   4.761   6.615  0.3713  0.3548 -0.3935
 7106TIP3    H121261   4.667   4.810   6.600 -1.6998 -1.6597  2.8120
 7106TIP3    H221262   4.794   4.810   6.682 -0.6166 -0.7869  1.1982
 7107TIP3   OH221263   4.331   1.565   1.120  0.0252 -0.3735  0.2325
 7107TIP3    H121264   4.254   1.601   1.165  0.3843 -0.1932  0.7142
 7107TIP3    H221265   4.379   1.642   1.090 -0.5228 -0.5018 -1.0065
 7108TIP3   OH221266   5.735   4.933   0.302 -0.2472 -0.1225 -0.6172
 7108TIP3    H121267   5.650   4.976   0.307  0.6419  1.6208  0.5544
 7108TIP3    H221268   5.788   4.991   0.249  0.3905 -0.8978 -0.8515
 7109TIP3   OH221269   4.345   4.997   2.105 -0.2587 -0.4625  0.3762
 7109TIP3    H121270   4.269   4.985   2.162  0.2758  0.1543  1.2527
 7109TIP3    H221271   4.368   4.908   2.077 -1.9229 -0.5774 -0.7857
 7110TIP3   OH221272   8.104   4.711   6.242 -0.1485  1.0152 -0.4386
 7110TIP3    H121273   8.190   4.672   6.227 -0.8712 -1.3392  1.0483
 7110TIP3    H221274   8.107   4.740   6.333 -0.9878  0.7350 -0.3180
 7111TIP3   OH221275   4.817   7.130   5.687  0.0743  0.1161  0.7726
 7111TIP3    H121276   4.876   7.199   5.654  0.6315 -0.9901 -0.6541
 7111TIP3    H221277   4.757   7.114   5.614 -0.5358 -0.3706  1.3797
 7112TIP3   OH221278   0.525   4.610   0.972 -0.3614  0.2683 -0.0861
 7112TIP3    H121279   0.518   4.569   1.058 -1.1434 -0.9007 -0.6847
 7112TIP3    H221280   0.596   4.563   0.928 -2.5410 -1.9368 -1.5033
 7113TIP3   OH221281   0.895   6.695   3.876 -0.0556 -0.1407 -0.0047
 7113TIP3    H121282   0.864   6.620   3.826  0.3801 -0.6022  0.4015
 7113TIP3    H221283   0.836   6.700   3.951  0.0201 -0.1902  0.0592
 7114TIP3   OH221284   1.366   5.261   2.673  0.1846 -0.1631 -0.3096
 7114TIP3    H121285   1.276   5.237   2.651 -0.0627  2.4007 -2.5489
 7114TIP3    H221286   1.403   5.181   2.711 -1.8809 -2.5080 -2.8119
 7115TIP3   OH221287   4.293   3.903   5.010  0.1673 -0.2002 -0.1841
 7115TIP3    H121288   4.326   3.908   4.920 -0.7377  0.8069 -0.4781
 7115TIP3    H221289   4.362   3.940   5.064  0.2587  0.2380 -0.5962
 7116TIP3   OH221290   5.430   3.569   0.726  0.3390 -0.0861  0.4708
 7116TIP3    H121291   5.461   3.622   0.652 -0.2357 -1.4370 -0.7889
 7116TIP3    H221292   5.460   3.617   0.804  2.9711  0.2368 -0.6303
 7117TIP3   OH221293   2.526   3.473   4.711  0.0884  0.4326  0.0121
 7117TIP3    H121294   2.617   3.447   4.694 -0.2234 -1.0247  0.5081
 7117TIP3    H221295   2.475   3.393   4.699 -1.0211  1.0149  0.6826
 7118TIP3   OH221296   7.845   2.352   5.876 -0.8424 -0.3021  0.8780
 7118TIP3    H121297   7.941   2.345   5.872 -0.7457  0.8916  0.7568
 7118TIP3    H221298   7.815   2.262   5.888  0.2870 -0.7180  0.7165
 7119TIP3   OH221299   7.178   3.534   1.022 -0.3003  0.1411 -0.2166
 7119TIP3    H121300   7.262   3.525   0.977 -0.6154  0.1585 -0.8195
 7119TIP3    H221301   7.136   3.607   0.978  0.0756  1.2605  1.2185
 7120TIP3   OH221302   7.261   6.439   0.159 -0.2696 -0.0978  0.0110
 7120TIP3    H121303   7.221   6.383   0.093  0.1268  1.1075 -1.3114
 7120TIP3    H221304   7.251   6.528   0.124  1.3021  0.4504  0.8385
 7121TIP3   OH221305   5.766   7.337   3.527 -0.2303 -0.1032  0.0426
 7121TIP3    H121306   5.679   7.297   3.533  0.3858 -1.4772  0.1041
 7121TIP3    H221307   5.752   7.428   3.553 -1.3438 -0.7466  1.9012
 7122TIP3   OH221308   2.873   6.843   1.448 -0.6325  0.0078  0.1360
 7122TIP3    H121309   2.899   6.911   1.387 -1.1303  0.3051  0.2503
 7122TIP3    H221310   2.917   6.865   1.530 -1.9841  1.0765  0.6189
 7123TIP3   OH221311   0.230   4.020   5.685 -0.3030  0.6039  1.1570
 7123TIP3    H121312   0.185   4.102   5.664  0.1113 -0.2658 -4.8018
 7123TIP3    H221313   0.317   4.030   5.647 -0.2772 -2.5616  0.0876
 7124TIP3   OH221314   3.687   5.762   6.286 -0.1323  0.4543  0.4454
 7124TIP3    H121315   3.752   5.694   6.301 -0.7673 -0.3374 -0.3407
 7124TIP3    H221316   3.731   5.843   6.313  1.9084  0.2355 -1.8309
 7125TIP3   OH221317   7.359   6.219   3.760  0.0627 -0.1004  0.2051
 7125TIP3    H121318   7.375   6.285   3.692 -0.6066  0.0213  0.1626
 7125TIP3    H221319   7.264   6.219   3.772 -0.0203 -1.5047 -0.2470
 7126TIP3   OH221320   1.426   4.496   4.354  0.7628 -0.7236 -0.2088
 7126TIP3    H121321   1.370   4.476   4.429  0.9976 -1.3803 -0.2038
 7126TIP3    H221322   1.365   4.527   4.287  0.7556  2.1033  0.9534
 7127TIP3   OH221323   6.716   6.894   0.893  0.1197 -0.3166 -0.0875
 7127TIP3    H121324   6.692   6.986   0.897  0.1463 -0.3328  0.5540
 7127TIP3    H221325   6.633   6.847   0.892  0.0862 -0.2489 -1.7390
 7128TIP3   OH221326   6.953   5.966   0.440 -0.5628  0.0551 -1.1059
 7128TIP3    H121327   7.022   6.010   0.489 -1.6745  0.2192  0.3746
 7128TIP3    H221328   7.000   5.905   0.383  0.8296  0.6756 -0.6806
 7129TIP3   OH221329   4.042   3.809   0.780 -0.4971 -0.0348  0.1461
 7129TIP3    H121330   3.970   3.797   0.842 -0.9691  0.9990 -0.1756
 7129TIP3    H221331   4.101   3.870   0.824 -1.4001  1.6185 -0.8407
 7130TIP3   OH221332   5.988   6.784   4.817 -0.0645 -0.0201  0.2352
 7130TIP3    H121333   6.058   6.786   4.752 -1.7795 -1.7277 -1.8251
 7130TIP3    H221334   5.957   6.874   4.821 -0.2012  0.0783 -1.7550
 7131TIP3   OH221335   4.620   3.213   3.493  0.1859 -0.3838 -0.4885
 7131TIP3    H121336   4.676   3.171   3.428  1.7714  0.0729  0.5479
 7131TIP3    H221337   4.590   3.141   3.549 -0.5860 -0.6758 -1.2534
 7132TIP3   OH221338   2.260   7.374   6.460 -0.8075  0.1088 -0.1047
 7132TIP3    H121339   2.338   7.375   6.516  0.7334  0.4348 -2.1432
 7132TIP3    H221340   2.206   7.303   6.496  0.2876  0.0185  1.5003
 7133TIP3   OH221341   5.389   1.572   3.051 -0.3092 -0.2404  0.4534
 7133TIP3    H121342   5.443   1.493   3.055  2.4086  1.3830 -1.2564
 7133TIP3    H221343   5.318   1.548   2.991 -0.9745 -2.0643  1.8568
 7134TIP3   OH221344   1.940   1.699   0.264 -0.9422  0.3392 -0.3089
 7134TIP3    H121345   2.005   1.713   0.333  0.5414 -0.8136 -1.3854
 7134TIP3    H221346   1.886   1.626   0.295 -1.6552  1.2157  0.5375
 7135TIP3   OH221347   6.062   2.853   4.713 -0.7304 -0.0557  0.6177
 7135TIP3    H121348   6.134   2.805   4.753  0.8696  0.5761 -1.3671
 7135TIP3    H221349   6.048   2.928   4.771  1.4344  0.7694  0.1631
 7136TIP3   OH221350   4.041   3.259   1.211  0.1190  0.1601 -0.3539
 7136TIP3    H121351   4.093   3.312   1.271 -1.3485 -1.2917  2.4067
 7136TIP3    H221352   3.974   3.319   1.178 -1.0510  0.3353  2.1095
 7137TIP3   OH221353   6.303   2.697   4.524  0.5353  0.3144  0.7420
 7137TIP3    H121354   6.311   2.738   4.438  2.9578 -0.6816  0.3897
 7137TIP3    H221355   6.307   2.769   4.586  0.2776  0.9340  0.0466
 7138TIP3   OH221356   6.884   4.547   2.206 -0.2637  0.0226  0.8960
 7138TIP3    H121357   6.944   4.611   2.243  0.7073 -0.6559  0.5555
 7138TIP3    H221358   6.855   4.586   2.123  1.0418 -0.3423  0.2391
 7139TIP3   OH221359   4.905   5.850   0.271 -0.0680 -0.2419 -0.2020
 7139TIP3    H121360   4.844   5.822   0.202  1.6922 -0.1090 -1.8861
 7139TIP3    H221361   4.859   5.830   0.353 -2.5783  0.3081 -1.3623
 7140TIP3   OH221362   4.728   0.769   1.440  0.3909 -0.4636 -0.0516
 7140TIP3    H121363   4.637   0.745   1.455  0.0433  1.1783  0.7352
 7140TIP3    H221364   4.778   0.707   1.493 -0.3986 -0.1793  1.0613
 7141TIP3   OH221365   7.262   4.803   3.061 -0.2991  0.5665  0.8140
 7141TIP3    H121366   7.221   4.883   3.093  0.3280  0.5169  1.7743
 7141TIP3    H221367   7.304   4.765   3.138 -0.8984 -0.8874  0.4695
 7142TIP3   OH221368   7.824   6.808   2.641  0.0711 -0.1081  0.0430
 7142TIP3    H121369   7.840   6.800   2.735  2.0889 -0.2287 -0.2675
 7142TIP3    H221370   7.816   6.903   2.627 -2.8683 -0.1831  0.6620
 7143TIP3   OH221371   6.520   0.409   5.412  0.0908 -0.0697  0.3770
 7143TIP3    H121372   6.588   0.460   5.367 -1.1513 -0.1086 -1.6877
 7143TIP3    H221373   6.552   0.400   5.501  2.8631 -0.2281 -0.5410
 7144TIP3   OH221374   3.429   6.529   3.921 -0.2964 -0.6517  0.0620
 7144TIP3    H121375   3.465   6.589   3.986 -1.5735  1.4667 -1.0616
 7144TIP3    H221376   3.456   6.566   3.837 -2.4996 -0.6189 -0.7089
 7145TIP3   OH221377   2.524   7.076   5.490 -0.1235  0.5854  0.5072
 7145TIP3    H121378   2.468   7.129   5.546 -1.1120  0.4702 -0.3385
 7145TIP3    H221379   2.593   7.135   5.462 -0.3852  1.0161  0.7510
 7146TIP3   OH221380   0.434   6.456   5.515  0.4333 -0.1401  0.6013
 7146TIP3    H121381   0.508   6.498   5.471 -1.8361  0.7476 -2.7375
 7146TIP3    H221382   0.405   6.520   5.580  1.8157  0.0199  1.0828
 7147TIP3   OH221383   0.185   2.069   4.408  0.0172  0.1063  0.3242
 7147TIP3    H121384   0.254   2.127   4.375  0.0902 -0.7916 -1.2198
 7147TIP3    H221385   0.104   2.114   4.386  0.0496 -0.7141 -1.6785
 7148TIP3   OH221386   2.335   7.253   5.583  0.0376  0.5767 -0.4593
 7148TIP3    H121387   2.283   7.276   5.660  1.2709 -0.7396  0.8461
 7148TIP3    H221388   2.378   7.334   5.557 -0.9974  1.2050 -0.2381
 7149TIP3   OH221389   2.057   6.893   2.512  0.0896  0.3860 -0.3621
 7149TIP3    H121390   1.976   6.911   2.463  0.4327  0.7446 -0.7999
 7149TIP3    H221391   2.088   6.809   2.477 -1.3354 -1.0042  1.4539
 7150TIP3   OH221392   4.466   0.121   2.238 -0.4308  0.2961 -0.4857
 7150TIP3    H121393   4.386   0.078   2.207 -0.3243 -1.3484  1.3636
 7150TIP3    H221394   4.439   0.165   2.319  0.8020 -1.5142  0.9721
 7151TIP3   OH221395   0.873   2.868   6.364 -0.2566 -0.6399 -0.0666
 7151TIP3    H121396   0.818   2.795   6.395  1.4628 -1.5220  1.0806
 7151TIP3    H221397   0.951   2.825   6.328  1.2293  0.6197  1.5032
 7152TIP3   OH221398   7.374   3.526   4.801 -0.1017 -0.2163 -0.1856
 7152TIP3    H121399   7.446   3.531   4.737  0.4338 -1.6803  0.2554
 7152TIP3    H221400   7.419   3.514   4.885 -0.7507  2.6325  0.6677
 7153TIP3   OH221401   7.111   4.857   3.416  0.2726 -0.1046  0.6019
 7153TIP3    H121402   7.168   4.782   3.398 -0.1661 -0.6049  1.2312
 7153TIP3    H221403   7.043   4.852   3.349  0.4161 -0.0870  0.4542
 7154TIP3   OH221404   5.051   1.509   6.288 -0.0095 -0.2306 -0.4397
 7154TIP3    H121405   5.100   1.525   6.207  1.8824 -0.4980  0.6113
 7154TIP3    H221406   5.075   1.581   6.346 -2.1090  0.5101 -0.3794
 7155TIP3   OH221407   6.672   6.167   1.480 -0.0362  0.2052  0.5263
 7155TIP3    H121408   6.740   6.172   1.547 -0.6667 -1.2150  1.3162
 7155TIP3    H221409   6.720   6.152   1.399  0.6380  0.0420  0.9419
 7156TIP3   OH221410   2.711   1.603   1.890  0.2971  0.3978 -0.5145
 7156TIP3    H121411   2.714   1.653   1.808 -1.6142 -0.0510 -0.9111
 7156TIP3    H221412   2.632   1.633   1.934  0.4199 -0.5510  0.3885
 7157TIP3   OH221413   4.210   4.462   5.466 -0.3562 -0.5716 -0.6694
 7157TIP3    H121414   4.225   4.546   5.423 -0.5635 -0.0510  0.2508
 7157TIP3    H221415   4.292   4.413   5.454  1.1422  1.1306  1.8450
 7158TIP3   OH221416   0.237   4.420   3.147  0.1257 -0.2136 -0.2509
 7158TIP3    H121417   0.322   4.398   3.110  0.0642  0.1698 -0.6209
 7158TIP3    H221418   0.202   4.488   3.090  0.2465  0.7506  0.7849
 7159TIP3   OH221419   3.189   2.066   0.282 -0.1024  0.5901  0.0028
 7159TIP3    H121420   3.197   2.053   0.188 -2.6852  0.3615 -0.2606
 7159TIP3    H221421   3.157   2.155   0.291 -0.0300  0.5535  0.6647
 7160TIP3   OH221422   0.553   1.693   0.660 -0.3797 -0.1723  0.1342
 7160TIP3    H121423   0.601   1.736   0.590  1.2510  0.1857  1.4211
 7160TIP3    H221424   0.510   1.764   0.707  0.0158 -0.2193  0.5741
 7161TIP3   OH221425   4.454   4.539   2.739 -0.6662  0.0711  0.2327
 7161TIP3    H121426   4.523   4.494   2.787 -0.6324  0.1465  0.2543
 7161TIP3    H221427   4.488   4.548   2.650 -1.1832 -1.0888 -0.1062
 7162TIP3   OH221428   3.543   6.694   4.183  0.0063  0.1516 -0.4489
 7162TIP3    H121429   3.502   6.759   4.126 -0.2971 -0.5904 -1.0865
 7162TIP3    H221430   3.474   6.672   4.246 -0.1987 -0.2363 -0.8057
 7163TIP3   OH221431   0.398   6.974   0.870 -0.3640 -0.2590 -0.5815
 7163TIP3    H121432   0.416   7.021   0.951  1.7526 -1.5883 -0.2018
 7163TIP3    H221433   0.370   6.887   0.899  2.2754 -1.4066 -1.1651
 7164TIP3   OH221434   6.166   2.549   2.414 -0.8427 -0.2206  0.1534
 7164TIP3    H121435   6.152   2.507   2.499  0.1629  0.2849  0.5775
 7164TIP3    H221436   6.088   2.525   2.363 -0.6289 -2.0569  0.5955
 7165TIP3   OH221437   2.305   4.220   0.396  0.3764  0.0210  0.0528
 7165TIP3    H121438   2.210   4.232   0.407  0.3969  1.4250 -0.9896
 7165TIP3    H221439   2.317   4.213   0.302  1.2688 -0.8336  0.2150
 7166TIP3   OH221440   6.095   3.229   1.246  0.5063  0.4281  0.2397
 7166TIP3    H121441   6.179   3.187   1.263 -0.1614 -1.1842 -0.1788
 7166TIP3    H221442   6.115   3.321   1.234  2.1562  0.1246  0.4839
 7167TIP3   OH221443   3.155   5.139   0.202 -0.5529 -0.0766  0.1851
 7167TIP3    H121444   3.242   5.172   0.181 -0.3915 -0.1520  0.7313
 7167TIP3    H221445   3.163   5.104   0.290 -1.2836  0.4718  0.4813
 7168TIP3   OH221446   1.581   4.405   4.645  0.0978  0.2000  0.1944
 7168TIP3    H121447   1.579   4.330   4.704 -0.4068  1.3227  1.6683
 7168TIP3    H221448   1.494   4.405   4.604  0.2593 -0.2644 -0.1616
 7169TIP3   OH221449   0.939   7.463   0.914  0.1885  0.7131 -0.7580
 7169TIP3    H121450   0.973   7.373   0.912  0.5203  0.8130  0.2188
 7169TIP3    H221451   0.850   7.456   0.879 -0.7387 -0.4234  1.6491
 7170TIP3   OH221452   2.783   1.396   0.318  0.6619  0.1537  0.0524
 7170TIP3    H121453   2.718   1.465   0.334  0.0893 -0.6337  1.3255
 7170TIP3    H221454   2.855   1.418   0.377 -0.5493 -1.5875  2.3822
 7171TIP3   OH221455   5.716   0.192   6.064 -0.5663  0.1285 -0.3061
 7171TIP3    H121456   5.651   0.224   6.127  0.8074  1.0263  0.7250
 7171TIP3    H221457   5.786   0.257   6.068  0.6156 -1.0552 -1.0149
 7172TIP3   OH221458   4.875   1.535   2.533  0.2385  0.0186 -0.0683
 7172TIP3    H121459   4.896   1.628   2.523  0.3359  0.0796  0.6404
 7172TIP3    H221460   4.940   1.490   2.480  0.5855  0.3256  0.0925
 7173TIP3   OH221461   5.887   7.033   1.556 -0.4913  0.0467  0.3536
 7173TIP3    H121462   5.907   7.126   1.556  0.8056 -0.2048 -0.8001
 7173TIP3    H221463   5.875   7.011   1.463 -1.9390 -0.7169  0.6911
 7174TIP3   OH221464   5.429   1.180   1.234 -0.0751  0.2321  0.7533
 7174TIP3    H121465   5.525   1.181   1.237 -0.0214 -0.6457 -0.2615
 7174TIP3    H221466   5.407   1.231   1.156 -0.4524  0.6030  1.0947
 7175TIP3   OH221467   8.089   6.290   3.019 -0.4768 -0.4228 -0.2625
 7175TIP3    H121468   8.065   6.260   2.932 -1.0613  0.6551 -0.4936
 7175TIP3    H221469   8.009   6.329   3.055  0.3505  1.3841 -0.2391
 7176TIP3   OH221470   4.088   0.782   4.766  0.1245 -0.0308  0.9601
 7176TIP3    H121471   4.021   0.767   4.833  0.8089  2.5680  2.3512
 7176TIP3    H221472   4.169   0.751   4.806  0.5638  1.6887  1.4683
 7177TIP3   OH221473   0.279   4.375   6.613 -0.2171 -0.3869 -0.1107
 7177TIP3    H121474   0.201   4.321   6.621 -0.2767 -0.3523 -0.4751
 7177TIP3    H221475   0.315   4.354   6.527 -0.8075  0.9098 -0.7051
 7178TIP3   OH221476   4.203   6.270   1.492  0.8375 -0.0921 -0.4529
 7178TIP3    H121477   4.245   6.214   1.557  0.6427 -0.2056 -0.4225
 7178TIP3    H221478   4.114   6.234   1.483  0.4941  0.6051  0.0416
 7179TIP3   OH221479   3.607   1.459   3.815 -0.0934 -0.2104 -0.1626
 7179TIP3    H121480   3.567   1.537   3.854 -0.9830 -0.8790  0.3027
 7179TIP3    H221481   3.551   1.387   3.843  0.8029 -1.0441 -0.4590
 7180TIP3   OH221482   0.497   5.914  -0.004  0.0387 -0.3583  0.3850
 7180TIP3    H121483   0.488   5.951   0.084 -1.0623 -1.4958  0.7911
 7180TIP3    H221484   0.416   5.866  -0.018  0.2681 -0.3388 -1.2061
 7181TIP3   OH221485   0.833   6.313   3.286  0.0733 -0.0756  0.0456
 7181TIP3    H121486   0.751   6.362   3.281  0.9881  1.6864  1.1475
 7181TIP3    H221487   0.853   6.308   3.379  2.1157  1.2189 -0.2562
 7182TIP3   OH221488   3.916   1.897   3.851  0.4801 -0.3207  0.5247
 7182TIP3    H121489   3.943   1.964   3.914 -0.6898  1.1850 -0.4873
 7182TIP3    H221490   3.898   1.820   3.904  1.5563  0.2426  1.7794
 7183TIP3   OH221491   6.838   5.078   3.925 -0.2105  0.2526  0.2486
 7183TIP3    H121492   6.870   5.048   4.010  0.2164  0.4113  0.1452
 7183TIP3    H221493   6.764   5.020   3.906 -0.7901  0.7006  1.0669
 7184TIP3   OH221494   1.859   7.729   3.019 -0.1165 -0.0107  0.6165
 7184TIP3    H121495   1.874   7.817   3.053  0.2737 -0.3126  1.2449
 7184TIP3    H221496   1.892   7.671   3.088  1.6865 -0.6491 -0.7186
 7185TIP3   OH221497   3.791   4.618   6.514  0.5838 -0.2642  0.1816
 7185TIP3    H121498   3.789   4.532   6.472  0.4679 -1.1740  1.9496
 7185TIP3    H221499   3.882   4.646   6.506  1.1188 -1.5321  1.3960
 7186TIP3   OH221500   3.157   1.081   6.304  0.1094 -0.8407  0.0475
 7186TIP3    H121501   3.222   1.149   6.318 -0.4552 -0.4083  0.6447
 7186TIP3    H221502   3.158   1.030   6.385 -0.6568 -0.5092  0.2751
 7187TIP3   OH221503   7.777   0.047   5.635  0.1963 -0.0661 -0.6581
 7187TIP3    H121504   7.765   0.023   5.543  1.6814  0.2168 -0.9564
 7187TIP3    H221505   7.710  -0.003   5.681  0.2483 -1.2248 -1.7587
 7188TIP3   OH221506   8.054   7.639   2.523  0.3229  0.5882 -0.7428
 7188TIP3    H121507   8.080   7.605   2.438  1.8713 -0.4485  0.0955
 7188TIP3    H221508   8.129   7.621   2.580 -0.9847  0.5034  1.0284
 7189TIP3   OH221509   7.486   4.305   2.403 -0.0361  0.1177  0.2107
 7189TIP3    H121510   7.480   4.377   2.340 -0.0591  0.3226  0.4445
 7189TIP3    H221511   7.407   4.313   2.456 -0.2018 -0.2846  0.0219
 7190TIP3   OH221512   1.927   7.210   4.442  0.4766 -0.4074  0.4958
 7190TIP3    H121513   1.900   7.260   4.365  0.6473  0.8981  1.2551
 7190TIP3    H221514   1.874   7.244   4.513 -0.1679 -2.0706  0.8661
 7191TIP3   OH221515   7.744   7.574   2.904 -0.2733  0.3359  0.0899
 7191TIP3    H121516   7.761   7.625   2.825  1.4272  3.5598  2.2975
 7191TIP3    H221517   7.652   7.590   2.925  0.1454  2.4342  0.5643
 7192TIP3   OH221518   6.047   0.465   3.851  0.0055 -0.8947  0.3995
 7192TIP3    H121519   5.971   0.474   3.909 -0.2058 -2.0499  0.3367
 7192TIP3    H221520   6.047   0.372   3.827 -0.6271 -0.2543 -2.4262
 7193TIP3   OH221521   1.963   2.076   5.576 -0.3262  0.0419  0.7124
 7193TIP3    H121522   1.870   2.059   5.589 -0.0616 -2.5889 -0.2377
 7193TIP3    H221523   1.981   2.154   5.629 -2.3804 -1.2130  3.4948
 7194TIP3   OH221524   1.592   3.218   3.166 -0.2987  0.3709 -0.4407
 7194TIP3    H121525   1.574   3.276   3.092 -0.4188  0.1623 -0.5761
 7194TIP3    H221526   1.547   3.260   3.240 -0.1300  0.6091 -0.4742
 7195TIP3   OH221527   7.806   6.415   4.653 -0.0905 -0.3183 -0.0565
 7195TIP3    H121528   7.715   6.411   4.626  0.6793 -1.3137 -2.8532
 7195TIP3    H221529   7.831   6.324   4.668 -0.2569  0.0979  3.8043
 7196TIP3   OH221530   4.484   1.322   1.261  0.1849  0.5019 -0.2313
 7196TIP3    H121531   4.509   1.407   1.297 -0.8596  0.8168 -0.2178
 7196TIP3    H221532   4.567   1.278   1.245  0.7141  0.6573  1.8008
 7197TIP3   OH221533   1.993   3.478   4.928  0.0382 -0.0850 -0.0554
 7197TIP3    H121534   2.036   3.392   4.932 -0.0494 -0.1357 -0.2143
 7197TIP3    H221535   2.065   3.540   4.924  0.1413 -0.2496 -2.5232
 7198TIP3   OH221536   6.586   6.354   4.345  0.1409  0.3282 -0.3775
 7198TIP3    H121537   6.507   6.403   4.321  0.2269 -0.0907 -1.5772
 7198TIP3    H221538   6.656   6.418   4.340  0.2787  0.0874 -2.1124
 7199TIP3   OH221539   1.747   6.720   1.224  0.3417  0.2142 -0.3734
 7199TIP3    H121540   1.831   6.764   1.239 -0.2423  1.0945  0.4463
 7199TIP3    H221541   1.716   6.756   1.140 -0.7172  2.4308  0.8680
 7200TIP3   OH221542   0.681   5.942   2.700  0.3761 -0.1119 -0.7394
 7200TIP3    H121543   0.745   6.001   2.659  1.5023 -0.0272  1.0373
 7200TIP3    H221544   0.723   5.913   2.780 -1.7092 -0.3249  0.3491
 7201TIP3   OH221545   0.982   1.365   0.323 -0.2613 -0.0697 -0.1704
 7201TIP3    H121546   1.019   1.452   0.305  1.6927 -0.6526  0.7410
 7201TIP3    H221547   0.888   1.376   0.311  0.1060  1.6746 -2.0578
 7202TIP3   OH221548   8.261   2.409   1.737  0.0346 -0.2572 -0.1633
 7202TIP3    H121549   8.258   2.334   1.796 -1.3490  0.1178  0.2944
 7202TIP3    H221550   8.341   2.456   1.760  0.0354 -0.6807  0.7165
 7203TIP3   OH221551   4.341   2.808   6.073  0.3220  0.4979  0.3742
 7203TIP3    H121552   4.278   2.864   6.028 -0.3454 -0.3200  0.2629
 7203TIP3    H221553   4.333   2.723   6.029  1.0570  0.2180  0.7712
 7204TIP3   OH221554   5.496   7.624   5.888 -0.0855  0.0562  0.3623
 7204TIP3    H121555   5.436   7.695   5.908  1.4142  1.2549  0.7970
 7204TIP3    H221556   5.466   7.551   5.941 -1.2560  0.5531  0.4116
 7205TIP3   OH221557   6.360   5.019   4.705  0.1127  0.3843 -0.6853
 7205TIP3    H121558   6.323   5.095   4.750 -0.7874 -0.6834  0.4272
 7205TIP3    H221559   6.452   5.017   4.732 -0.3263 -0.0258  0.8366
 7206TIP3   OH221560   6.746   6.135   3.606 -0.0125  0.1683  0.4011
 7206TIP3    H121561   6.839   6.116   3.596  0.2046 -0.1282  2.5113
 7206TIP3    H221562   6.703   6.050   3.590  0.2019 -0.0131  0.7700
 7207TIP3   OH221563   1.847   2.489   5.669 -0.2685 -0.1057 -0.5233
 7207TIP3    H121564   1.876   2.580   5.669  0.9934 -0.4393  1.8348
 7207TIP3    H221565   1.917   2.441   5.712 -0.7896 -2.2781 -1.9219
 7208TIP3   OH221566   3.073   1.158   6.040 -0.0919 -0.5360  0.0600
 7208TIP3    H121567   2.978   1.148   6.052 -0.2505  0.5054 -0.1641
 7208TIP3    H221568   3.111   1.132   6.124 -0.7284  0.7903  0.8010
 7209TIP3   OH221569   4.755   0.129   5.193 -0.8417  0.7223 -0.8112
 7209TIP3    H121570   4.802   0.050   5.218 -0.3220  1.1736 -0.3451
 7209TIP3    H221571   4.799   0.200   5.240 -2.7707  1.0285  0.6463
 7210TIP3   OH221572   5.733   3.295   0.947  0.0176 -0.3113 -0.0361
 7210TIP3    H121573   5.689   3.257   1.023 -0.0848  0.5168  0.3254
 7210TIP3    H221574   5.818   3.250   0.943 -0.4565 -1.2264 -0.1681
 7211TIP3   OH221575   4.067   6.382   5.010 -0.0987  0.3576 -0.2698
 7211TIP3    H121576   4.100   6.472   5.016 -0.2940  0.3469  1.6277
 7211TIP3    H221577   4.144   6.327   5.026 -0.0278  0.1725 -1.1802
 7212TIP3   OH221578   6.360   1.799   1.501 -0.0978 -0.6229 -0.0661
 7212TIP3    H121579   6.322   1.854   1.433 -0.8232  0.0744  0.8832
 7212TIP3    H221580   6.454   1.820   1.498 -0.4661  1.4888  0.9449
 7213TIP3   OH221581   3.493   7.356   5.679 -0.0070 -0.1731 -0.0921
 7213TIP3    H121582   3.551   7.309   5.739  0.6765  0.8615  0.0793
 7213TIP3    H221583   3.548   7.379   5.605 -0.4870 -0.1742 -0.4521
 7214TIP3   OH221584   3.401   3.536   2.051 -0.2434 -0.2246  0.1286
 7214TIP3    H121585   3.436   3.625   2.052  0.1664 -0.3774 -0.0758
 7214TIP3    H221586   3.410   3.505   2.141  0.6498 -0.4459 -0.0256
 7215TIP3   OH221587   4.822   5.942   0.706  0.3094 -0.1783 -0.6031
 7215TIP3    H121588   4.807   5.949   0.800 -0.8457 -2.5626 -0.5234
 7215TIP3    H221589   4.895   5.880   0.697  0.2104 -0.2129 -1.2543
 7216TIP3   OH221590   6.245   5.224   3.290  0.3707 -0.3452 -0.0686
 7216TIP3    H121591   6.192   5.174   3.228  1.5424 -1.0569 -0.5317
 7216TIP3    H221592   6.317   5.165   3.314  0.5522  0.3257  1.1086
 7217TIP3   OH221593   4.921   7.206   4.194 -0.6351 -0.0853 -0.1648
 7217TIP3    H121594   4.852   7.161   4.243 -1.8480 -0.0691 -1.7723
 7217TIP3    H221595   4.876   7.244   4.119  1.2581 -0.8315 -1.7753
 7218TIP3   OH221596   5.701   3.518   3.450  0.3542  0.1731 -0.0001
 7218TIP3    H121597   5.624   3.465   3.472  2.0373 -1.8971  1.2815
 7218TIP3    H221598   5.723   3.492   3.361  0.6253 -0.6244  0.2902
 7219TIP3   OH221599   4.499   4.874   0.179  0.3493  0.2341  0.0514
 7219TIP3    H121600   4.556   4.797   0.173  0.0783 -0.0976  1.4355
 7219TIP3    H221601   4.411   4.839   0.164  0.0284 -0.0637  2.3203
 7220TIP3   OH221602   6.542   4.209   4.054  0.1567  0.0433 -0.5458
 7220TIP3    H121603   6.528   4.118   4.028  1.1199 -0.1429 -0.4418
 7220TIP3    H221604   6.461   4.234   4.098  0.0394 -0.9044 -0.2013
 7221TIP3   OH221605   0.207   4.840   6.035 -0.0614  0.3147 -0.1657
 7221TIP3    H121606   0.242   4.751   6.031 -0.2236  0.2888 -1.3459
 7221TIP3    H221607   0.278   4.895   6.003 -0.0017  0.6020  0.4552
 7222TIP3   OH221608   2.965   4.653   3.957  0.0105  0.4222  0.1774
 7222TIP3    H121609   2.879   4.623   3.926 -0.4264  1.4165  0.3781
 7222TIP3    H221610   2.944   4.717   4.025  0.8811  1.6047 -0.6207
 7223TIP3   OH221611   2.109   7.593   6.503 -0.8617  0.1008 -0.7105
 7223TIP3    H121612   2.061   7.547   6.572  1.2397 -2.1780 -0.6293
 7223TIP3    H221613   2.145   7.524   6.448  0.8756  1.7358 -1.7651
 7224TIP3   OH221614   7.515   3.604   1.408  0.6292 -0.1118  0.2036
 7224TIP3    H121615   7.441   3.656   1.439  0.9484 -0.2405  1.2164
 7224TIP3    H221616   7.477   3.522   1.378  0.3873 -0.3247  1.0652
 7225TIP3   OH221617   8.296   3.938   1.167  0.3437 -0.1158  0.3789
 7225TIP3    H121618   8.258   4.014   1.210  0.4171 -0.1093  0.4330
 7225TIP3    H221619   8.330   3.884   1.239  1.5925  0.4984  0.2741
 7226TIP3   OH221620   2.386   5.445   5.377  0.4532 -0.7582  0.0548
 7226TIP3    H121621   2.393   5.400   5.293 -0.1191 -2.2853  0.7782
 7226TIP3    H221622   2.296   5.427   5.407 -1.1950  3.8855 -1.1940
 7227TIP3   OH221623   2.308   0.400   2.490 -0.5937 -0.3126 -0.3342
 7227TIP3    H121624   2.326   0.382   2.398  1.0663 -0.4517 -0.0230
 7227TIP3    H221625   2.327   0.493   2.500  1.4481 -0.7340  0.2844
 7228TIP3   OH221626   6.084   0.051   0.742  0.1962  0.3066 -0.2467
 7228TIP3    H121627   6.075   0.142   0.770  0.3913 -0.2350  1.7099
 7228TIP3    H221628   5.996   0.025   0.716 -0.1532  0.6339  0.5897
 7229TIP3   OH221629   6.170   6.010   0.366 -0.1569  0.2134  0.2758
 7229TIP3    H121630   6.119   5.950   0.312  0.3166  0.4699 -0.4657
 7229TIP3    H221631   6.111   6.033   0.438 -0.4635 -0.8497  0.3743
 7230TIP3   OH221632   6.737   2.557   6.636 -0.7537 -0.3017 -0.7152
 7230TIP3    H121633   6.773   2.576   6.722 -1.4894 -0.1954 -0.4190
 7230TIP3    H221634   6.707   2.466   6.642 -1.8756  0.0732 -0.4650
 7231TIP3   OH221635   5.487   1.701   5.170  0.4879 -0.0567  0.4700
 7231TIP3    H121636   5.542   1.673   5.097  0.2594 -1.1777  0.6980
 7231TIP3    H221637   5.398   1.679   5.142  0.4071 -0.5485  1.0953
 7232TIP3   OH221638   1.751   4.657   3.749 -0.2702 -0.0330 -0.0667
 7232TIP3    H121639   1.748   4.567   3.717 -0.5222 -0.2061  0.4292
 7232TIP3    H221640   1.770   4.710   3.671 -1.0033 -0.4279 -0.5203
 7233TIP3   OH221641   7.441  -0.021   0.282  0.2974  0.3804  0.2346
 7233TIP3    H121642   7.410   0.067   0.304  0.0627  1.3503 -3.2461
 7233TIP3    H221643   7.511  -0.039   0.344  0.7193  3.2816  0.7332
 7234TIP3   OH221644   1.060   0.047   0.629 -0.0621 -0.1324 -0.2683
 7234TIP3    H121645   1.010   0.119   0.590 -0.1084 -0.8803 -1.6526
 7234TIP3    H221646   1.023  -0.032   0.589 -2.2520 -1.3167  3.5682
 7235TIP3   OH221647   4.758   7.578   1.354  0.4632  0.1228  0.4250
 7235TIP3    H121648   4.836   7.629   1.335  1.6534 -1.0251  1.9442
 7235TIP3    H221649   4.749   7.582   1.450 -1.9973  1.1293  0.2356
 7236TIP3   OH221650   6.971   6.257   5.505 -0.4213  0.2255 -0.2109
 7236TIP3    H121651   6.949   6.309   5.583 -0.9101 -0.3390  0.0407
 7236TIP3    H221652   6.891   6.207   5.487  0.0767 -0.5194 -0.3794
 7237TIP3   OH221653   6.850   6.378   3.910 -0.1076  0.3396  0.0595
 7237TIP3    H121654   6.757   6.358   3.921 -0.1143  0.9958  1.3767
 7237TIP3    H221655   6.862   6.463   3.952  0.7550  1.1121 -1.6393
 7238TIP3   OH221656   2.549   2.890   3.698  0.0019  0.1911 -0.0495
 7238TIP3    H121657   2.600   2.867   3.776 -0.7116  0.1160  0.4011
 7238TIP3    H221658   2.477   2.943   3.732 -0.9945 -0.8467 -0.5007
 7239TIP3   OH221659   6.616   2.336   1.497  0.1871 -0.3331 -0.0981
 7239TIP3    H121660   6.613   2.431   1.502 -0.1771 -0.3445 -0.0759
 7239TIP3    H221661   6.608   2.316   1.404  3.5709 -0.2414 -0.5583
 7240TIP3   OH221662   4.736   4.203   2.032  0.8700  0.5049 -0.5257
 7240TIP3    H121663   4.729   4.273   1.968  1.4252  2.0731  1.0462
 7240TIP3    H221664   4.813   4.153   2.004  1.0146  1.0779 -1.1672
 7241TIP3   OH221665   4.456   3.372   4.908 -0.4156  0.3642 -0.5266
 7241TIP3    H121666   4.549   3.350   4.897 -0.5789 -0.0857 -1.0355
 7241TIP3    H221667   4.453   3.424   4.989  0.1282 -0.5459  0.0899
 7242TIP3   OH221668   2.345   0.994   3.164 -0.0340  0.1069  0.1388
 7242TIP3    H121669   2.323   1.087   3.173 -1.4654 -0.3106  1.4017
 7242TIP3    H221670   2.430   0.985   3.207  1.4005  1.2334 -2.2254
 7243TIP3   OH221671   6.171   3.596   3.422 -0.5062 -0.0676 -0.5441
 7243TIP3    H121672   6.191   3.669   3.363 -0.0828 -0.6436 -1.1294
 7243TIP3    H221673   6.169   3.636   3.510 -1.2138  0.8101 -0.9392
 7244TIP3   OH221674   3.283   0.241   6.212  0.3012 -0.0826  0.5789
 7244TIP3    H121675   3.268   0.335   6.211  1.0745  0.0474  0.4713
 7244TIP3    H221676   3.260   0.214   6.301 -0.4121  0.1148  0.4613
 7245TIP3   OH221677   7.440   4.621   5.402  0.4221  0.0150 -0.1485
 7245TIP3    H121678   7.469   4.707   5.435 -1.0137  1.3633 -2.1530
 7245TIP3    H221679   7.514   4.588   5.352  1.2486 -0.2964  1.2332
 7246TIP3   OH221680   0.849   2.547   6.457 -0.0548 -0.0953  0.0908
 7246TIP3    H121681   0.854   2.567   6.364 -0.2997  2.8458  0.6357
 7246TIP3    H221682   0.758   2.521   6.471  0.4063 -2.3812 -0.7370
 7247TIP3   OH221683   2.136   6.184   1.067 -0.4978  0.5576  0.3434
 7247TIP3    H121684   2.150   6.112   1.128  0.7979  0.1794 -0.3689
 7247TIP3    H221685   2.093   6.144   0.991 -0.6601  0.7309  0.3407
 7248TIP3   OH221686   3.808   0.307   4.302 -0.1650  0.1689 -0.1796
 7248TIP3    H121687   3.714   0.313   4.312 -0.1907 -0.4921  0.0479
 7248TIP3    H221688   3.843   0.376   4.359 -0.4894  0.0252  0.1958
 7249TIP3   OH221689   1.170   0.316   5.744 -0.4516 -0.0102  0.3348
 7249TIP3    H121690   1.075   0.318   5.754 -0.3213  1.1741  1.6386
 7249TIP3    H221691   1.203   0.374   5.813  1.3306 -2.2474  1.5127
 7250TIP3   OH221692   7.096   6.353   2.290 -0.3692 -0.0897  0.0147
 7250TIP3    H121693   7.110   6.392   2.376 -2.5099 -0.4580  0.5772
 7250TIP3    H221694   7.087   6.428   2.231 -1.3953  0.2266  0.5579
 7251TIP3   OH221695   5.090   6.420   3.939 -0.0126 -0.1732  0.5672
 7251TIP3    H121696   5.022   6.487   3.927  0.9306  0.8142  0.5751
 7251TIP3    H221697   5.173   6.468   3.933  0.6700 -0.9707  2.6526
 7252TIP3   OH221698   3.601   3.784   3.796  0.2839  0.3475  0.5295
 7252TIP3    H121699   3.595   3.842   3.721 -0.4284  0.2068  0.4689
 7252TIP3    H221700   3.691   3.793   3.827  1.3606 -1.3560 -1.7733
 7253TIP3   OH221701   2.602   0.084   5.207  0.4585  0.1074  0.2718
 7253TIP3    H121702   2.547   0.134   5.147  2.0583  2.0165  0.3077
 7253TIP3    H221703   2.562   0.097   5.293  0.7521  1.1748  0.2518
 7254TIP3   OH221704   2.528   3.544   0.091 -0.0831 -0.3323 -0.5505
 7254TIP3    H121705   2.585   3.583   0.158  2.3135 -1.6436 -1.6838
 7254TIP3    H221706   2.500   3.461   0.128  1.1541 -1.0071 -1.0470
 7255TIP3   OH221707   4.046   0.366   5.048  0.8022 -0.5124 -0.9197
 7255TIP3    H121708   4.059   0.275   5.072  0.7944 -0.5969 -1.2305
 7255TIP3    H221709   3.952   0.373   5.029  0.8266 -0.4716 -1.0256
 7256TIP3   OH221710   2.361   2.050   6.651 -0.0507 -0.4053  0.2961
 7256TIP3    H121711   2.453   2.073   6.642  0.1067 -0.9663  0.4481
 7256TIP3    H221712   2.352   2.019   6.741 -0.8262  1.5465  0.9488
 7257TIP3   OH221713   3.354   5.737   1.774  0.1177  0.6766 -0.0097
 7257TIP3    H121714   3.342   5.819   1.823 -1.1522 -0.6303  2.0200
 7257TIP3    H221715   3.270   5.691   1.785  1.6931 -2.1343  1.4127
 7258TIP3   OH221716   2.491   1.382   0.507 -0.6135 -0.5549  0.4300
 7258TIP3    H121717   2.544   1.305   0.530  0.7560  0.0725 -0.4617
 7258TIP3    H221718   2.540   1.456   0.542 -0.3649  0.1235 -1.2732
 7259TIP3   OH221719   3.870   5.815   4.166 -0.5010 -0.7541  0.1226
 7259TIP3    H121720   3.922   5.863   4.102 -1.0292 -0.2932  0.0277
 7259TIP3    H221721   3.929   5.749   4.201  0.6570  0.7789  1.1935
 7260TIP3   OH221722   0.900   6.636   5.246  0.2123  0.5862 -0.3930
 7260TIP3    H121723   0.852   6.636   5.163  0.3583  0.5958 -0.4780
 7260TIP3    H221724   0.967   6.568   5.235 -1.8794 -1.8554  0.9575
 7261TIP3   OH221725   6.688   4.038   2.530 -0.0492  0.2138  0.4749
 7261TIP3    H121726   6.674   4.017   2.622 -0.3636  0.5701  0.5102
 7261TIP3    H221727   6.770   3.994   2.507 -1.2950 -2.1182  0.2011
 7262TIP3   OH221728   5.736   7.525   5.753 -0.3026 -0.8162  0.1242
 7262TIP3    H121729   5.672   7.567   5.810 -0.3407 -0.5425 -0.1205
 7262TIP3    H221730   5.821   7.540   5.796 -0.2876 -0.2706 -0.0929
 7263TIP3   OH221731   4.353   4.211   6.486 -0.1539  0.2005  0.1149
 7263TIP3    H121732   4.334   4.303   6.503 -1.0814  0.0786 -0.2295
 7263TIP3    H221733   4.269   4.173   6.458  0.4153 -0.5385 -0.6543
 7264TIP3   OH221734   2.717   5.769   2.658  0.0405 -0.1717  0.0420
 7264TIP3    H121735   2.764   5.725   2.729 -0.1922  1.5142  1.3143
 7264TIP3    H221736   2.745   5.861   2.665  1.2060 -0.1722 -3.0557
 7265TIP3   OH221737   5.899   7.064   0.652  0.0244 -0.4778  0.3044
 7265TIP3    H121738   5.934   7.153   0.649 -1.7427  0.2964  1.1610
 7265TIP3    H221739   5.975   7.008   0.633  1.0092  1.2115 -1.1117
 7266TIP3   OH221740   3.028   0.546   1.893 -0.1963  0.3965  0.5718
 7266TIP3    H121741   3.040   0.600   1.815 -1.0015  1.2360  1.0131
 7266TIP3    H221742   2.939   0.564   1.922  0.2268  0.4105  1.9238
 7267TIP3   OH221743   2.996   6.376   6.103  0.5135  0.6985 -0.0496
 7267TIP3    H121744   2.926   6.312   6.111  1.0555 -0.0425 -1.0207
 7267TIP3    H221745   2.968   6.434   6.033 -0.0311  1.6228  0.9087
 7268TIP3   OH221746   1.729   5.634   0.811  0.1634  0.1893 -0.5406
 7268TIP3    H121747   1.675   5.712   0.798 -0.3532  0.2576  1.6870
 7268TIP3    H221748   1.686   5.586   0.881  2.3355 -0.3516  0.5154
 7269TIP3   OH221749   0.909   5.516   5.999  0.4022 -0.4482  0.9961
 7269TIP3    H121750   0.887   5.471   6.081 -2.4444 -0.6515  0.2314
 7269TIP3    H221751   0.929   5.445   5.938  2.5093 -0.2962  1.4192
 7270TIP3   OH221752   0.817   7.539   3.999  0.1163 -0.3139  0.7693
 7270TIP3    H121753   0.750   7.526   4.067 -0.8228 -1.2993 -0.2972
 7270TIP3    H221754   0.807   7.463   3.941  0.7126  0.6290 -0.6231
 7271TIP3   OH221755   4.926   1.293   3.619  0.2418 -0.0170  0.1308
 7271TIP3    H121756   4.948   1.206   3.653 -0.5563 -1.1951 -2.1276
 7271TIP3    H221757   4.830   1.296   3.624  0.2512  0.6140 -0.0361
 7272TIP3   OH221758   0.549   1.141   5.520 -0.2797 -0.0532 -0.3223
 7272TIP3    H121759   0.572   1.151   5.428 -1.6149  0.6521 -0.6007
 7272TIP3    H221760   0.459   1.107   5.519 -0.1840 -0.3686  0.7131
 7273TIP3   OH221761   6.321   5.745   6.700  0.6577 -0.1934 -0.2328
 7273TIP3    H121762   6.399   5.698   6.669  1.0442  0.2240  0.0854
 7273TIP3    H221763   6.329   5.832   6.661 -0.0622 -0.3939 -0.8320
 7274TIP3   OH221764   4.216   2.180   3.464 -0.0682 -0.1335 -0.0368
 7274TIP3    H121765   4.237   2.152   3.375 -1.2544 -1.4017  0.0414
 7274TIP3    H221766   4.147   2.245   3.453  2.5987  2.9387 -0.2091
 7275TIP3   OH221767   6.670   3.310   4.732  0.1251  0.2106  0.4856
 7275TIP3    H121768   6.715   3.384   4.690  3.6165 -1.1652  1.4406
 7275TIP3    H221769   6.613   3.350   4.797  0.4726  2.1172 -0.3183
 7276TIP3   OH221770   6.792   0.242   3.671 -0.3180  0.2577 -0.2714
 7276TIP3    H121771   6.858   0.176   3.651 -0.6829  0.1401 -1.0905
 7276TIP3    H221772   6.827   0.288   3.748  0.4168 -0.2132 -0.3208
 7277TIP3   OH221773   5.835   3.663   1.533 -0.3820  0.0451 -0.2105
 7277TIP3    H121774   5.874   3.642   1.448  0.0061  0.1756 -0.0710
 7277TIP3    H221775   5.755   3.611   1.538  0.6199 -1.5185  0.1874
 7278TIP3   OH221776   3.602   5.605   5.929  0.6974  0.1258  0.0603
 7278TIP3    H121777   3.696   5.624   5.925  0.6887  0.4981  1.2149
 7278TIP3    H221778   3.572   5.613   5.838  1.3952  2.0723 -0.0498
 7279TIP3   OH221779   0.788   2.913   5.802 -0.0032 -0.3024  0.5884
 7279TIP3    H121780   0.857   2.887   5.741  0.4508  3.5400 -0.7937
 7279TIP3    H221781   0.706   2.897   5.754  0.2614  0.8459 -0.2753
 7280TIP3   OH221782   0.154   7.288   4.282  0.3144  0.2465 -0.4650
 7280TIP3    H121783   0.190   7.348   4.216  0.7336 -0.3184 -0.7535
 7280TIP3    H221784   0.217   7.292   4.354 -0.1448  0.8653 -0.0818
 7281TIP3   OH221785   4.287   1.355   3.985  0.0307  0.5712  0.4028
 7281TIP3    H121786   4.235   1.408   4.045 -1.5085  1.6568 -1.7513
 7281TIP3    H221787   4.362   1.410   3.963  0.4178  0.3093  1.0558
 7282TIP3   OH221788   7.283   7.376   5.888 -0.6342  0.2612 -0.6424
 7282TIP3    H121789   7.192   7.350   5.875 -0.9251  0.8408  0.1707
 7282TIP3    H221790   7.280   7.471   5.896  0.0507  0.2859 -0.6283
 7283TIP3   OH221791   8.112   7.289   0.949 -0.3048  0.4089  0.1222
 7283TIP3    H121792   8.100   7.253   1.036 -1.7677  1.5771  0.4432
 7283TIP3    H221793   8.062   7.231   0.891  0.9120 -0.5408 -0.0210
 7284TIP3   OH221794   0.779   1.749   4.172 -0.2499  0.1068  0.0609
 7284TIP3    H121795   0.689   1.729   4.200  0.1085 -1.8654 -0.0378
 7284TIP3    H221796   0.804   1.675   4.117  1.6626  0.3123  0.5871
 7285TIP3   OH221797   6.727   4.489   0.311 -0.0829 -0.7632  0.3085
 7285TIP3    H121798   6.667   4.418   0.288  0.0049 -0.4497 -0.9417
 7285TIP3    H221799   6.813   4.446   0.314  0.5423 -0.2486 -3.7773
 7286TIP3   OH221800   1.922   4.351   1.358 -0.3469  0.6698  0.4213
 7286TIP3    H121801   1.873   4.329   1.438 -0.1080 -0.2651  0.3206
 7286TIP3    H221802   1.912   4.274   1.302  3.8969 -1.0700  1.6559
 7287TIP3   OH221803   7.462   6.311   4.059 -0.1219 -0.5187  0.2872
 7287TIP3    H121804   7.469   6.325   3.965  0.7894  0.4050  0.4785
 7287TIP3    H221805   7.526   6.242   4.079 -0.4988 -0.9008  0.2074
 7288TIP3   OH221806   2.167   7.580   4.718 -0.3278 -0.1938 -0.4777
 7288TIP3    H121807   2.144   7.654   4.774 -0.2106  0.7202 -1.5907
 7288TIP3    H221808   2.103   7.512   4.741 -1.4416  0.8064 -0.5142
 7289TIP3   OH221809   7.410   4.985   3.377  0.6833 -0.5309  0.1696
 7289TIP3    H121810   7.398   5.047   3.448  0.4946  0.4947 -0.7316
 7289TIP3    H221811   7.332   4.930   3.379  0.7028 -0.5396  0.7736
 7290TIP3   OH221812   7.325   4.695   3.312  0.6168  0.0434 -0.6161
 7290TIP3    H121813   7.324   4.610   3.268 -1.8031 -0.2247 -0.1833
 7290TIP3    H221814   7.405   4.694   3.365  0.5052 -2.0660 -0.4200
 7291TIP3   OH221815   3.521   4.018   3.618  0.3790  0.2698 -0.3794
 7291TIP3    H121816   3.519   4.020   3.523 -0.6896  2.2204 -0.3679
 7291TIP3    H221817   3.431   4.001   3.644  0.2914  1.6252  0.2685
 7292TIP3   OH221818   6.860   5.174   3.164 -0.5019 -0.4315  0.1621
 7292TIP3    H121819   6.856   5.253   3.110  1.6587  0.0803  0.6495
 7292TIP3    H221820   6.768   5.152   3.182 -1.1638  1.8099 -0.2015
 7293TIP3   OH221821   6.254   5.936   4.965 -0.3855 -0.8322 -0.1616
 7293TIP3    H121822   6.160   5.919   4.953 -0.2277 -0.7666 -1.7633
 7293TIP3    H221823   6.293   5.849   4.970 -0.3813 -0.8899 -1.0265
 7294TIP3   OH221824   7.386   3.779   6.073  0.4265 -0.4277  0.6690
 7294TIP3    H121825   7.318   3.771   6.139 -0.2444 -0.9309 -0.0680
 7294TIP3    H221826   7.467   3.792   6.123  0.3219 -3.1630  1.6871
 7295TIP3   OH221827   1.253   2.459   3.186  0.0443  0.5546  0.4718
 7295TIP3    H121828   1.259   2.399   3.113 -0.1047  0.3578  0.6227
 7295TIP3    H221829   1.339   2.454   3.228  0.2491  0.9265  0.1112
 7296TIP3   OH221830   3.844   4.553   2.893  0.2145 -0.4791 -0.0623
 7296TIP3    H121831   3.887   4.576   2.811  0.6937 -0.1474  0.2723
 7296TIP3    H221832   3.870   4.462   2.910 -0.4668 -0.7810 -0.6376
 7297TIP3   OH221833   7.647   1.014   3.993 -0.5298 -0.6742 -0.2720
 7297TIP3    H121834   7.642   0.993   3.899 -1.5572  0.5649 -0.5144
 7297TIP3    H221835   7.617   1.104   3.999  1.2476 -0.1079  1.0541
 7298TIP3   OH221836   2.535   0.182   1.881  0.3350 -0.9084  1.7424
 7298TIP3    H121837   2.630   0.188   1.892  0.4809  2.6878  0.0428
 7298TIP3    H221838   2.501   0.254   1.935 -0.9577  0.5023 -0.7672
 7299TIP3   OH221839   1.965   7.090   6.694  0.0134 -0.5982 -0.3275
 7299TIP3    H121840   1.958   7.088   6.790 -0.0618  0.0372 -0.3103
 7299TIP3    H221841   1.917   7.169   6.669 -0.3925 -1.0311 -0.9337
 7300TIP3   OH221842   7.078   4.837   0.738 -0.4377 -0.1494  0.0290
 7300TIP3    H121843   7.144   4.771   0.761  0.3886  0.6254 -0.1044
 7300TIP3    H221844   7.127   4.908   0.699 -1.5376 -0.2949 -1.7189
 7301TIP3   OH221845   2.790   1.836   3.888  0.4580  0.3931  0.9614
 7301TIP3    H121846   2.762   1.901   3.952  0.0755 -0.1553  1.3583
 7301TIP3    H221847   2.858   1.880   3.837 -0.4982  1.4466  0.5634
 7302TIP3   OH221848   7.731   4.016   6.232  0.0864 -0.5347  0.2784
 7302TIP3    H121849   7.714   4.101   6.271  1.0315 -0.3941  0.4066
 7302TIP3    H221850   7.827   4.013   6.222  0.1474 -1.9151  1.0603
 7303TIP3   OH221851   6.196   0.999   1.835  0.4139  0.3527 -0.0161
 7303TIP3    H121852   6.266   0.953   1.789  0.8253  0.8292  0.1229
 7303TIP3    H221853   6.236   1.027   1.917 -0.2951 -0.4275  0.6113
 7304TIP3   OH221854   8.036   1.326   1.182  1.0889  0.0565 -0.1391
 7304TIP3    H121855   8.076   1.366   1.258  0.7599 -2.8187  1.6989
 7304TIP3    H221856   7.942   1.339   1.194  1.0136 -0.7287  0.1695
 7305TIP3   OH221857   4.367   3.602   0.130  0.0861 -0.7871 -0.0456
 7305TIP3    H121858   4.321   3.529   0.172 -0.9335 -0.0327  0.2079
 7305TIP3    H221859   4.326   3.680   0.168  1.3900 -0.0795 -0.0469
 7306TIP3   OH221860   6.306   0.623   0.234  0.3774 -0.2679 -0.3687
 7306TIP3    H121861   6.296   0.665   0.148  0.9580  1.5089  0.3964
 7306TIP3    H221862   6.355   0.543   0.215  0.3553  0.0029 -1.7151
 7307TIP3   OH221863   0.774   2.093   3.059  0.3753 -0.2498 -0.1635
 7307TIP3    H121864   0.729   2.018   3.097  0.6034  0.4038  1.4798
 7307TIP3    H221865   0.712   2.165   3.069 -0.3142 -0.3738 -2.7596
 7308TIP3   OH221866   2.583   5.269   3.075  0.1375 -0.1081  0.2532
 7308TIP3    H121867   2.666   5.267   3.027 -0.4072  0.2496 -0.7340
 7308TIP3    H221868   2.608   5.289   3.165  1.3125 -2.1306  0.4535
 7309TIP3   OH221869   5.649   6.127   3.037  0.4121 -0.4036  0.5604
 7309TIP3    H121870   5.638   6.206   2.985 -0.0245  0.0715  1.3576
 7309TIP3    H221871   5.697   6.067   2.980  1.6373  0.7828  0.3103
 7310TIP3   OH221872   6.064   2.229   0.671 -0.6365  0.2405 -0.2768
 7310TIP3    H121873   5.979   2.270   0.689 -1.0851 -0.2207 -1.2650
 7310TIP3    H221874   6.101   2.212   0.757 -1.0459  1.4697  0.1614
 7311TIP3   OH221875   5.030   6.277   4.497  0.0892 -0.7757 -0.3138
 7311TIP3    H121876   5.016   6.367   4.528  2.4669 -0.5049  0.2379
 7311TIP3    H221877   5.055   6.287   4.405 -0.0528 -0.9000 -0.3652
 7312TIP3   OH221878   7.809   3.680   3.792 -0.0558  0.0974 -0.4910
 7312TIP3    H121879   7.749   3.644   3.857 -2.6821  1.8805 -1.7407
 7312TIP3    H221880   7.846   3.758   3.834  0.2432 -0.1852 -0.2308
 7313TIP3   OH221881   2.271   5.986   4.002 -0.3492 -0.0999  0.5131
 7313TIP3    H121882   2.269   5.892   3.984 -0.0997 -0.3907  1.8720
 7313TIP3    H221883   2.235   6.026   3.924 -0.3623 -1.3210 -0.1389
 7314TIP3   OH221884   1.876   1.965   2.146 -0.2258  0.1213  0.8598
 7314TIP3    H121885   1.841   1.990   2.061 -0.6006 -0.0859  0.9516
 7314TIP3    H221886   1.899   2.049   2.188  0.9661  0.1755  0.1429
 7315TIP3   OH221887   7.804   4.455   5.568 -0.1322 -0.5959 -0.1024
 7315TIP3    H121888   7.827   4.486   5.655  1.1422  0.5360 -0.8059
 7315TIP3    H221889   7.790   4.534   5.517 -0.1559 -1.2277 -1.1024
 7316TIP3   OH221890   1.602   0.442   2.979 -0.4630 -0.2320  0.3011
 7316TIP3    H121891   1.657   0.393   3.040 -0.9679  0.5526  1.4217
 7316TIP3    H221892   1.513   0.410   2.997 -0.5723 -0.3087 -0.3483
 7317TIP3   OH221893   2.119   4.649   5.666 -0.2434  0.0297 -0.3593
 7317TIP3    H121894   2.121   4.744   5.653  0.1238  0.0101 -0.4613
 7317TIP3    H221895   2.058   4.617   5.601 -0.5309  0.2192 -0.1846
 7318TIP3   OH221896   8.151   2.566   1.539 -0.3521 -0.0707  0.4512
 7318TIP3    H121897   8.191   2.652   1.557 -3.5109  1.1970  2.3006
 7318TIP3    H221898   8.186   2.509   1.608 -1.9294  1.1674  2.4148
 7319TIP3   OH221899   7.979   3.539   4.737 -0.3939 -0.0619 -0.5559
 7319TIP3    H121900   8.060   3.532   4.787 -0.3519 -0.2501 -0.6485
 7319TIP3    H221901   7.952   3.630   4.747 -0.2964 -0.0582 -0.3300
 7320TIP3   OH221902   2.997   4.704   6.749 -0.1133  0.2881  0.1740
 7320TIP3    H121903   2.964   4.793   6.745 -2.9527 -0.6008  1.3701
 7320TIP3    H221904   3.092   4.713   6.747 -0.3123  3.3443  0.7603
 7321TIP3   OH221905   7.062   1.632   3.947  0.4857  0.1780  0.7021
 7321TIP3    H121906   7.062   1.568   3.875  1.7311 -0.3144  1.1029
 7321TIP3    H221907   6.970   1.644   3.968  0.1926 -2.9146  1.8060
 7322TIP3   OH221908   3.386   7.697   3.978  0.3173 -0.7596 -0.4211
 7322TIP3    H121909   3.410   7.788   3.960 -0.1864 -0.5338  0.0094
 7322TIP3    H221910   3.326   7.673   3.907 -0.1241 -0.5120 -0.1379
 7323TIP3   OH221911   4.376   3.878   6.578 -0.2358  0.4449  0.2713
 7323TIP3    H121912   4.446   3.814   6.566 -1.8096 -1.4422  0.6328
 7323TIP3    H221913   4.413   3.943   6.638  0.7781 -1.2416  1.5606
 7324TIP3   OH221914   6.269   6.916   2.962  0.0419 -0.1587  0.3447
 7324TIP3    H121915   6.228   6.930   2.876  0.4737  0.2594  0.1939
 7324TIP3    H221916   6.276   6.821   2.971  1.0779 -0.2043 -0.6356
 7325TIP3   OH221917   7.101   1.013   0.734  0.3312  0.3575 -0.1118
 7325TIP3    H121918   7.025   1.070   0.720 -0.0669 -0.3093 -0.7556
 7325TIP3    H221919   7.065   0.925   0.729  1.6711 -0.1594 -4.3299
 7326TIP3   OH221920   6.273   3.500   5.393  0.2817 -0.1248  0.5788
 7326TIP3    H121921   6.216   3.441   5.442 -1.2943  1.9927  1.4840
 7326TIP3    H221922   6.287   3.574   5.452  1.0857  1.0017 -0.9579
 7327TIP3   OH221923   7.097   0.293   4.946  0.6860  0.9210  0.1688
 7327TIP3    H121924   7.186   0.261   4.936  0.4048 -0.3418  1.3347
 7327TIP3    H221925   7.043   0.213   4.947 -0.3181  1.5840  0.7483
 7328TIP3   OH221926   6.460   2.743   1.613 -0.4285  0.4278 -0.5614
 7328TIP3    H121927   6.452   2.838   1.612 -0.2080  0.4690  0.4760
 7328TIP3    H221928   6.372   2.710   1.597 -0.4652  0.7917 -1.1587
 7329TIP3   OH221929   6.033   4.394   0.807 -0.3092  0.5815  0.5251
 7329TIP3    H121930   6.083   4.454   0.751 -0.3951  0.4533  0.3125
 7329TIP3    H221931   5.995   4.330   0.747 -0.6798  0.6408  0.6905
 7330TIP3   OH221932   2.075   0.494   6.092 -0.4005 -0.1518 -0.2307
 7330TIP3    H121933   2.123   0.573   6.117 -0.2707 -0.2801 -0.0777
 7330TIP3    H221934   2.088   0.433   6.164 -1.5417  0.1323  0.2465
 7331TIP3   OH221935   4.728   0.847   6.566 -0.1290  0.2026  0.2422
 7331TIP3    H121936   4.769   0.916   6.513 -2.2215  1.0567 -0.3773
 7331TIP3    H221937   4.747   0.766   6.519  0.4436  0.6157 -0.2554
 7332TIP3   OH221938   8.128   0.290   0.263  0.5995  0.1423 -0.7612
 7332TIP3    H121939   8.213   0.334   0.256  0.2465  1.2227  1.1095
 7332TIP3    H221940   8.130   0.223   0.194  2.8674  0.2845 -0.9076
 7333TIP3   OH221941   6.832   3.294   5.959  0.2107  0.1883  0.2050
 7333TIP3    H121942   6.831   3.371   5.902  1.8541  0.7559  0.8772
 7333TIP3    H221943   6.745   3.293   5.999 -0.6658  0.2942 -1.5784
 7334TIP3   OH221944   1.808   1.115   3.642 -0.0812  0.0174  0.1548
 7334TIP3    H121945   1.826   1.024   3.666 -0.0425 -0.0740 -0.2186
 7334TIP3    H221946   1.894   1.157   3.646 -0.0597 -0.0194  0.0774
 7335TIP3   OH221947   5.835   0.495   0.681 -0.0676  0.1234  0.0733
 7335TIP3    H121948   5.828   0.401   0.699  0.2207  0.1635  0.3933
 7335TIP3    H221949   5.795   0.537   0.756  1.3282  0.2948  0.7478
 7336TIP3   OH221950   1.378   7.731   6.724 -0.0593  0.5661 -0.4481
 7336TIP3    H121951   1.414   7.800   6.780  1.4134 -0.4762 -0.0351
 7336TIP3    H221952   1.400   7.758   6.635  0.4537  0.6652 -0.2920
 7337TIP3   OH221953   0.399   5.558   2.906 -0.3014 -0.0190 -0.3524
 7337TIP3    H121954   0.403   5.652   2.922 -0.6434 -0.1191  0.3345
 7337TIP3    H221955   0.412   5.549   2.811 -0.5602  0.7331 -0.4609
 7338TIP3   OH221956   4.604   4.177   3.871  0.0580 -0.3602  0.2290
 7338TIP3    H121957   4.601   4.268   3.842  0.1102 -0.3778  0.1692
 7338TIP3    H221958   4.512   4.154   3.888  0.0430 -0.3012  0.2291
 7339TIP3   OH221959   8.249   1.096   2.186  0.5058 -0.3249 -0.5377
 7339TIP3    H121960   8.272   1.090   2.278  1.5482  0.4833 -0.7211
 7339TIP3    H221961   8.322   1.055   2.140 -0.5823 -1.8568 -0.9723
 7340TIP3   OH221962   3.145   1.966   5.326  0.0850 -0.2177 -0.5695
 7340TIP3    H121963   3.094   1.923   5.257  0.3515  1.0669 -1.5902
 7340TIP3    H221964   3.212   2.015   5.280 -0.0320  1.0897  0.5795
 7341TIP3   OH221965   2.289   4.028   5.549 -0.2707  0.2425 -0.5992
 7341TIP3    H121966   2.274   3.977   5.469 -2.5413  1.0227 -0.7500
 7341TIP3    H221967   2.373   4.071   5.534  0.1041 -0.8367 -1.8747
 7342TIP3   OH221968   5.568   7.776   6.570  0.2132  0.1369 -0.5941
 7342TIP3    H121969   5.596   7.717   6.500  0.0040  0.2614 -0.7842
 7342TIP3    H221970   5.566   7.863   6.530  0.6891  0.3015 -0.2664
 7343TIP3   OH221971   3.877   1.142   2.191 -0.3650 -0.4273  0.0465
 7343TIP3    H121972   3.900   1.151   2.284  0.9583 -0.6562 -0.2289
 7343TIP3    H221973   3.842   1.053   2.184  0.0618 -0.6160  0.2410
 7344TIP3   OH221974   6.245   4.563   6.302 -0.3495  0.0541  0.1339
 7344TIP3    H121975   6.259   4.657   6.286 -1.0490 -0.0514 -1.2346
 7344TIP3    H221976   6.150   4.552   6.296 -0.1393 -1.1357 -2.3837
 7345TIP3   OH221977   5.184   4.093   3.135  0.7995  0.7996  0.7376
 7345TIP3    H121978   5.179   4.094   3.230 -0.7653 -2.2556  0.8295
 7345TIP3    H221979   5.277   4.092   3.115  1.1610  2.4475  2.1373
 7346TIP3   OH221980   7.520   2.135   0.900 -0.0489  0.0100 -0.4363
 7346TIP3    H121981   7.549   2.045   0.908  1.4162  0.4124 -0.9430
 7346TIP3    H221982   7.443   2.141   0.957  1.8306 -0.6680  2.3968
 7347TIP3   OH221983   0.086   7.415   2.863 -0.2424  0.1463  0.0694
 7347TIP3    H121984   0.144   7.340   2.854 -0.6999 -0.0827 -1.0578
 7347TIP3    H221985   0.002   7.378   2.890 -0.9880  0.0074 -2.2314
 7348TIP3   OH221986   1.928   3.566   4.616 -0.7089  0.1493  0.1224
 7348TIP3    H121987   1.969   3.526   4.693 -1.1922 -1.4472 -0.4072
 7348TIP3    H221988   1.995   3.564   4.548 -0.8997 -0.2524 -0.0564
 7349TIP3   OH221989   5.127   4.899   5.424  0.5950  0.0369  0.0444
 7349TIP3    H121990   5.052   4.892   5.364  0.7687  0.3187 -0.2065
 7349TIP3    H221991   5.189   4.834   5.391 -0.4092 -1.7845  1.5488
 7350TIP3   OH221992   6.864   4.720   0.250 -0.3724 -0.0017 -0.2852
 7350TIP3    H121993   6.935   4.719   0.315  1.3269 -1.9274 -2.0081
 7350TIP3    H221994   6.801   4.655   0.282  1.0263 -1.8235 -1.0327
 7351TIP3   OH221995   6.864   6.192   6.666 -0.3585 -0.3069  0.0937
 7351TIP3    H121996   6.865   6.114   6.612  1.0480  1.0823 -2.0651
 7351TIP3    H221997   6.820   6.166   6.747 -1.8124 -2.7144 -1.3748
 7352TIP3   OH221998   0.396   7.397   2.369 -0.7430 -0.4220  0.2665
 7352TIP3    H121999   0.341   7.475   2.376 -0.0339  0.0858  0.3751
 7352TIP3    H222000   0.344   7.327   2.407 -1.1392  0.1315  0.7645
 7353TIP3   OH222001   1.113   4.636   0.145 -0.3025  0.2025 -0.2341
 7353TIP3    H122002   1.051   4.597   0.083 -0.8303  1.3711 -0.4705
 7353TIP3    H222003   1.077   4.722   0.164  0.0988  0.0670  1.3466
 7354TIP3   OH222004   2.554   4.600   6.670  0.2722  0.0241 -0.4412
 7354TIP3    H122005   2.617   4.539   6.632  0.6535  0.8401 -1.1612
 7354TIP3    H222006   2.503   4.631   6.595 -2.0627 -1.7607  0.2871
 7355TIP3   OH222007   6.844   0.721   3.898  0.8664 -0.5747  0.1166
 7355TIP3    H122008   6.936   0.717   3.872  1.8277 -0.2438  3.0910
 7355TIP3    H222009   6.844   0.769   3.980 -2.3029  1.5553 -0.9265
 7356TIP3   OH222010   0.751   5.830   0.713  0.1089  0.3811  0.5517
 7356TIP3    H122011   0.745   5.919   0.747 -0.5255  0.1303  1.1173
 7356TIP3    H222012   0.803   5.783   0.778  0.2122  0.2692  0.3903
 7357TIP3   OH222013   0.753   2.242   4.748  0.0425  0.4081 -0.5419
 7357TIP3    H122014   0.661   2.253   4.724 -0.0108  2.4446  0.3882
 7357TIP3    H222015   0.752   2.176   4.818 -1.0021  1.9370  0.9494
 7358TIP3   OH222016   4.200   4.708   2.396  0.1372 -0.1245 -0.1159
 7358TIP3    H122017   4.208   4.658   2.477  2.6938  0.0936 -0.1332
 7358TIP3    H222018   4.193   4.799   2.424 -0.9090 -0.1917 -0.1338
 7359TIP3   OH222019   1.585   4.043   3.343 -0.1299 -0.1639  0.1048
 7359TIP3    H122020   1.593   4.037   3.248  0.1233 -0.6557  0.1563
 7359TIP3    H222021   1.654   4.104   3.370 -1.7008  1.9016 -0.2571
 7360TIP3   OH222022   1.520   5.168   6.783  0.1767 -0.5546 -0.1196
 7360TIP3    H122023   1.531   5.251   6.735 -1.1997 -0.5671 -0.5091
 7360TIP3    H222024   1.441   5.129   6.744 -0.0910 -1.2950  1.1285
 7361TIP3   OH222025   0.730   1.115   2.356  0.2182 -0.1614  0.2000
 7361TIP3    H122026   0.687   1.187   2.402 -0.2780 -1.0077  1.1208
 7361TIP3    H222027   0.683   1.108   2.273  0.6283  0.9017 -0.1440
 7362TIP3   OH222028   2.195   5.916   3.002 -0.4208 -0.7132 -0.8638
 7362TIP3    H122029   2.217   5.992   3.055 -1.1334 -0.0753 -1.4688
 7362TIP3    H222030   2.273   5.899   2.950 -0.5140  0.0488 -1.2519
 7363TIP3   OH222031   0.065   4.972   1.233 -0.0018 -0.4776  0.6373
 7363TIP3    H122032   0.158   4.991   1.224 -0.2236  0.9425  1.1349
 7363TIP3    H222033   0.027   4.990   1.147  0.1786 -1.0603  0.4342
 7364TIP3   OH222034   2.384   6.363   0.210  0.2956  0.2081 -0.8310
 7364TIP3    H122035   2.356   6.281   0.250 -1.3671  0.8278 -0.6272
 7364TIP3    H222036   2.380   6.347   0.116  3.1143 -0.9016 -0.8399
 7365TIP3   OH222037   7.327   5.573   5.206 -0.2829 -0.3614  0.1603
 7365TIP3    H122038   7.319   5.650   5.149 -1.3782 -0.4272  0.2037
 7365TIP3    H222039   7.338   5.610   5.294  1.1218 -0.2621 -0.0351
 7366TIP3   OH222040   3.000   6.930   6.499 -0.2796 -0.1282 -0.1802
 7366TIP3    H122041   3.014   6.964   6.411 -1.7504  0.8900 -0.0558
 7366TIP3    H222042   3.031   6.839   6.495  2.5277  0.7681 -0.8605
 7367TIP3   OH222043   7.719   3.909   5.197 -0.0154 -0.1561  0.9233
 7367TIP3    H122044   7.759   3.992   5.226 -0.5041  0.7614 -0.9159
 7367TIP3    H222045   7.640   3.935   5.151 -0.3234 -1.6876  0.5345
 7368TIP3   OH222046   6.197   3.899   0.189  0.0433  0.2516 -0.0819
 7368TIP3    H122047   6.189   3.959   0.264  1.8329 -0.4168  0.7086
 7368TIP3    H222048   6.291   3.899   0.169 -0.1418 -1.1081 -1.0560
 7369TIP3   OH222049   0.278   7.091   0.587 -0.2606 -0.0476  0.6536
 7369TIP3    H122050   0.333   7.100   0.509 -0.0511  1.9580  0.9917
 7369TIP3    H222051   0.340   7.079   0.659 -0.2858  1.0343  0.8754
 7370TIP3   OH222052   8.043   6.916   1.913 -0.4406  0.3513 -0.0657
 7370TIP3    H122053   7.950   6.936   1.920  0.1636  3.8162  0.3370
 7370TIP3    H222054   8.084   6.971   1.981  2.1416  1.9202 -2.6492
 7371TIP3   OH222055   4.141   0.093   0.985  0.2971 -0.0755  0.5106
 7371TIP3    H122056   4.114   0.015   0.937 -1.6287  0.6195  0.3463
 7371TIP3    H222057   4.150   0.161   0.918 -0.9534  0.5294  0.9046
 7372TIP3   OH222058   6.449   2.312   2.972  0.3634  0.0432  0.2765
 7372TIP3    H122059   6.525   2.310   2.914  0.1853 -0.1907  0.0532
 7372TIP3    H222060   6.379   2.271   2.922  0.3489 -0.6555  0.8586
 7373TIP3   OH222061   0.637   3.862   2.653  0.0590 -0.4226  0.5661
 7373TIP3    H122062   0.655   3.913   2.732 -0.9685 -1.5747  1.5779
 7373TIP3    H222063   0.604   3.778   2.685  2.3070 -2.0502 -1.0003
 7374TIP3   OH222064   5.527   2.732   5.631 -0.3014 -0.1240  0.1384
 7374TIP3    H122065   5.496   2.657   5.580  0.1190  0.7037 -1.3892
 7374TIP3    H222066   5.616   2.707   5.658 -1.0407 -1.1568  1.7529
 7375TIP3   OH222067   6.100   7.776   3.448 -0.4299 -0.9399  0.2687
 7375TIP3    H122068   6.063   7.751   3.533  0.4843 -1.5037  0.5196
 7375TIP3    H222069   6.135   7.864   3.462 -0.0922 -1.1151  0.5425
 7376TIP3   OH222070   3.848   5.723   0.354  0.0765  0.0995 -0.5041
 7376TIP3    H122071   3.784   5.745   0.286  1.2293  1.2070 -1.2797
 7376TIP3    H222072   3.878   5.808   0.386 -1.2295 -0.3787  2.2166
 7377TIP3   OH222073   1.201   5.241   6.461  0.1659 -0.3734  0.3378
 7377TIP3    H122074   1.138   5.204   6.400  1.0141 -1.3758  0.0467
 7377TIP3    H222075   1.278   5.185   6.454  0.2138 -0.6701  2.4872
 7378TIP3   OH222076   2.201   2.105   3.186  0.0832  0.5057 -0.2371
 7378TIP3    H122077   2.254   2.047   3.132  0.2444 -0.5330  0.9897
 7378TIP3    H222078   2.139   2.146   3.125  0.4152 -0.4349 -1.2259
 7379TIP3   OH222079   4.520   7.159   4.446 -0.6757  0.0017  0.4184
 7379TIP3    H122080   4.464   7.114   4.510  0.3936  0.3243  1.6218
 7379TIP3    H222081   4.606   7.162   4.488  0.3505 -0.7420 -1.5053
 7380TIP3   OH222082   1.559   0.716   0.321  0.0434 -0.1087 -0.0331
 7380TIP3    H122083   1.542   0.762   0.239  0.2073 -0.5726 -0.3268
 7380TIP3    H222084   1.629   0.766   0.363  1.1609 -0.8475 -0.9744
 7381TIP3   OH222085   7.014   3.779   5.897 -0.0659 -0.0097  0.0682
 7381TIP3    H122086   6.964   3.756   5.819  1.4353 -0.5708 -0.7600
 7381TIP3    H222087   7.076   3.708   5.908  1.6492  1.4287  0.0947
 7382TIP3   OH222088   5.387   0.829   4.543  0.2003 -0.1054 -0.5710
 7382TIP3    H122089   5.476   0.795   4.555  1.1657  2.1839 -0.8387
 7382TIP3    H222090   5.350   0.776   4.473  2.0040  0.0298 -1.6870
 7383TIP3   OH222091   2.480   7.045   3.159  0.1173  0.1020 -0.6646
 7383TIP3    H122092   2.395   7.079   3.132 -0.0266 -0.1721 -0.5602
 7383TIP3    H222093   2.543   7.108   3.124 -0.1168  0.2082 -0.8989
 7384TIP3   OH222094   1.872   0.025   5.177 -0.0526  0.0875 -0.5391
 7384TIP3    H122095   1.819  -0.005   5.103  0.7168 -0.3660 -0.9110
 7384TIP3    H222096   1.808   0.041   5.247 -0.8657  1.0729 -1.4571
 7385TIP3   OH222097   2.179   3.434   1.842  0.2158 -0.6192 -0.2279
 7385TIP3    H122098   2.226   3.354   1.866  0.2753  0.0582  2.1147
 7385TIP3    H222099   2.086   3.412   1.855  0.0876 -0.8301 -1.3572
 7386TIP3   OH222100   8.180   0.827   4.893 -0.0685  0.5021 -0.2171
 7386TIP3    H122101   8.217   0.812   4.806 -0.9670 -0.2323 -0.4839
 7386TIP3    H222102   8.248   0.798   4.953  0.6138  1.1297 -0.6542
 7387TIP3   OH222103   0.546   0.703   3.427  0.2881 -0.1239  0.3435
 7387TIP3    H122104   0.627   0.730   3.385  0.8740 -2.1514  0.1105
 7387TIP3    H222105   0.572   0.640   3.494 -1.0639 -0.6729  0.3992
 7388TIP3   OH222106   7.310   0.988   5.081 -0.0130  0.6336 -0.4859
 7388TIP3    H122107   7.269   1.045   5.146  1.0067 -0.0187  0.7995
 7388TIP3    H222108   7.403   1.011   5.084  0.5023 -1.2774  0.3613
 7389TIP3   OH222109   1.174   3.225   0.444  0.6233  0.1888 -0.4349
 7389TIP3    H122110   1.234   3.296   0.467  1.4084  0.4568 -3.0133
 7389TIP3    H222111   1.217   3.146   0.476  0.7212  0.6629  0.6581
 7390TIP3   OH222112   4.161   6.606   1.334 -0.0362 -0.5631  0.0520
 7390TIP3    H122113   4.074   6.569   1.349 -0.1826  0.0814  0.8295
 7390TIP3    H222114   4.219   6.556   1.391  0.0035 -0.5849 -0.0078
 7391TIP3   OH222115   6.883   4.950   1.902 -0.3029 -0.1292  0.0724
 7391TIP3    H122116   6.823   4.960   1.828  0.3606  1.4879 -0.2855
 7391TIP3    H222117   6.947   5.020   1.892  3.0187 -2.9810 -0.7672
 7392TIP3   OH222118   3.901   3.989   5.008 -0.0223 -0.1377 -0.4763
 7392TIP3    H122119   3.913   4.028   5.095  2.8097  1.7828 -1.5957
 7392TIP3    H222120   3.811   3.956   5.009 -0.3557  0.5070  2.8859
 7393TIP3   OH222121   3.032   4.533   4.622 -0.0094 -0.4845 -0.2341
 7393TIP3    H122122   3.108   4.479   4.599  0.6874  0.4600 -0.2683
 7393TIP3    H222123   2.964   4.507   4.560  0.3590 -1.2120 -0.3367
 7394TIP3   OH222124   5.945   0.959   1.935  0.0577  0.1541 -0.3523
 7394TIP3    H122125   6.036   0.967   1.905  0.7384 -1.7170  1.0679
 7394TIP3    H222126   5.907   0.893   1.878  0.6182 -1.5429  1.1587
 7395TIP3   OH222127   0.083   0.198   0.802 -0.0021  0.1738 -0.6185
 7395TIP3    H122128   0.034   0.260   0.748 -0.8466  0.9998  1.0232
 7395TIP3    H222129   0.023   0.125   0.817  0.2325 -0.0583 -0.7878
 7396TIP3   OH222130   3.383   7.480   0.259 -0.0658  0.6276  0.4616
 7396TIP3    H122131   3.467   7.460   0.218 -0.6110  1.4865 -1.1644
 7396TIP3    H222132   3.389   7.573   0.282 -0.1084  0.3736  1.5268
 7397TIP3   OH222133   2.739   3.121   0.723 -0.4351 -0.0196  0.5125
 7397TIP3    H122134   2.758   3.186   0.791  0.7181 -0.1094  0.3010
 7397TIP3    H222135   2.746   3.037   0.769  2.2917 -0.1959 -0.0628
 7398TIP3   OH222136   0.390   0.872   3.927  0.7126 -0.4676 -0.1269
 7398TIP3    H122137   0.383   0.945   3.989  0.8891  0.5820 -1.2981
 7398TIP3    H222138   0.300   0.838   3.921  0.4576  0.1871 -0.1822
 7399TIP3   OH222139   3.753   5.480   0.463  0.6892 -0.4214  0.1330
 7399TIP3    H122140   3.773   5.566   0.426  0.6900 -0.1534  0.7369
 7399TIP3    H222141   3.824   5.424   0.434  1.3595  0.0844  0.7459
 7400TIP3   OH222142   6.799   4.098   6.001 -0.1105 -0.1585  0.4909
 7400TIP3    H122143   6.814   4.154   5.925 -0.8428  2.2289  1.9769
 7400TIP3    H222144   6.747   4.025   5.967  0.7838  0.0738 -1.5235
 7401TIP3   OH222145   0.714   6.468   0.791  0.1602 -0.0370  0.8518
 7401TIP3    H122146   0.655   6.411   0.840 -1.4662  0.6110 -0.2749
 7401TIP3    H222147   0.731   6.421   0.710  1.2608 -0.2247  1.1656
 7402TIP3   OH222148   7.393   2.290   4.994  0.2576 -0.4831  0.4728
 7402TIP3    H122149   7.307   2.263   5.026 -0.0812 -0.5916 -0.4892
 7402TIP3    H222150   7.406   2.378   5.030  0.7671 -1.3377  2.5061
 7403TIP3   OH222151   7.437   2.011   4.929 -0.4209  0.0202  0.4342
 7403TIP3    H122152   7.381   2.035   4.856 -0.8432  0.4817  0.9100
 7403TIP3    H222153   7.461   2.094   4.970  1.9474 -0.0077 -0.7227
 7404TIP3   OH222154   6.527   5.103   1.880  0.1457 -0.4432 -0.6119
 7404TIP3    H122155   6.461   5.165   1.848  0.3747  0.3640  0.4572
 7404TIP3    H222156   6.563   5.064   1.800  0.1736  0.9768 -1.3145
 7405TIP3   OH222157   0.218   7.754   5.421 -0.3097 -0.0743  0.2966
 7405TIP3    H122158   0.126   7.749   5.447 -0.4016 -2.5943 -0.1972
 7405TIP3    H222159   0.215   7.771   5.327 -0.3807 -1.6544 -0.0197
 7406TIP3   OH222160   4.153   2.184   0.508  0.4067  0.2530  0.4997
 7406TIP3    H122161   4.057   2.186   0.501  0.4138 -0.8221 -0.1064
 7406TIP3    H222162   4.170   2.169   0.601 -0.0485 -0.6951  0.4395
 7407TIP3   OH222163   2.231   2.760   5.604 -0.3845  0.0719 -0.7081
 7407TIP3    H122164   2.183   2.841   5.619  2.5174  1.6346  0.8473
 7407TIP3    H222165   2.264   2.768   5.514  1.0532  1.3461 -0.1068
 7408TIP3   OH222166   4.161   5.298   1.873 -0.2226  0.0486  0.0290
 7408TIP3    H122167   4.195   5.378   1.834  2.0404 -0.8675 -0.0292
 7408TIP3    H222168   4.229   5.271   1.935 -2.1617 -0.3901  2.1174
 7409TIP3   OH222169   0.252   0.068   3.792 -0.3440 -0.7319 -0.3196
 7409TIP3    H122170   0.213  -0.016   3.818  0.4371 -0.6311  1.2735
 7409TIP3    H222171   0.344   0.060   3.815 -0.3735  0.7817  0.4316
 7410TIP3   OH222172   3.824   3.067   6.507 -0.1045  0.0616 -0.2595
 7410TIP3    H122173   3.901   3.111   6.469  1.1268 -0.0155  1.9952
 7410TIP3    H222174   3.847   2.974   6.506 -0.7279 -0.0959 -0.7071
 7411TIP3   OH222175   5.186   4.485   5.815 -0.1165  0.3832 -0.5883
 7411TIP3    H122176   5.166   4.536   5.894  0.3623  0.3309 -0.4302
 7411TIP3    H222177   5.202   4.550   5.747  1.7437  0.4878 -0.0881
 7412TIP3   OH222178   2.523   5.369   3.563 -0.0317  0.2339 -0.0795
 7412TIP3    H122179   2.483   5.449   3.529  0.5806  0.9475  0.8104
 7412TIP3    H222180   2.553   5.322   3.486 -0.9431  0.5736 -0.6504
 7413TIP3   OH222181   5.851   0.054   1.171  0.2019  0.7244  0.2392
 7413TIP3    H122182   5.773   0.095   1.208  0.5093  0.5992  1.0402
 7413TIP3    H222183   5.873  -0.016   1.232 -0.5770 -0.9826 -1.3297
 7414TIP3   OH222184   2.863   7.066   3.052  0.0535  0.5825 -0.8482
 7414TIP3    H122185   2.895   7.094   3.138 -0.4344  1.3899 -0.9193
 7414TIP3    H222186   2.936   7.018   3.014  0.6155  1.0246 -0.3586
 7415TIP3   OH222187   7.854   6.435   3.135  0.4150  0.7335  0.3358
 7415TIP3    H122188   7.820   6.463   3.050 -1.2762 -1.6842  0.0978
 7415TIP3    H222189   7.805   6.487   3.199  0.4958  1.3922 -0.1348
 7416TIP3   OH222190   4.301   4.871   4.786  0.4120 -0.5574 -0.1300
 7416TIP3    H122191   4.299   4.920   4.868  0.2650 -2.3420  0.9867
 7416TIP3    H222192   4.375   4.908   4.738  0.1183  0.9454  0.4909
 7417TIP3   OH222193   7.477   7.292   2.679 -0.2815  0.8403 -0.2626
 7417TIP3    H122194   7.399   7.308   2.732 -0.9834 -0.5482 -0.8169
 7417TIP3    H222195   7.545   7.269   2.742 -0.3098  2.0154  0.2228
 7418TIP3   OH222196   5.079   0.405   4.904 -0.2618 -0.1737  0.9057
 7418TIP3    H122197   5.171   0.386   4.887 -1.1174 -1.5878 -3.3943
 7418TIP3    H222198   5.078   0.497   4.930  2.3388 -0.0915  0.9429
 7419TIP3   OH222199   6.245   1.801   4.432 -0.1626 -0.4472  0.0747
 7419TIP3    H122200   6.266   1.877   4.377  0.7098 -1.0116 -0.3985
 7419TIP3    H222201   6.221   1.839   4.517  0.1964  0.3673 -0.1745
 7420TIP3   OH222202   3.809   3.759   3.097 -0.0702 -0.5041 -0.0625
 7420TIP3    H122203   3.765   3.674   3.100  0.4860 -0.8737 -1.4976
 7420TIP3    H222204   3.747   3.819   3.137 -2.0438 -0.9673 -2.1730
 7421TIP3   OH222205   4.485   1.607   3.187  0.2616  0.0333 -0.2201
 7421TIP3    H122206   4.525   1.569   3.108 -0.9236 -2.3319  0.2264
 7421TIP3    H222207   4.558   1.618   3.248  0.9496  0.4032 -1.0884
 7422TIP3   OH222208   8.218   2.690   2.642  0.0898 -0.0167  0.4293
 7422TIP3    H122209   8.284   2.644   2.589 -0.6514 -0.7261  0.1117
 7422TIP3    H222210   8.221   2.780   2.610 -0.2528 -0.4092 -0.7439
 7423TIP3   OH222211   2.476   4.206   0.898 -0.3708 -0.1428  0.0305
 7423TIP3    H122212   2.433   4.237   0.818  1.3965  0.3048 -0.8007
 7423TIP3    H222213   2.427   4.128   0.924 -1.5440  0.2456 -0.9530
 7424TIP3   OH222214   7.374   6.101   0.191 -0.3095 -0.0833  0.0045
 7424TIP3    H122215   7.358   6.149   0.109  1.1450  0.5412  0.0636
 7424TIP3    H222216   7.298   6.120   0.245 -0.4829  0.9036 -0.5612
 7425TIP3   OH222217   5.611   1.636   0.743 -0.2534  0.0013  0.1636
 7425TIP3    H122218   5.615   1.728   0.720 -2.9046  0.2752  0.4638
 7425TIP3    H222219   5.535   1.603   0.696  2.7858 -3.1124 -3.2070
 7426TIP3   OH222220   6.311   5.842   2.477 -0.2690  0.5770  0.1574
 7426TIP3    H122221   6.374   5.771   2.492  0.6540  1.2449 -0.4339
 7426TIP3    H222222   6.229   5.808   2.511  0.0339 -0.9804 -0.5594
 7427TIP3   OH222223   1.097   2.633   0.219 -0.3670  0.1234 -0.0245
 7427TIP3    H122224   1.003   2.623   0.233 -0.7321  1.3054 -1.4171
 7427TIP3    H222225   1.107   2.721   0.185  1.0533 -0.5672 -1.5339
 7428TIP3   OH222226   1.448   2.716   4.608 -0.1034  0.1143 -0.2797
 7428TIP3    H122227   1.502   2.663   4.549 -0.1890 -1.9308  1.3727
 7428TIP3    H222228   1.365   2.669   4.614 -0.9243  1.5038 -0.2430
 7429TIP3   OH222229   1.099   3.627   6.057 -0.7639 -0.0754  0.7132
 7429TIP3    H122230   1.021   3.597   6.102 -0.8518 -0.0811  0.5606
 7429TIP3    H222231   1.123   3.555   5.999 -1.5567  0.5062 -0.3931
 7430TIP3   OH222232   6.887   0.797   1.872  0.1152  0.3195 -0.3279
 7430TIP3    H122233   6.852   0.765   1.956  2.1124  2.3973  1.4305
 7430TIP3    H222234   6.922   0.719   1.829 -0.2777 -0.6958  1.1109
 7431TIP3   OH222235   5.497   2.187   5.390 -0.0414 -0.0332  0.5324
 7431TIP3    H122236   5.479   2.160   5.480 -2.8884 -0.3092 -0.0242
 7431TIP3    H222237   5.500   2.105   5.341 -1.2155  0.2458 -0.0218
 7432TIP3   OH222238   4.074   7.804   6.691 -0.2934  0.3724 -0.2340
 7432TIP3    H122239   4.022   7.805   6.771 -1.3986  0.6869 -0.9464
 7432TIP3    H222240   4.011   7.814   6.620  0.5712 -0.8846 -1.2200
 7433TIP3   OH222241   1.071   6.590   0.279 -0.1313  0.1364 -0.2464
 7433TIP3    H122242   1.121   6.654   0.228  0.1463 -1.1217 -1.6072
 7433TIP3    H222243   1.023   6.540   0.214 -1.6053 -0.0232  0.9027
 7434TIP3   OH222244   7.481   0.391   6.492  0.3544 -0.2341 -0.2232
 7434TIP3    H122245   7.431   0.310   6.505  0.4916 -0.3524 -0.4244
 7434TIP3    H222246   7.555   0.383   6.551  0.4128 -0.2944 -0.3036
 7435TIP3   OH222247   1.264   4.261   1.083  0.0785 -0.0962 -0.4562
 7435TIP3    H122248   1.275   4.257   0.988 -0.9613  0.9566 -0.6441
 7435TIP3    H222249   1.178   4.222   1.099 -0.7774  1.8247 -0.2051
 7436TIP3   OH222250   1.136   1.332   1.495  0.0956 -0.4073 -0.4312
 7436TIP3    H122251   1.152   1.255   1.440 -0.0195 -1.1404  0.5161
 7436TIP3    H222252   1.080   1.299   1.566  0.1906  0.5125  0.0886
 7437TIP3   OH222253   1.668   2.892   5.564 -0.0836 -0.2873  0.0036
 7437TIP3    H122254   1.613   2.942   5.504 -1.7155 -1.5157  0.3953
 7437TIP3    H222255   1.742   2.863   5.510 -0.8431 -0.2781 -1.0757
 7438TIP3   OH222256   1.829   2.381   1.556 -0.0341  0.3764  0.0574
 7438TIP3    H122257   1.742   2.346   1.543  0.3194 -0.5385  0.1295
 7438TIP3    H222258   1.839   2.389   1.651  0.1936 -0.1337  0.0801
 7439TIP3   OH222259   5.292   4.390   2.922  0.4046  0.1308 -0.2435
 7439TIP3    H122260   5.386   4.404   2.916  0.6308 -0.5918  1.2496
 7439TIP3    H222261   5.275   4.318   2.861  0.9939 -0.3913  0.1899
 7440TIP3   OH222262   6.764   0.037   4.038 -0.2366 -0.4955 -0.3554
 7440TIP3    H122263   6.772   0.129   4.012  2.3108 -0.5999 -0.2350
 7440TIP3    H222264   6.750  -0.010   3.955 -0.0947 -0.1172 -0.5968
 7441TIP3   OH222265   7.873   5.648   5.197  0.6685  0.1823 -0.0704
 7441TIP3    H122266   7.916   5.675   5.278  1.0250 -0.9675  0.1350
 7441TIP3    H222267   7.782   5.675   5.208  0.8485  0.5823  0.4538
 7442TIP3   OH222268   4.400   0.528   0.195 -0.0359 -0.8097  0.0378
 7442TIP3    H122269   4.395   0.612   0.242  2.1271 -0.5258 -0.1259
 7442TIP3    H222270   4.309   0.503   0.182 -0.7403  0.5875  1.7481
 7443TIP3   OH222271   4.931   7.660   2.666  0.2498 -0.0569 -0.7079
 7443TIP3    H122272   5.002   7.671   2.603  1.3687  2.9071  0.8679
 7443TIP3    H222273   4.884   7.744   2.664 -0.1594 -0.1520  1.7641
 7444TIP3   OH222274   1.694   4.170   0.241 -0.2974  0.1766  0.1123
 7444TIP3    H122275   1.616   4.147   0.191 -0.3268  0.5961 -0.0391
 7444TIP3    H222276   1.744   4.227   0.182  0.0086  0.0989  0.2958
 7445TIP3   OH222277   7.207   5.508   6.519 -0.1073 -0.2795 -0.2594
 7445TIP3    H122278   7.197   5.540   6.609 -2.8327 -1.2105 -0.1221
 7445TIP3    H222279   7.213   5.588   6.466  0.1277  0.3090  0.6337
 7446TIP3   OH222280   7.295   2.167   3.871 -0.1002  0.2723  0.2601
 7446TIP3    H122281   7.217   2.206   3.909 -1.0164 -0.9597 -0.3001
 7446TIP3    H222282   7.302   2.207   3.784  0.4632  1.0987  0.6739
 7447TIP3   OH222283   1.472   2.022   4.420  0.2457 -0.1092  0.0166
 7447TIP3    H122284   1.482   2.106   4.375  1.6018 -0.5120 -0.4773
 7447TIP3    H222285   1.455   2.046   4.511  0.3564  0.7102 -0.1670
 7448TIP3   OH222286   0.207   4.442   1.222  0.2654 -0.4684 -0.3694
 7448TIP3    H122287   0.221   4.438   1.317 -1.6231  0.3164 -0.0281
 7448TIP3    H222288   0.125   4.489   1.211  1.4109  1.1952 -2.5046
 7449TIP3   OH222289   1.466   6.905   0.693 -0.0339  0.1754  0.0962
 7449TIP3    H122290   1.421   6.873   0.615 -0.5641 -0.6138  0.7198
 7449TIP3    H222291   1.526   6.972   0.660  0.9418 -1.2711 -1.2182
 7450TIP3   OH222292   0.220   7.735   0.708 -0.5179  0.0305 -0.0577
 7450TIP3    H122293   0.242   7.661   0.763  0.0961  0.5422  0.3952
 7450TIP3    H222294   0.232   7.812   0.764  2.1390  0.7399 -1.4316
 7451TIP3   OH222295   4.738   3.759   0.670  0.6104  0.1281  0.2296
 7451TIP3    H122296   4.802   3.799   0.729  0.8912 -0.8545  0.6087
 7451TIP3    H222297   4.656   3.804   0.688  0.9105  0.4886  0.6880
 7452TIP3   OH222298   6.790   2.370   3.879 -0.5256  0.0833 -0.0689
 7452TIP3    H122299   6.701   2.371   3.914 -0.3950 -0.0619  0.2718
 7452TIP3    H222300   6.782   2.329   3.793 -0.4937 -1.7639  0.7746
 7453TIP3   OH222301   1.511   3.247   3.647  0.0453 -0.1712 -0.1445
 7453TIP3    H122302   1.586   3.305   3.659 -0.4268  0.5715 -0.7540
 7453TIP3    H222303   1.478   3.232   3.735  0.9711 -0.5998  0.1434
 7454TIP3   OH222304   8.096   2.120   3.775  0.2109 -0.0985  0.1648
 7454TIP3    H122305   8.107   2.093   3.684  0.9164  0.1908  0.1581
 7454TIP3    H222306   8.017   2.074   3.804 -1.5421  1.7837 -1.3345
 7455TIP3   OH222307   4.660   4.506   3.124  0.1832 -0.4606  0.7747
 7455TIP3    H122308   4.591   4.571   3.137 -1.0315 -1.7416  0.9722
 7455TIP3    H222309   4.653   4.481   3.032  0.3602 -0.6315  0.8055
 7456TIP3   OH222310   6.208   6.125   1.790  0.1303  0.0486  0.0079
 7456TIP3    H122311   6.256   6.120   1.707  1.5375  1.8201  0.6479
 7456TIP3    H222312   6.159   6.044   1.794  2.6265 -1.6384 -1.0021
 7457TIP3   OH222313   6.117   5.396   5.289 -0.2298 -0.5678 -0.1795
 7457TIP3    H122314   6.196   5.344   5.272 -0.3794 -0.6757 -0.5383
 7457TIP3    H222315   6.050   5.331   5.310  0.7269 -0.4250  4.4075
 7458TIP3   OH222316   1.123   6.077   4.813 -0.1443 -0.3460  0.4460
 7458TIP3    H122317   1.153   6.036   4.732 -0.1573 -2.2652  1.3461
 7458TIP3    H222318   1.035   6.108   4.794  0.0503 -0.3021 -0.4102
 7459TIP3   OH222319   1.147   1.960   1.256  0.2242  0.5137  0.0841
 7459TIP3    H122320   1.183   1.978   1.169  0.0963 -0.5417 -0.2061
 7459TIP3    H222321   1.130   2.046   1.294 -1.0228  1.0042 -1.4759
 7460TIP3   OH222322   6.354   1.810   3.088 -0.1188 -0.1298  0.1692
 7460TIP3    H122323   6.386   1.808   2.998  2.4200 -3.0814  0.9691
 7460TIP3    H222324   6.281   1.747   3.089  1.3229 -1.8643  0.5551
 7461TIP3   OH222325   8.164   6.776   5.431  0.2311 -0.1338  0.7911
 7461TIP3    H122326   8.107   6.702   5.451 -2.7958  0.9925 -2.6142
 7461TIP3    H222327   8.222   6.743   5.363 -0.1897  0.2097  0.2583
 7462TIP3   OH222328   7.780   0.985   1.204  0.4539  0.8064 -0.6098
 7462TIP3    H122329   7.691   0.979   1.238  0.7395  1.5246  0.3022
 7462TIP3    H222330   7.794   0.902   1.158 -0.5119  0.4904 -0.3497
 7463TIP3   OH222331   2.182   6.529   0.295 -0.5919 -0.3770  0.0692
 7463TIP3    H122332   2.245   6.457   0.298 -1.1448 -0.8508  0.4451
 7463TIP3    H222333   2.207   6.585   0.368  1.0728  0.8861 -1.3835
 7464TIP3   OH222334   6.544   2.179   0.873 -0.2498  0.7404  0.0772
 7464TIP3    H122335   6.552   2.261   0.922 -3.3513 -0.2629  2.6039
 7464TIP3    H222336   6.612   2.123   0.909 -0.7889  0.9078  1.4322
 7465TIP3   OH222337   2.040   2.436   2.493  0.6581 -0.9458  0.2866
 7465TIP3    H122338   2.019   2.501   2.425 -0.4573 -0.1461  1.3746
 7465TIP3    H222339   1.956   2.414   2.533  1.5150  0.9080  3.4588
 7466TIP3   OH222340   5.870   0.485   6.201  0.2152  0.4312 -0.2868
 7466TIP3    H122341   5.842   0.562   6.152 -2.4999 -1.0388 -1.2372
 7466TIP3    H222342   5.818   0.488   6.282  0.6521 -0.0222  0.0174
 7467TIP3   OH222343   5.219   3.057   1.803  0.6617 -0.1310 -0.6819
 7467TIP3    H122344   5.239   3.125   1.738  0.0520 -0.3047 -1.0585
 7467TIP3    H222345   5.156   3.098   1.861  2.5249  0.6443  0.9047
 7468TIP3   OH222346   5.695   7.136   5.862 -0.8058  0.6380 -0.3498
 7468TIP3    H122347   5.651   7.202   5.916 -0.7808 -0.3568  0.9076
 7468TIP3    H222348   5.678   7.053   5.905  0.9908  0.0441 -0.6887
 7469TIP3   OH222349   3.705   7.078   3.009  0.0680 -0.5265 -0.5772
 7469TIP3    H122350   3.651   7.134   3.064  0.7300  0.1562 -0.6138
 7469TIP3    H222351   3.728   7.004   3.066 -1.1368 -0.9969 -0.6548
 7470TIP3   OH222352   1.885   2.853   5.429 -0.3163 -0.5792  0.2303
 7470TIP3    H122353   1.953   2.819   5.487  0.1877  0.2957  0.1650
 7470TIP3    H222354   1.928   2.924   5.381 -1.8096  1.3507  1.6266
 7471TIP3   OH222355   0.768   4.331   0.305 -0.1433 -0.3116  0.0726
 7471TIP3    H122356   0.807   4.395   0.365 -0.2623 -1.4941  1.4604
 7471TIP3    H222357   0.844   4.290   0.262 -0.0900  1.7532 -1.9965
 7472TIP3   OH222358   2.972   6.650   3.757  0.0032  0.1355  0.2202
 7472TIP3    H122359   3.002   6.733   3.796 -0.0725 -1.0214  2.9724
 7472TIP3    H222360   3.048   6.592   3.764 -0.6645 -0.7067  0.4910
 7473TIP3   OH222361   2.206   4.569   0.729 -0.4010  0.2982 -0.8073
 7473TIP3    H122362   2.204   4.585   0.635  1.6956 -0.9522 -1.1198
 7473TIP3    H222363   2.289   4.608   0.758  0.9028 -2.6422 -0.2217
 7474TIP3   OH222364   4.871   2.156   0.420  0.1104  0.2419 -0.9952
 7474TIP3    H122365   4.815   2.234   0.422  0.1147  0.2657 -1.5764
 7474TIP3    H222366   4.913   2.154   0.506 -1.3590 -0.1994 -0.2541
 7475TIP3   OH222367   6.838   3.476   4.567  0.1449 -0.1647  0.0169
 7475TIP3    H122368   6.844   3.487   4.472  0.1495 -0.4435 -0.0182
 7475TIP3    H222369   6.923   3.438   4.591  0.4678  0.6921  0.2525
 7476TIP3   OH222370   4.944   2.578   4.392 -0.2749  0.0655 -0.3718
 7476TIP3    H122371   5.040   2.588   4.394 -0.2610  0.2424 -1.5751
 7476TIP3    H222372   4.929   2.499   4.341 -0.7916  0.4304 -0.7967
 7477TIP3   OH222373   0.987   7.758   0.327  0.4040  0.0887 -0.4882
 7477TIP3    H122374   0.986   7.787   0.418  0.8646 -2.0693  0.2637
 7477TIP3    H222375   1.074   7.781   0.295  1.1938 -1.4043  0.4650
 7478TIP3   OH222376   7.265   3.219   0.635 -0.0451 -0.6631 -0.0451
 7478TIP3    H122377   7.339   3.160   0.625  0.2832 -0.3386  0.4192
 7478TIP3    H222378   7.216   3.185   0.710  1.6276  1.1330  2.0153
 7479TIP3   OH222379   0.581   0.382   1.013  0.3149  0.0748 -0.0199
 7479TIP3    H122380   0.548   0.298   0.982 -1.1765  1.4383 -2.5506
 7479TIP3    H222381   0.513   0.414   1.072  1.8352 -1.2839  2.6194
 7480TIP3   OH222382   7.424   5.994   3.921  0.5833 -0.0395 -0.1537
 7480TIP3    H122383   7.372   5.969   3.998 -2.0035  1.6346 -1.2375
 7480TIP3    H222384   7.389   6.079   3.895  3.5100  0.9235 -1.3871
 7481TIP3   OH222385   1.064   1.659   3.229 -0.4977 -0.2415 -0.2027
 7481TIP3    H122386   1.078   1.736   3.284  0.3928 -1.4191  1.3000
 7481TIP3    H222387   0.972   1.662   3.206 -0.7809  0.5597  0.9622
 7482TIP3   OH222388   7.966   1.390   4.310 -0.1545 -0.1666 -0.1640
 7482TIP3    H122389   7.889   1.361   4.262  0.8037 -0.6499 -1.4953
 7482TIP3    H222390   8.035   1.396   4.243  0.8537  0.6773  0.8956
 7483TIP3   OH222391   5.250   5.775   6.613  0.2725 -0.1905  0.3757
 7483TIP3    H122392   5.242   5.828   6.534  0.5517 -0.3431  0.2398
 7483TIP3    H222393   5.189   5.703   6.600  0.4366 -0.3046  0.2199
 7484TIP3   OH222394   6.871   2.003   4.434 -0.4230 -0.3867 -0.0224
 7484TIP3    H122395   6.886   2.095   4.414  3.7675 -0.9720 -0.4851
 7484TIP3    H222396   6.875   1.959   4.349  0.5724 -1.2315  0.4383
 7485TIP3   OH222397   1.756   5.300   0.832 -0.1294  0.7887  0.0964
 7485TIP3    H122398   1.828   5.288   0.894 -0.7055  2.3709  1.1309
 7485TIP3    H222399   1.700   5.366   0.873 -1.4292  0.6272 -1.3412
 7486TIP3   OH222400   2.441   0.215   1.379 -0.6874 -0.2942 -0.0766
 7486TIP3    H122401   2.478   0.296   1.343 -3.2789  0.0818 -2.1466
 7486TIP3    H222402   2.405   0.241   1.463  0.5604  0.1181  0.3610
 7487TIP3   OH222403   6.490   6.925   3.999  0.1170  0.7193 -0.0715
 7487TIP3    H122404   6.433   6.861   4.043  1.7915  0.7002  2.2050
 7487TIP3    H222405   6.521   6.879   3.921 -0.4677 -0.4192  0.3389
 7488TIP3   OH222406   1.294   3.718   0.676  0.2037 -0.2230 -0.4074
 7488TIP3    H122407   1.286   3.796   0.732  0.6886 -0.6434  0.2660
 7488TIP3    H222408   1.370   3.736   0.621  0.0484 -0.0363 -0.5638
 7489TIP3   OH222409   2.787   3.416   6.321  0.1209 -0.0890  0.1948
 7489TIP3    H122410   2.752   3.327   6.321 -2.0628  0.7117  0.3961
 7489TIP3    H222411   2.800   3.437   6.229  0.0057 -0.3854  0.1109
 7490TIP3   OH222412   1.944   5.789   4.040 -0.9588  0.1812 -0.6098
 7490TIP3    H122413   1.971   5.866   3.990 -0.9089  0.5298 -0.0474
 7490TIP3    H222414   1.987   5.716   3.996  2.6141  0.8561  1.3815
 7491TIP3   OH222415   5.281   0.583   5.349 -0.5736 -0.3915  0.1217
 7491TIP3    H122416   5.235   0.665   5.330  0.2911 -0.4910 -3.0283
 7491TIP3    H222417   5.359   0.611   5.398  0.0932  0.8469 -1.5300
 7492TIP3   OH222418   3.306   0.946   1.199 -0.5198  0.5860  0.0190
 7492TIP3    H122419   3.381   0.922   1.253 -0.2615  0.3590 -0.4377
 7492TIP3    H222420   3.238   0.883   1.224 -0.7145  1.0904  0.7747
 7493TIP3   OH222421   7.362   4.439   6.512  0.4042  0.0681 -0.5078
 7493TIP3    H122422   7.451   4.428   6.547  0.7254 -1.4366 -1.6889
 7493TIP3    H222423   7.314   4.363   6.543 -0.8538  1.4022  1.0374
 7494TIP3   OH222424   5.894   4.775   6.002  0.2664  0.5233 -0.1682
 7494TIP3    H122425   5.845   4.707   5.957  1.6788 -0.0775 -0.8801
 7494TIP3    H222426   5.983   4.739   6.009  0.0981  0.5140  3.2725
 7495TIP3   OH222427   2.565   5.147   6.066 -0.4757 -0.0279 -0.0644
 7495TIP3    H122428   2.490   5.175   6.013 -0.7421 -1.1429 -0.3156
 7495TIP3    H222429   2.553   5.052   6.075  0.7428 -0.1729  0.1632
 7496TIP3   OH222430   7.247   5.948   1.800  0.0066  0.0852  0.3554
 7496TIP3    H122431   7.217   5.857   1.801  1.0153 -0.2623  1.0485
 7496TIP3    H222432   7.172   5.998   1.832 -0.3857 -0.5586  0.4817
 7497TIP3   OH222433   4.144   7.343   3.358 -0.3360  0.3577  0.2807
 7497TIP3    H122434   4.198   7.421   3.372 -1.0276  1.2951 -1.8271
 7497TIP3    H222435   4.093   7.335   3.438 -0.6391  2.4162  0.3620
 7498TIP3   OH222436   2.635   6.030   4.609 -0.6029 -0.4987  0.0021
 7498TIP3    H122437   2.593   5.944   4.610 -1.5214 -0.0788 -0.8129
 7498TIP3    H222438   2.667   6.040   4.519  1.5927 -0.9370  0.6621
 7499TIP3   OH222439   7.270   2.410   0.134 -0.4352  0.1352 -0.4181
 7499TIP3    H122440   7.179   2.385   0.120 -0.9931  1.2962  0.8736
 7499TIP3    H222441   7.273   2.503   0.111  0.3790  0.1425 -0.3028
 7500TIP3   OH222442   7.334   4.094   2.142  0.4520  0.5608 -0.1083
 7500TIP3    H122443   7.342   4.078   2.048 -0.4108 -0.3613 -0.0420
 7500TIP3    H222444   7.271   4.166   2.149  1.0238  1.0862 -0.2462
 7501TIP3   OH222445   2.890   6.310   0.835 -0.3090 -0.0996  0.0972
 7501TIP3    H122446   2.945   6.334   0.910 -1.6818 -2.1977  1.9349
 7501TIP3    H222447   2.831   6.384   0.825 -0.4565  0.0155  1.5054
 7502TIP3   OH222448   3.413   2.082   2.777 -0.3926  0.5198  0.1530
 7502TIP3    H122449   3.448   2.025   2.845  1.2598  0.8341 -0.4083
 7502TIP3    H222450   3.421   2.170   2.813 -0.3132  0.6182 -0.1041
 7503TIP3   OH222451   0.803   1.092   5.625  0.3861  0.3768  0.1613
 7503TIP3    H122452   0.724   1.121   5.580  1.7635  0.5242 -2.4101
 7503TIP3    H222453   0.867   1.080   5.554  2.0518 -1.7953  1.8792
 7504TIP3   OH222454   5.544   7.317   6.460  0.8064  0.3490 -0.1760
 7504TIP3    H122455   5.596   7.392   6.431  0.3225  0.3869 -0.9703
 7504TIP3    H222456   5.495   7.350   6.536  3.2344 -0.1861  1.7819
 7505TIP3   OH222457   3.974   4.013   6.697 -0.5456  0.5288  0.4462
 7505TIP3    H122458   4.019   3.978   6.774 -1.8547 -0.2270  0.9053
 7505TIP3    H222459   3.978   4.108   6.709  0.4626  0.4660  0.7267
 7506TIP3   OH222460   5.386   3.087   4.823 -0.0022 -0.2033  0.6274
 7506TIP3    H122461   5.426   3.174   4.824 -1.3869  0.4504  1.4384
 7506TIP3    H222462   5.425   3.042   4.898  1.1071 -0.4927 -0.0979
 7507TIP3   OH222463   2.215   1.806   1.443  0.3322  0.0383 -0.0541
 7507TIP3    H122464   2.263   1.782   1.364 -0.7796  2.3166 -1.5362
 7507TIP3    H222465   2.224   1.901   1.449 -0.2669  0.0275  2.1603
 7508TIP3   OH222466   6.885   2.223   4.622  0.0225  0.1089  0.1784
 7508TIP3    H122467   6.940   2.226   4.544  1.6103 -1.2899  1.1699
 7508TIP3    H222468   6.906   2.139   4.662 -3.2956 -0.7690  0.3377
 7509TIP3   OH222469   4.030   1.283   3.818  0.0284 -0.3531 -0.0803
 7509TIP3    H122470   3.955   1.226   3.799 -0.3669 -0.3643  1.3901
 7509TIP3    H222471   4.057   1.259   3.907 -0.8818  2.4791  1.0953
 7510TIP3   OH222472   2.549   4.326   1.422 -0.3195  0.5284  0.3608
 7510TIP3    H122473   2.523   4.351   1.334  0.2756 -0.2688 -0.0610
 7510TIP3    H222474   2.577   4.407   1.464 -0.9729  0.9701 -0.0465
 7511TIP3   OH222475   5.072   7.403   5.097 -0.0184  0.5150 -0.3759
 7511TIP3    H122476   5.037   7.348   5.167  0.4419 -1.0749 -1.3486
 7511TIP3    H222477   5.099   7.484   5.142 -2.5340  0.8137  0.7922
 7512TIP3   OH222478   2.604   5.953   5.736 -0.1209 -0.3077  0.3104
 7512TIP3    H122479   2.588   5.940   5.829  1.7354  1.1449  0.8909
 7512TIP3    H222480   2.672   5.889   5.714 -0.6480 -0.7349 -0.0775
 7513TIP3   OH222481   2.547   0.285   3.533  0.0951 -0.0480 -0.2742
 7513TIP3    H122482   2.568   0.250   3.447 -0.8838 -0.0660 -0.5224
 7513TIP3    H222483   2.475   0.347   3.517 -1.0875 -1.1184  0.6951
 7514TIP3   OH222484   1.767   7.094   4.160  0.6963  0.5833 -0.0003
 7514TIP3    H122485   1.829   7.161   4.129 -0.3541  1.0374 -1.2173
 7514TIP3    H222486   1.681   7.131   4.142  0.0575 -0.1189  1.5021
 7515TIP3   OH222487   7.585   7.035   6.174  0.3458  0.2929  0.0830
 7515TIP3    H122488   7.517   6.980   6.134 -0.4977  1.8407 -0.7082
 7515TIP3    H222489   7.666   7.005   6.133 -0.2483  0.4212 -1.2635
 7516TIP3   OH222490   4.031   6.636   5.573 -0.3587 -0.5953  0.6766
 7516TIP3    H122491   3.995   6.699   5.635 -0.3980 -0.5338  0.5917
 7516TIP3    H222492   3.956   6.587   5.542 -0.4174 -0.2442  0.2495
 7517TIP3   OH222493   3.675   4.077   5.476  0.1176  0.1480 -0.0979
 7517TIP3    H122494   3.670   4.077   5.571 -0.8577 -0.7247 -0.1291
 7517TIP3    H222495   3.756   4.030   5.456 -0.9831 -2.0893  0.3086
 7518TIP3   OH222496   3.535   6.999   0.035 -0.0201  0.3625 -0.0034
 7518TIP3    H122497   3.451   6.990  -0.011  0.2746  2.2043 -1.0375
 7518TIP3    H222498   3.597   6.948  -0.018 -0.3162 -0.2781  0.2641
 7519TIP3   OH222499   2.306   2.905   1.161 -0.3444 -0.1479 -0.5702
 7519TIP3    H122500   2.264   2.894   1.075 -0.6519  1.2098 -0.6114
 7519TIP3    H222501   2.302   2.999   1.178  0.2765 -0.3257  0.6598
 7520TIP3   OH222502   2.490   2.961   6.088 -0.1228  0.2968  0.3885
 7520TIP3    H122503   2.423   3.029   6.081  0.8648  1.2109 -0.5863
 7520TIP3    H222504   2.544   2.973   6.009  0.2908 -1.3881  0.3827
 7521TIP3   OH222505   0.739   5.133   3.581  0.7370  0.0695 -0.4808
 7521TIP3    H122506   0.825   5.135   3.538  1.5011 -1.0648  0.8832
 7521TIP3    H222507   0.713   5.224   3.587  1.7329  0.4201 -1.1463
 7522TIP3   OH222508   3.753   4.738   5.503 -0.1735 -0.0491  0.2282
 7522TIP3    H122509   3.788   4.773   5.585 -0.1131  1.3053 -0.3469
 7522TIP3    H222510   3.665   4.775   5.496  0.5634  1.6161 -1.2914
 7523TIP3   OH222511   0.792   1.840   4.442  0.0683 -0.6366 -0.3730
 7523TIP3    H122512   0.803   1.840   4.347  1.8588  1.5946 -0.2503
 7523TIP3    H222513   0.697   1.839   4.455 -0.2215 -2.7572 -2.0805
 7524TIP3   OH222514   3.548   6.420   0.889  0.0150 -0.1668  0.1186
 7524TIP3    H122515   3.571   6.444   0.799 -0.5989  0.2916  0.0797
 7524TIP3    H222516   3.621   6.453   0.941 -0.3797  0.9916 -0.0379
 7525TIP3   OH222517   2.845   3.605   4.816 -0.1407 -0.0126  0.1295
 7525TIP3    H122518   2.824   3.696   4.833 -1.1937  0.0047 -1.1041
 7525TIP3    H222519   2.808   3.557   4.891 -0.0289  0.5103  0.5249
 7526TIP3   OH222520   1.606   1.956   2.816  0.2616  0.0671  0.1396
 7526TIP3    H122521   1.679   1.894   2.804  0.9887  0.9739 -0.1944
 7526TIP3    H222522   1.610   2.014   2.740  0.0844  1.0228  0.8452
 7527TIP3   OH222523   0.653   2.651   0.639  0.1575 -0.2112 -0.5040
 7527TIP3    H122524   0.573   2.670   0.689 -1.2907 -1.5240 -2.2349
 7527TIP3    H222525   0.662   2.726   0.579  1.0017  0.5671  0.5400
 7528TIP3   OH222526   6.882   2.893   2.983 -0.3456  0.7550 -0.3098
 7528TIP3    H122527   6.897   2.868   2.892 -0.3711 -1.2847  0.2063
 7528TIP3    H222528   6.803   2.947   2.980 -0.5359  0.4399 -1.4610
 7529TIP3   OH222529   7.639   1.685   1.336  0.0316  0.0364  0.6621
 7529TIP3    H122530   7.618   1.614   1.397  0.3331  1.3057  2.3276
 7529TIP3    H222531   7.728   1.712   1.360  0.4641  0.0605 -0.8809
 7530TIP3   OH222532   3.616   3.880   6.204  0.1638  0.2462 -0.6293
 7530TIP3    H122533   3.620   3.975   6.191  1.2685  0.4393  0.8429
 7530TIP3    H222534   3.695   3.860   6.254  0.4394 -1.6140 -1.7454
 7531TIP3   OH222535   4.817   3.816   5.754  0.3240 -0.3686 -0.1028
 7531TIP3    H122536   4.791   3.899   5.794 -0.1107 -0.6715  0.2448
 7531TIP3    H222537   4.735   3.769   5.741  0.5419 -0.6260 -0.5715
 7532TIP3   OH222538   3.342   3.772   3.611  0.4924 -0.2288  0.2674
 7532TIP3    H122539   3.401   3.715   3.660 -0.1891 -1.6811 -0.5381
 7532TIP3    H222540   3.259   3.724   3.607 -1.3923  2.4335  2.7961
 7533TIP3   OH222541   7.480   5.961   2.139 -0.1822 -0.5340 -0.2635
 7533TIP3    H122542   7.484   5.976   2.045 -0.3805 -1.7019 -0.4694
 7533TIP3    H222543   7.488   6.048   2.178  0.0501 -0.0607 -1.3520
 7534TIP3   OH222544   3.764   0.636   6.096  0.3734 -0.1201  0.1857
 7534TIP3    H122545   3.803   0.549   6.095  1.8910  0.5113  1.2952
 7534TIP3    H222546   3.672   0.621   6.072 -0.1853 -2.4617  3.1584
 7535TIP3   OH222547   5.326   4.965   3.891 -0.5417 -0.3250 -0.0741
 7535TIP3    H122548   5.385   4.970   3.815  0.1310  0.1370  0.4677
 7535TIP3    H222549   5.249   5.016   3.865  0.0480  0.5622 -0.1432
 7536TIP3   OH222550   0.043   1.166   2.832  0.1148 -0.1871  0.0320
 7536TIP3    H122551   0.056   1.097   2.897  0.5394  1.9332  2.3803
 7536TIP3    H222552   0.126   1.213   2.829 -0.8537  1.6668  0.3905
 7537TIP3   OH222553   4.007   1.877   0.879 -0.1907  0.6765  0.3058
 7537TIP3    H122554   4.022   1.782   0.879 -2.7640  0.2026  0.8158
 7537TIP3    H222555   3.989   1.898   0.970 -1.5932  1.2583 -0.0788
 7538TIP3   OH222556   3.432   1.583   6.763  0.1551  0.2290  0.0190
 7538TIP3    H122557   3.511   1.636   6.758  0.7067 -0.5504  0.3677
 7538TIP3    H222558   3.431   1.533   6.682  1.9108 -2.3389  1.4187
 7539TIP3   OH222559   4.212   1.329   1.089 -0.0146 -0.1874 -0.2353
 7539TIP3    H122560   4.263   1.403   1.122 -2.3281  1.0869  0.7551
 7539TIP3    H222561   4.252   1.252   1.128  1.4587  0.6983  0.0552
 7540TIP3   OH222562   4.438   1.083   2.679 -0.1755 -0.0835  0.4465
 7540TIP3    H122563   4.386   1.163   2.675 -0.2912 -0.1859 -0.4090
 7540TIP3    H222564   4.512   1.100   2.621 -1.6773 -1.5917 -2.1246
 7541TIP3   OH222565   6.668   0.093   5.960 -0.3465 -0.1113 -0.4951
 7541TIP3    H122566   6.674   0.009   6.005 -0.7041  0.3651  0.4561
 7541TIP3    H222567   6.741   0.144   5.994 -0.1834  0.0072 -1.0057
 7542TIP3   OH222568   3.644   6.501   0.633  0.0293  0.0980  0.1181
 7542TIP3    H122569   3.739   6.513   0.628 -0.2786  2.5108 -1.9207
 7542TIP3    H222570   3.621   6.463   0.548 -1.2397  4.0895 -1.5277
 7543TIP3   OH222571   0.872   2.197   4.440  0.6301 -0.7585  0.4716
 7543TIP3    H122572   0.857   2.188   4.534  0.8541 -1.1184  0.4746
 7543TIP3    H222573   0.940   2.132   4.420  0.3810 -0.8819  0.0119
 7544TIP3   OH222574   0.500   1.197   2.718 -0.9184 -0.3873 -0.0360
 7544TIP3    H122575   0.430   1.243   2.765 -0.3233 -1.1527  1.6528
 7544TIP3    H222576   0.491   1.106   2.744  0.6790 -0.5125  0.1644
 7545TIP3   OH222577   5.289   0.936   6.692  0.7907  0.4737 -0.1273
 7545TIP3    H122578   5.213   0.877   6.691  1.2178 -0.0744 -0.5452
 7545TIP3    H222579   5.313   0.947   6.600 -0.1911  2.5116 -0.1966
 7546TIP3   OH222580   0.719   7.276   3.186 -0.0538  0.1154 -0.0835
 7546TIP3    H122581   0.686   7.206   3.129  0.9376  0.2562 -0.8485
 7546TIP3    H222582   0.801   7.304   3.146 -0.0195  1.1665  0.6657
 7547TIP3   OH222583   3.819   1.369   3.541  0.2124 -0.1927  0.4815
 7547TIP3    H122584   3.777   1.324   3.615 -2.3209  2.6338  0.9479
 7547TIP3    H222585   3.855   1.449   3.578  2.7783 -0.6922 -0.6829
 7548TIP3   OH222586   0.892   6.132   2.617 -0.1181 -0.2734 -0.5691
 7548TIP3    H122587   0.976   6.176   2.613 -0.0409 -0.5003 -1.7309
 7548TIP3    H222588   0.828   6.199   2.589 -0.1845 -0.4306 -0.7981
 7549TIP3   OH222589   1.769   3.754   5.605  0.1507 -0.1083  0.0886
 7549TIP3    H122590   1.832   3.777   5.674  1.1633  0.0755 -0.8616
 7549TIP3    H222591   1.782   3.660   5.591  1.5286  0.2380 -1.3157
 7550TIP3   OH222592   1.487   2.712   5.017  0.5586 -0.6633  0.2352
 7550TIP3    H122593   1.558   2.648   5.025 -0.4421 -1.7613  0.7101
 7550TIP3    H222594   1.466   2.736   5.107  0.4804 -0.1550  0.0856
 7551TIP3   OH222595   6.911   5.925   2.835 -0.3427 -0.4136 -0.4493
 7551TIP3    H122596   6.898   5.955   2.925 -1.7663 -0.1016 -0.7360
 7551TIP3    H222597   6.828   5.882   2.812  0.1968 -0.9627 -1.4293
 7552TIP3   OH222598   6.804   7.135   5.319  0.0775  0.4319  0.2085
 7552TIP3    H122599   6.716   7.167   5.301  0.3905  1.2048  0.0021
 7552TIP3    H222600   6.830   7.090   5.239 -0.7634 -1.3003  0.8701
 7553TIP3   OH222601   7.030   0.387   3.868  0.1390  0.3494  0.8274
 7553TIP3    H122602   7.071   0.466   3.833  1.1838 -0.2236  0.6911
 7553TIP3    H222603   6.982   0.416   3.945  0.1692  1.1818  0.5410
 7554TIP3   OH222604   1.249   1.875   2.070  0.2021  0.1114 -0.7442
 7554TIP3    H122605   1.262   1.925   1.989 -0.0957  1.2008 -0.1296
 7554TIP3    H222606   1.325   1.816   2.074 -0.4702 -0.9795 -2.5267
 7555TIP3   OH222607   6.990   3.437   1.453 -0.1148 -0.2656  0.1930
 7555TIP3    H122608   6.966   3.480   1.372 -0.5580 -2.1929 -0.7505
 7555TIP3    H222609   6.911   3.441   1.507 -0.4104 -0.6042 -0.2121
 7556TIP3   OH222610   8.064   5.277   4.641 -0.1505  0.0276  0.2383
 7556TIP3    H122611   8.007   5.314   4.573 -1.8503 -1.0230  1.0264
 7556TIP3    H222612   8.052   5.183   4.633  0.3421 -0.1466  1.4008
 7557TIP3   OH222613   4.112   1.218   3.369  0.6023  0.6865 -0.2335
 7557TIP3    H122614   4.158   1.301   3.365  1.7454  0.1721  1.1573
 7557TIP3    H222615   4.175   1.157   3.408 -0.6816 -0.4643  0.1555
 7558TIP3   OH222616   5.416   2.229   6.408 -0.3435  0.2977 -0.0959
 7558TIP3    H122617   5.403   2.254   6.499  1.5685  0.8918  0.0517
 7558TIP3    H222618   5.348   2.163   6.391  0.3666 -1.1596  2.2906
 7559TIP3   OH222619   0.797   6.303   1.389  0.1335 -0.3697  0.1212
 7559TIP3    H122620   0.822   6.299   1.297 -1.9496  2.2096 -0.6949
 7559TIP3    H222621   0.701   6.296   1.388  0.1892 -2.6741  2.3567
 7560TIP3   OH222622   2.620   2.719   5.702 -0.3432 -0.3355  0.0595
 7560TIP3    H122623   2.567   2.798   5.714  0.8111  0.6794 -1.2493
 7560TIP3    H222624   2.565   2.661   5.649 -0.3222  0.5643 -0.9917
 7561TIP3   OH222625   7.833   6.884   1.304  0.6310  0.1829  0.0685
 7561TIP3    H122626   7.787   6.832   1.369 -0.3711  1.4090  0.3910
 7561TIP3    H222627   7.922   6.848   1.303  0.6490  0.0381  2.0362
 7562TIP3   OH222628   4.483   0.965   0.713 -0.4647  0.2061  0.9292
 7562TIP3    H122629   4.533   1.010   0.644 -2.6056  0.4682 -0.5337
 7562TIP3    H222630   4.529   0.988   0.794  2.8150 -1.0386 -0.4163
 7563TIP3   OH222631   1.270   4.862   1.913 -0.1356  0.2461  0.2113
 7563TIP3    H122632   1.353   4.877   1.867 -0.7496  0.1712 -0.9533
 7563TIP3    H222633   1.248   4.948   1.951 -0.4385  0.7449 -1.0448
 7564TIP3   OH222634   2.148   5.204   6.511 -0.0908 -0.2376  0.0876
 7564TIP3    H122635   2.140   5.110   6.528  0.8459  0.0467  2.4732
 7564TIP3    H222636   2.241   5.222   6.525 -0.1529  0.9799 -0.9089
 7565TIP3   OH222637   7.623   6.275   3.836 -0.2223  0.5199 -0.0443
 7565TIP3    H122638   7.704   6.231   3.810  0.2068  0.7806  0.8109
 7565TIP3    H222639   7.553   6.220   3.800  0.3254  0.1396 -0.5480
 7566TIP3   OH222640   4.024   6.763   4.375  0.0893 -0.0373  0.0274
 7566TIP3    H122641   3.929   6.771   4.368  0.0401 -1.2972 -1.3588
 7566TIP3    H222642   4.059   6.817   4.305  0.3309 -0.5961 -0.2918
 7567TIP3   OH222643   1.133   6.826   1.008  0.6860 -0.4234 -0.2511
 7567TIP3    H122644   1.048   6.826   0.964  0.5859  1.5055 -0.1405
 7567TIP3    H222645   1.132   6.748   1.063 -1.4757  0.1402  0.5969
 7568TIP3   OH222646   3.260   1.953   1.873  0.0917 -0.1640  0.2007
 7568TIP3    H122647   3.224   1.960   1.962  0.6379  0.6045  0.3739
 7568TIP3    H222648   3.323   1.880   1.878  0.6072  0.2991  0.6254
 7569TIP3   OH222649   2.986   7.387   6.612  0.0132 -0.1996  0.1643
 7569TIP3    H122650   3.042   7.465   6.604 -1.5596  1.0087  0.5412
 7569TIP3    H222651   2.927   7.392   6.537 -1.6427  0.2800  1.4601
 7570TIP3   OH222652  -0.026   1.722   4.035 -0.0487  0.1716  0.2046
 7570TIP3    H122653   0.047   1.768   4.077  0.4533 -0.7634  0.3709
 7570TIP3    H222654   0.016   1.667   3.969 -0.5349 -0.9315  0.8031
 7571TIP3   OH222655   6.746   3.160   1.297  0.4416  0.1405  0.6674
 7571TIP3    H122656   6.795   3.120   1.225 -0.1126 -0.8753  0.8421
 7571TIP3    H222657   6.663   3.112   1.300  0.2908  0.4322  1.7349
 7572TIP3   OH222658   5.930   6.353   0.177 -0.0102 -0.4909 -0.0278
 7572TIP3    H122659   5.840   6.327   0.161 -0.9269  2.0020  0.4872
 7572TIP3    H222660   5.945   6.426   0.116  0.2507  1.7056  2.4893
 7573TIP3   OH222661   2.941   4.468   2.263  0.2412  0.5716  0.3152
 7573TIP3    H122662   3.010   4.402   2.269 -1.0724 -0.9304 -0.4629
 7573TIP3    H222663   2.972   4.540   2.319  1.5553 -0.8419  1.4934
 7574TIP3   OH222664   6.575   3.427   0.526 -0.2414 -0.3755  0.2524
 7574TIP3    H122665   6.626   3.490   0.475  0.5429 -2.0589 -1.1156
 7574TIP3    H222666   6.561   3.471   0.610  2.0042  0.8339  0.0682
 7575TIP3   OH222667   6.819   7.726   5.159 -0.1149 -0.2454  0.2789
 7575TIP3    H122668   6.914   7.720   5.150 -0.0600  0.3392  0.4368
 7575TIP3    H222669   6.793   7.796   5.099 -0.2250  0.8493  1.5652
 7576TIP3   OH222670   4.990   1.540   3.477  0.4867 -0.4456  0.1511
 7576TIP3    H122671   4.910   1.549   3.426 -0.2044 -0.6195  1.1686
 7576TIP3    H222672   4.986   1.452   3.514  1.0652 -0.3926  0.3617
 7577TIP3   OH222673   1.302   5.167   0.023  0.2838 -0.4780  0.2822
 7577TIP3    H122674   1.279   5.082  -0.015  0.4062 -0.3293 -0.1356
 7577TIP3    H222675   1.286   5.157   0.117 -1.6950 -0.3221  0.0101
 7578TIP3   OH222676   5.267   1.132   6.365 -0.0709 -0.5053 -0.2305
 7578TIP3    H122677   5.345   1.099   6.410  0.2425 -0.5665 -0.7981
 7578TIP3    H222678   5.283   1.225   6.354 -1.0973 -0.0763  1.6470
 7579TIP3   OH222679   4.870   5.931   5.980 -0.2066  1.0081 -0.4384
 7579TIP3    H122680   4.798   5.881   6.017 -1.1607  1.8675 -1.0800
 7579TIP3    H222681   4.916   5.869   5.924 -0.8055  0.5993 -0.4923
 7580TIP3   OH222682   5.105   5.184   2.202 -0.1492 -0.4819  0.0556
 7580TIP3    H122683   5.049   5.121   2.156  0.8741 -1.6648  0.4016
 7580TIP3    H222684   5.087   5.169   2.295 -1.0162  0.8123  0.1370
 7581TIP3   OH222685   6.418   4.027   1.743  0.4021  0.1573  0.0315
 7581TIP3    H122686   6.336   4.058   1.704 -0.1940 -0.2188  0.9524
 7581TIP3    H222687   6.434   4.087   1.816 -0.1152 -0.9243  1.0716
 7582TIP3   OH222688   2.493   6.460   3.690  0.2124 -0.3266 -0.5096
 7582TIP3    H122689   2.397   6.452   3.691  0.0708  0.6763 -2.0919
 7582TIP3    H222690   2.517   6.445   3.599  1.7724 -2.3200  0.1667
 7583TIP3   OH222691   6.681   1.599   0.146 -0.0238  0.3437  0.0961
 7583TIP3    H122692   6.708   1.565   0.061  0.7242  0.8957  0.1034
 7583TIP3    H222693   6.585   1.593   0.145  0.0201 -0.4717 -0.4269
 7584TIP3   OH222694   3.794   1.487   2.527 -0.4250 -0.5172  0.2007
 7584TIP3    H122695   3.863   1.446   2.475 -0.9230 -1.1993  0.0777
 7584TIP3    H222696   3.781   1.429   2.602  2.3232  1.8464  2.7693
 7585TIP3   OH222697   4.952   2.382   2.555 -0.6970 -0.0250  0.0911
 7585TIP3    H122698   4.999   2.311   2.510 -1.4790 -0.0663 -0.6724
 7585TIP3    H222699   4.940   2.449   2.488  2.2922  2.0241  1.3939
 7586TIP3   OH222700   2.751   5.474   1.420 -0.1844 -0.2211 -0.3056
 7586TIP3    H122701   2.813   5.546   1.407  0.0888 -0.3319  0.3187
 7586TIP3    H222702   2.665   5.513   1.404  0.0139  0.0463 -0.7437
 7587TIP3   OH222703   6.985   2.036   5.019  0.2151 -0.6374  0.1151
 7587TIP3    H122704   7.005   2.029   5.113 -1.7557 -2.0644  0.5054
 7587TIP3    H222705   6.896   2.071   5.017  0.6374  0.4496 -1.2992
 7588TIP3   OH222706   8.236   3.690   0.459 -0.4215  0.2640 -0.1414
 7588TIP3    H122707   8.237   3.711   0.552  1.7139  1.0101 -0.2849
 7588TIP3    H222708   8.185   3.609   0.453  0.9805 -0.8568  1.9302
 7589TIP3   OH222709   3.322   6.593   4.290 -0.1840 -0.5577  0.2449
 7589TIP3    H122710   3.276   6.646   4.226 -1.4356 -2.2926 -0.3753
 7589TIP3    H222711   3.266   6.517   4.303  1.2186 -1.4366  1.5643
 7590TIP3   OH222712   0.256   3.702   6.748 -0.1615 -0.1382  0.0425
 7590TIP3    H122713   0.306   3.750   6.682  0.0178  1.5006  1.3035
 7590TIP3    H222714   0.314   3.631   6.775  0.6349  0.4696 -0.0318
 7591TIP3   OH222715   5.643   1.105   1.411  0.2871 -0.9076 -0.3314
 7591TIP3    H122716   5.553   1.089   1.440  0.4241 -1.6668 -0.3028
 7591TIP3    H222717   5.646   1.199   1.393 -0.0596 -0.5771  1.2346
 7592TIP3   OH222718   3.442   3.637   3.964 -0.2073  0.3467  0.6548
 7592TIP3    H122719   3.487   3.712   3.927 -1.3348  0.1221 -1.2993
 7592TIP3    H222720   3.355   3.670   3.987 -0.7185 -0.3197 -0.2349
 7593TIP3   OH222721   2.362   6.495   2.924  0.0533 -0.4973 -0.0759
 7593TIP3    H122722   2.269   6.508   2.946 -0.1624  0.3033 -1.3509
 7593TIP3    H222723   2.382   6.565   2.861  1.2785 -1.2052 -0.5109
 7594TIP3   OH222724   2.136   7.771   4.094  0.3524  0.0526 -0.2351
 7594TIP3    H122725   2.222   7.737   4.115  0.6730  1.0529  0.1596
 7594TIP3    H222726   2.117   7.833   4.165  0.5117  1.8583 -1.6796
 7595TIP3   OH222727   6.233   2.973   1.395  0.2561  0.3954 -0.1576
 7595TIP3    H122728   6.300   2.904   1.400 -2.0427 -2.0292 -0.2062
 7595TIP3    H222729   6.270   3.038   1.335  3.7319  0.7295  2.0885
 7596TIP3   OH222730   4.358   0.569   0.871 -0.0923  0.2033 -0.2176
 7596TIP3    H122731   4.305   0.579   0.792 -0.6015 -1.5036 -0.1189
 7596TIP3    H222732   4.372   0.475   0.879 -0.8253  0.2552  2.2450
 7597TIP3   OH222733   2.454   5.472   2.236 -0.5712 -0.8239  0.0201
 7597TIP3    H122734   2.505   5.421   2.299  0.1549  0.7129  0.7236
 7597TIP3    H222735   2.371   5.426   2.230 -0.0583 -1.9184  0.8495
 7598TIP3   OH222736   6.580   6.008   0.247  0.0304 -0.2981  0.2926
 7598TIP3    H122737   6.515   5.956   0.295  0.0651  0.5667  1.2979
 7598TIP3    H222738   6.631   6.052   0.314  0.6425  0.2755 -0.5213
 7599TIP3   OH222739   8.134   4.564   0.561  0.1872 -0.0982 -0.3619
 7599TIP3    H122740   8.136   4.498   0.631 -2.8279 -0.2141 -0.2798
 7599TIP3    H222741   8.200   4.534   0.499 -0.3346 -2.6540  0.1836
 7600TIP3   OH222742   8.165   1.019   1.489  0.0068  0.2336  0.3618
 7600TIP3    H122743   8.069   1.027   1.496  0.1335  0.6885  2.1004
 7600TIP3    H222744   8.191   1.093   1.434 -0.7122 -0.5099 -1.0252
 7601TIP3   OH222745   2.412   1.673   5.717  0.3789 -0.2820 -0.4157
 7601TIP3    H122746   2.440   1.731   5.788 -0.5711 -0.0815 -0.1819
 7601TIP3    H222747   2.458   1.706   5.640  2.2988 -1.1953  0.2870
 7602TIP3   OH222748   0.859   4.178   5.136 -0.2285  0.9853 -0.1617
 7602TIP3    H122749   0.777   4.136   5.111 -0.7621  1.8065  0.2095
 7602TIP3    H222750   0.918   4.104   5.155 -0.7461  0.3897 -0.8086
 7603TIP3   OH222751   5.267   3.804   0.272  0.2126  0.3441 -0.2584
 7603TIP3    H122752   5.225   3.878   0.315  0.2450 -0.0018  0.3847
 7603TIP3    H222753   5.202   3.734   0.274  0.1520  0.3731 -0.9340
 7604TIP3   OH222754   0.441   1.170   0.205 -0.3908  0.0329  0.1128
 7604TIP3    H122755   0.436   1.085   0.162 -0.1286  0.7987 -1.4995
 7604TIP3    H222756   0.414   1.153   0.296 -1.7533 -1.4875 -0.5375
 7605TIP3   OH222757   6.132   1.552   4.112  0.7301 -0.3182 -0.0984
 7605TIP3    H122758   6.174   1.634   4.087  0.9364 -0.2940  0.3241
 7605TIP3    H222759   6.073   1.532   4.039  1.3706 -0.2859 -0.6300
 7606TIP3   OH222760   4.462   6.073   5.839  0.0386  0.4889  0.4927
 7606TIP3    H122761   4.555   6.095   5.827 -0.1208  0.9721  0.1120
 7606TIP3    H222762   4.438   6.030   5.758 -0.1526  0.6513  0.4631
 7607TIP3   OH222763   6.779   3.545   5.859  0.5344 -0.2421 -0.4995
 7607TIP3    H122764   6.740   3.573   5.942  2.3389  0.0377  0.3025
 7607TIP3    H222765   6.772   3.622   5.803  0.0960 -0.1420 -0.3109
 7608TIP3   OH222766   3.840   2.840   5.356  0.1007  0.2089 -0.4508
 7608TIP3    H122767   3.908   2.818   5.292  0.1736 -0.3955 -0.1680
 7608TIP3    H222768   3.883   2.832   5.441 -0.4987 -0.8915 -0.2256
 7609TIP3   OH222769   0.563   0.138   6.510 -0.2810 -0.0642  0.5556
 7609TIP3    H122770   0.539   0.228   6.531 -0.0838  0.1821 -0.2553
 7609TIP3    H222771   0.607   0.106   6.588  0.2437  0.7609  0.6096
 7610TIP3   OH222772   2.657   0.467   0.414  0.0034  0.6140  0.2216
 7610TIP3    H122773   2.702   0.383   0.402  0.3609  0.8764 -0.3543
 7610TIP3    H222774   2.583   0.464   0.353 -0.7242  0.2122  1.1188
 7611TIP3   OH222775   0.813   5.495   0.520 -0.0936 -0.3403  0.0746
 7611TIP3    H122776   0.726   5.521   0.550 -0.2959 -1.5536  0.5788
 7611TIP3    H222777   0.805   5.402   0.499  1.3340 -0.7351  1.1315
 7612TIP3   OH222778   2.898   2.925   4.426 -0.2463  0.2097 -0.0344
 7612TIP3    H122779   2.854   2.953   4.506 -1.0771 -1.1571  0.0099
 7612TIP3    H222780   2.951   3.001   4.400 -0.7320  1.0174  1.2536
 7613TIP3   OH222781   5.534   3.453   0.283  0.4222 -0.2072 -0.3934
 7613TIP3    H122782   5.520   3.398   0.361 -0.7332 -0.7583 -0.9591
 7613TIP3    H222783   5.565   3.392   0.216 -0.6117 -0.1544 -0.9501
 7614TIP3   OH222784  -0.004   7.564   2.644 -0.4175  0.0431  0.0581
 7614TIP3    H122785   0.014   7.513   2.723 -3.6789  0.6192  1.3469
 7614TIP3    H222786   0.013   7.503   2.572  1.3957 -0.9008  1.2098
 7615TIP3   OH222787   8.199   0.467   2.023  0.0186  0.3552 -0.4897
 7615TIP3    H122788   8.138   0.449   2.095  1.8588  0.7798  1.2632
 7615TIP3    H222789   8.178   0.557   1.998 -0.2036  0.4438 -0.0162
 7616TIP3   OH222790   2.650   4.083   0.737 -0.4686  0.0821 -0.3947
 7616TIP3    H122791   2.607   4.135   0.804 -2.6359 -1.8286 -0.1929
 7616TIP3    H222792   2.743   4.101   0.749 -0.9008  1.1216  1.9872
 7617TIP3   OH222793   2.305   2.136   5.142  0.2683 -0.5712  0.1507
 7617TIP3    H122794   2.399   2.155   5.146 -0.0052  0.6036  2.1182
 7617TIP3    H222795   2.288   2.083   5.220 -0.5666 -1.5181 -0.6521
 7618TIP3   OH222796   5.718   3.310   2.985 -0.2839  0.3834  0.6628
 7618TIP3    H122797   5.715   3.239   2.921  1.6214  0.7722  0.0703
 7618TIP3    H222798   5.655   3.375   2.952  0.4867  0.4620 -0.7074
 7619TIP3   OH222799   7.520   7.237   5.939 -0.1035 -0.2367 -0.4651
 7619TIP3    H122800   7.432   7.272   5.954 -0.2415 -0.4323 -0.8293
 7619TIP3    H222801   7.538   7.185   6.018 -0.1724  0.0860 -0.2331
 7620TIP3   OH222802   0.352   6.487   4.920  0.0494 -0.1361  0.2563
 7620TIP3    H122803   0.277   6.539   4.891 -0.9261 -1.3799  0.4882
 7620TIP3    H222804   0.379   6.528   5.002 -0.1094  0.5662 -0.0329
 7621TIP3   OH222805   7.249   4.184   1.571 -0.0031 -0.2135 -0.3315
 7621TIP3    H122806   7.311   4.194   1.499 -0.3143 -0.2999 -0.6152
 7621TIP3    H222807   7.163   4.201   1.531 -0.2323 -0.8235 -0.1164
 7622TIP3   OH222808   3.227   1.554   1.609 -0.0090  0.2293  0.1736
 7622TIP3    H122809   3.193   1.486   1.549  0.8685  0.6676 -0.8528
 7622TIP3    H222810   3.309   1.581   1.569 -0.7822  2.5908  0.0342
 7623TIP3   OH222811   5.988   3.414   5.286 -0.7520 -0.2191 -0.3346
 7623TIP3    H122812   6.063   3.363   5.316 -0.1389 -0.3196 -1.9451
 7623TIP3    H222813   6.014   3.505   5.298 -0.3079 -0.2519 -0.9685
 7624TIP3   OH222814   5.199   1.137   4.933 -0.1114  0.0826 -0.1584
 7624TIP3    H122815   5.218   1.109   4.844  1.9272 -1.3147  0.6416
 7624TIP3    H222816   5.252   1.215   4.946 -0.9960  0.7383 -0.3783
 7625TIP3   OH222817   5.250   2.584   1.382  0.5212  0.3755 -0.3486
 7625TIP3    H122818   5.191   2.596   1.456  0.6688 -1.0448  0.0257
 7625TIP3    H222819   5.222   2.502   1.341  2.3191 -0.4680 -0.0264
 7626TIP3   OH222820   4.654   0.081   3.795  0.6341  0.0512  0.2332
 7626TIP3    H122821   4.742   0.117   3.782  0.9322 -0.5806  0.4634
 7626TIP3    H222822   4.667   0.005   3.852  0.2772 -1.4779 -1.5890
 7627TIP3   OH222823   4.650   5.919   5.714  0.6620  0.4725 -0.3514
 7627TIP3    H122824   4.744   5.902   5.722  0.6555  1.0781  1.3589
 7627TIP3    H222825   4.630   5.896   5.623  2.3582 -0.1288 -0.6206
 7628TIP3   OH222826   6.512   1.675   4.703  0.4311  0.3446  0.5598
 7628TIP3    H122827   6.436   1.697   4.758 -1.0028  2.0995 -1.9150
 7628TIP3    H222828   6.573   1.747   4.716  0.0622  0.7945 -0.1630
 7629TIP3   OH222829   6.930   6.729   0.986  0.1356 -0.5760 -0.7662
 7629TIP3    H122830   6.874   6.702   1.059 -0.1843  2.6466  0.3700
 7629TIP3    H222831   6.883   6.803   0.947  2.4976  0.7640 -1.2301
 7630TIP3   OH222832   7.667   0.069   0.983  0.3831  0.0926  0.1846
 7630TIP3    H122833   7.729   0.064   0.911 -0.9306 -1.2010 -0.9264
 7630TIP3    H222834   7.596   0.125   0.950 -0.0751 -0.2398  0.5840
 7631TIP3   OH222835   4.932   2.992   6.676 -0.8164  0.3097  1.0700
 7631TIP3    H122836   4.964   3.071   6.722  2.9929 -0.1692 -0.4303
 7631TIP3    H222837   4.907   2.933   6.747  0.0465  1.4221  2.3758
 7632TIP3   OH222838   1.853   0.810   4.998  0.0275 -0.2223 -0.1443
 7632TIP3    H122839   1.826   0.901   4.990  0.0945 -0.2587 -0.8714
 7632TIP3    H222840   1.774   0.760   4.975  0.4863 -0.3307 -1.5651
 7633TIP3   OH222841   0.288   5.398   2.355  0.1322  0.7211  0.0322
 7633TIP3    H122842   0.382   5.417   2.356 -0.0776  1.7639  0.2386
 7633TIP3    H222843   0.278   5.327   2.419  0.8314  0.2850 -0.3217
 7634TIP3   OH222844   0.407   2.162   0.112 -0.2261 -0.5309  0.5534
 7634TIP3    H122845   0.405   2.216   0.191 -0.8689 -1.4677  1.2005
 7634TIP3    H222846   0.461   2.086   0.135  1.1756  0.0968 -0.5381
 7635TIP3   OH222847   6.324   1.173   1.242 -0.3214  0.3743 -0.1085
 7635TIP3    H122848   6.414   1.174   1.211 -0.0466  1.6529  0.6379
 7635TIP3    H222849   6.271   1.163   1.163  0.4848 -1.6845 -0.4412
 7636TIP3   OH222850   0.478   0.346   4.757  0.1364 -0.1053 -0.1603
 7636TIP3    H122851   0.562   0.310   4.788 -0.6131 -2.1393 -0.3576
 7636TIP3    H222852   0.503   0.424   4.707  1.7739  0.2480  1.0884
 7637TIP3   OH222853   3.542   3.626   6.662 -0.2523 -0.6376  0.0450
 7637TIP3    H122854   3.453   3.649   6.636 -0.3975  0.4629  1.4322
 7637TIP3    H222855   3.580   3.707   6.695  0.8884 -1.3316  0.5247
 7638TIP3   OH222856   0.667   2.354   1.060 -0.0508 -0.8223  0.6325
 7638TIP3    H122857   0.712   2.299   0.996 -0.1392  0.4354 -0.5474
 7638TIP3    H222858   0.585   2.380   1.017  0.2152  0.6160  0.9441
 7639TIP3   OH222859   3.994   2.556   4.684 -0.3337 -0.0259  0.5163
 7639TIP3    H122860   3.927   2.554   4.753  0.1960  1.7304  1.1318
 7639TIP3    H222861   4.058   2.491   4.712 -0.9403 -0.5157  0.8033
 7640TIP3   OH222862   8.294   7.115   3.116 -0.2683 -0.1106  0.1345
 7640TIP3    H122863   8.200   7.100   3.120 -0.5505  1.1523 -0.9449
 7640TIP3    H222864   8.315   7.111   3.023  0.9612 -1.4586  0.4361
 7641TIP3   OH222865   1.928   5.782   2.150 -0.1610  0.8223 -0.3455
 7641TIP3    H122866   1.865   5.817   2.087 -0.2399  0.3948 -0.5011
 7641TIP3    H222867   2.011   5.823   2.125 -0.2015  0.6977 -0.6924
 7642TIP3   OH222868   4.807   6.526   3.774  0.2734 -0.2500 -0.0282
 7642TIP3    H122869   4.866   6.489   3.709 -1.1858 -1.0582 -0.9442
 7642TIP3    H222870   4.751   6.453   3.801 -0.4105  0.5185  0.7097
 7643TIP3   OH222871   1.937   4.855   4.961  0.0806 -0.5954 -0.6965
 7643TIP3    H122872   1.934   4.760   4.951  0.7639 -0.8037  0.8147
 7643TIP3    H222873   2.024   4.879   4.929  0.7726 -0.7880  0.9332
 7644TIP3   OH222874   7.591   6.569   3.183 -0.3444  0.1239  0.3783
 7644TIP3    H122875   7.577   6.662   3.162 -1.2361 -0.2986 -1.0811
 7644TIP3    H222876   7.623   6.569   3.273  1.7562  1.9835 -0.2734
 7645TIP3   OH222877   5.457   0.390   5.286  0.3155  0.0602 -0.3806
 7645TIP3    H122878   5.381   0.448   5.285 -1.1771 -1.7922 -2.0602
 7645TIP3    H222879   5.454   0.349   5.373 -0.4724  0.1820 -0.3404
 7646TIP3   OH222880   3.191   2.090   6.324  0.4848  0.0175 -0.0195
 7646TIP3    H122881   3.134   2.102   6.400 -0.0352  0.2352 -0.4425
 7646TIP3    H222882   3.200   1.995   6.315 -0.7424 -0.0476 -0.6403
 7647TIP3   OH222883   3.565   1.929   1.780 -0.2011 -0.0269 -0.1032
 7647TIP3    H122884   3.595   1.972   1.860  1.8499  0.7065 -1.1953
 7647TIP3    H222885   3.555   1.837   1.805  0.9592  0.0827  0.8782
 7648TIP3   OH222886   7.462   2.318   6.468  0.7791  0.4461  0.0873
 7648TIP3    H122887   7.393   2.253   6.460  0.9927  0.2307 -0.0125
 7648TIP3    H222888   7.423   2.399   6.434  0.2887  0.5405  0.8474
 7649TIP3   OH222889   0.382   5.412   1.320 -0.4972  0.4004 -0.4703
 7649TIP3    H122890   0.353   5.491   1.364  0.3125  1.2535 -1.4212
 7649TIP3    H222891   0.465   5.436   1.280  0.3340 -1.2604  0.1570
 7650TIP3   OH222892   7.599   1.603   3.122  0.3144 -0.2443  0.2612
 7650TIP3    H122893   7.630   1.613   3.032  1.0606 -0.1455  0.5162
 7650TIP3    H222894   7.662   1.543   3.162 -1.2895 -2.1326  0.1195
 7651TIP3   OH222895   2.240   0.947   2.110  0.0344 -0.1257  0.2151
 7651TIP3    H122896   2.147   0.958   2.131 -0.1976 -0.5147 -0.5292
 7651TIP3    H222897   2.250   0.989   2.025  0.4208 -0.5278  0.0573
 7652TIP3   OH222898   0.176   2.148   4.104  0.3702  0.7131 -0.2972
 7652TIP3    H122899   0.223   2.109   4.030 -0.8730  0.8740 -1.2104
 7652TIP3    H222900   0.084   2.140   4.080 -0.1638 -0.6982  1.9888
 7653TIP3   OH222901   1.741   5.604   3.519 -0.0440 -0.8828 -0.2278
 7653TIP3    H122902   1.729   5.546   3.593 -1.3878 -0.1856  0.1381
 7653TIP3    H222903   1.652   5.628   3.493  0.4416 -0.1344 -1.2734
 7654TIP3   OH222904   6.942   3.603   6.250 -0.1333  0.2620  0.6756
 7654TIP3    H122905   6.968   3.695   6.255  1.1064 -0.0047 -0.3239
 7654TIP3    H222906   7.014   3.560   6.205 -0.5768 -1.2637  1.3612
 7655TIP3   OH222907   6.322   2.075   1.414  0.8205  0.0863 -0.5974
 7655TIP3    H122908   6.261   2.149   1.416  0.6403 -0.0443 -1.0895
 7655TIP3    H222909   6.388   2.100   1.349  1.1041  0.0794 -0.3141
 7656TIP3   OH222910   2.439   0.173   0.284 -0.0986 -0.8171  0.2209
 7656TIP3    H122911   2.366   0.123   0.248 -0.2082 -0.5987  0.1348
 7656TIP3    H222912   2.517   0.120   0.266 -0.2410 -1.0620  0.3380
 7657TIP3   OH222913   6.808   6.619   2.025  0.1887 -0.0104  0.0021
 7657TIP3    H122914   6.784   6.705   1.990 -1.6825 -1.1444 -1.6548
 7657TIP3    H222915   6.885   6.593   1.974 -0.1306  0.0364 -0.5023
 7658TIP3   OH222916   8.277   2.533   5.943  0.2774  0.4140  0.1749
 7658TIP3    H122917   8.293   2.507   6.034  2.7420 -1.5007 -0.6849
 7658TIP3    H222918   8.330   2.613   5.932  0.3211  0.4027  0.2963
 7659TIP3   OH222919   2.417   2.602   4.341  0.5213 -0.5215  0.0438
 7659TIP3    H122920   2.413   2.507   4.341  0.5937 -0.5448 -1.4102
 7659TIP3    H222921   2.332   2.630   4.308  1.0044 -0.1316 -0.8998
 7660TIP3   OH222922   0.359   6.125   2.041 -0.3703 -0.7269 -0.0767
 7660TIP3    H122923   0.273   6.166   2.055  0.0279  0.1631 -0.1284
 7660TIP3    H222924   0.373   6.131   1.947  0.3029  0.3437  0.0660
 7661TIP3   OH222925   8.009   6.171   1.917 -0.0081 -0.3923 -0.4142
 7661TIP3    H122926   8.030   6.254   1.961 -0.7038 -1.2967  1.7455
 7661TIP3    H222927   7.914   6.174   1.904 -0.0588 -0.9251 -0.1767
 7662TIP3   OH222928   3.746   4.954   5.269 -0.3611  0.0319  0.3339
 7662TIP3    H122929   3.763   4.901   5.347  2.1608 -0.1692 -0.2615
 7662TIP3    H222930   3.739   5.043   5.302 -0.5806 -0.1909  0.9101
 7663TIP3   OH222931   0.778   4.959   0.726 -0.2652 -0.1958 -0.0586
 7663TIP3    H122932   0.850   4.948   0.789  0.1160  0.6677 -0.3304
 7663TIP3    H222933   0.699   4.963   0.780  0.0135  0.0984  0.3327
 7664TIP3   OH222934   2.625   2.795   0.076  0.3398 -0.0687 -1.2623
 7664TIP3    H122935   2.633   2.824   0.167 -0.0291  0.6202 -1.4525
 7664TIP3    H222936   2.576   2.863   0.032  1.0490 -0.0940 -2.1314
 7665TIP3   OH222937   0.691   1.758   2.813  0.6101 -0.3306  0.2799
 7665TIP3    H122938   0.713   1.726   2.901  0.3343  0.3530  0.6053
 7665TIP3    H222939   0.630   1.694   2.778 -2.4831  1.3359  2.1465
 7666TIP3   OH222940   5.436   7.385   4.254  0.0958 -0.3648  0.2226
 7666TIP3    H122941   5.499   7.316   4.233 -0.3965 -1.7603  2.8904
 7666TIP3    H222942   5.353   7.354   4.218 -0.1060 -1.2140  1.3389
 7667TIP3   OH222943   1.802   3.840   3.536  0.1398 -0.2779  0.3930
 7667TIP3    H122944   1.897   3.852   3.538  0.8927 -4.6973  3.4778
 7667TIP3    H222945   1.769   3.892   3.610  0.3907 -0.3033  0.5226
 7668TIP3   OH222946   4.087   1.463   0.338 -0.3956  0.0404 -0.4234
 7668TIP3    H122947   4.134   1.546   0.329 -0.2802 -0.1816 -2.1630
 7668TIP3    H222948   3.995   1.486   0.325 -0.3275 -0.1334 -1.2993
 7669TIP3   OH222949   1.567   0.529   6.321  0.3941 -0.3474 -0.2154
 7669TIP3    H122950   1.538   0.454   6.373  2.1194 -0.1772  1.0535
 7669TIP3    H222951   1.647   0.500   6.278 -1.9931 -1.2313 -4.6955
 7670TIP3   OH222952   7.795   5.264   1.533  0.4424 -0.2923  0.1600
 7670TIP3    H122953   7.889   5.280   1.543  0.5030 -0.4388 -0.1696
 7670TIP3    H222954   7.763   5.339   1.484  0.4198 -0.3261  0.1228
 7671TIP3   OH222955   2.183   2.493   3.899 -0.4909 -0.3919  0.2729
 7671TIP3    H122956   2.239   2.570   3.905  0.3132 -1.0654  2.6101
 7671TIP3    H222957   2.103   2.525   3.857  0.7802  1.0826 -1.1569
 7672TIP3   OH222958   7.809   2.097   4.324 -0.2887 -0.2352  0.4843
 7672TIP3    H122959   7.899   2.093   4.356 -0.7951  1.1243  2.2427
 7672TIP3    H222960   7.755   2.070   4.399 -1.3190 -3.9805 -1.3711
 7673TIP3   OH222961   6.065   1.212   6.739  0.0788 -0.1246 -0.1610
 7673TIP3    H122962   6.101   1.301   6.737 -1.1345  0.4419  1.2655
 7673TIP3    H222963   5.986   1.216   6.686 -1.2745  0.3267  1.7643
 7674TIP3   OH222964   5.467   1.062   4.265 -0.0789 -0.7266 -0.2311
 7674TIP3    H122965   5.518   1.122   4.210 -2.5522  0.4097 -1.4791
 7674TIP3    H222966   5.522   1.045   4.341  1.2312  2.2326 -0.3908
 7675TIP3   OH222967   7.253   3.690   0.055 -0.3864  0.1629  0.0354
 7675TIP3    H122968   7.284   3.713   0.142  1.2784  1.6005 -0.8764
 7675TIP3    H222969   7.272   3.597   0.046  0.7676  0.3240  0.6872
 7676TIP3   OH222970   4.427   0.048   0.442  0.1455  0.1388  0.1974
 7676TIP3    H122971   4.424  -0.013   0.516  0.6934 -2.0998 -1.5269
 7676TIP3    H222972   4.518   0.080   0.442 -0.0853  0.8367  0.9790
 7677TIP3   OH222973   4.735   0.057   2.236  0.2421 -0.5470  0.1797
 7677TIP3    H122974   4.754  -0.037   2.232 -1.1211 -0.8447  0.3141
 7677TIP3    H222975   4.643   0.065   2.210  0.4432  0.7963 -0.2173
 7678TIP3   OH222976   6.508   0.621   2.016 -0.7463 -0.0295  0.0719
 7678TIP3    H122977   6.467   0.542   1.979 -2.2286  0.4583  0.5744
 7678TIP3    H222978   6.525   0.599   2.107  1.1087 -0.5678 -0.3658
 7679TIP3   OH222979   4.962   1.511   0.881 -0.2039 -0.3181 -0.6048
 7679TIP3    H122980   4.898   1.520   0.809 -0.8355 -2.1945 -0.3375
 7679TIP3    H222981   5.046   1.503   0.837 -0.3616  0.3600 -1.0461
 7680TIP3   OH222982   2.574   2.098   2.290 -0.3390  0.1664 -0.8585
 7680TIP3    H122983   2.571   2.153   2.368 -1.2882  0.2773 -0.9604
 7680TIP3    H222984   2.639   2.140   2.233  1.4515 -0.7201  0.4303
 7681TIP3   OH222985   1.848   5.633   2.992 -0.1104  0.0644 -0.5196
 7681TIP3    H122986   1.881   5.714   2.953  0.7090  0.0323  0.0749
 7681TIP3    H222987   1.810   5.585   2.918  0.9154  0.2431 -1.1912
 7682TIP3   OH222988   4.865   0.340   4.648 -0.0688 -0.6562 -0.2141
 7682TIP3    H122989   4.907   0.283   4.712 -1.0010 -0.9734  0.1261
 7682TIP3    H222990   4.876   0.428   4.683  1.2656 -0.6076 -0.6789
 7683TIP3   OH222991   1.973   1.122   0.136 -0.0058  0.3916 -0.6655
 7683TIP3    H122992   1.887   1.132   0.177 -0.0574  0.3380 -0.7603
 7683TIP3    H222993   2.025   1.074   0.201  0.2948  1.3917 -0.1299
 7684TIP3   OH222994   1.164   6.373   0.479 -0.2498 -0.5472  0.5590
 7684TIP3    H122995   1.086   6.355   0.531 -0.8163  0.6108  0.1512
 7684TIP3    H222996   1.131   6.393   0.391  0.6113 -1.3880  0.0257
 7685TIP3   OH222997   7.252   4.922   6.245  0.0921  0.0421  0.2463
 7685TIP3    H122998   7.220   4.835   6.267  0.7935 -0.0795  0.8276
 7685TIP3    H222999   7.261   4.966   6.330 -1.8563  1.2781 -0.1126
 7686TIP3   OH223000   7.334   7.309   3.970 -0.3968 -0.7074  0.4169
 7686TIP3    H123001   7.396   7.240   3.993  0.4036 -0.5066 -1.0429
 7686TIP3    H223002   7.388   7.385   3.949 -0.8252 -1.2480 -3.4546
 7687TIP3   OH223003   5.377   3.014   2.380  0.0532  0.6539  0.2200
 7687TIP3    H123004   5.341   3.074   2.446 -0.5287  0.2381  0.2854
 7687TIP3    H223005   5.425   3.071   2.320 -1.4563  1.3438 -0.3862
 7688TIP3   OH223006   6.148   1.588   5.898  0.0244 -0.5011  0.5480
 7688TIP3    H123007   6.228   1.535   5.894  1.1199  1.1083  0.4114
 7688TIP3    H223008   6.077   1.524   5.890  1.2926 -1.9259  0.1942
 7689TIP3   OH223009   6.157   4.331   5.280  0.6657  0.1107 -0.2994
 7689TIP3    H123010   6.214   4.322   5.204  0.4138 -1.0731 -0.3548
 7689TIP3    H223011   6.209   4.301   5.354  1.2198  2.0774  0.1704
 7690TIP3   OH223012   3.227   6.358   5.916 -0.2499 -0.2435 -0.0097
 7690TIP3    H123013   3.177   6.278   5.902  1.0473 -1.1031  0.1809
 7690TIP3    H223014   3.199   6.389   6.002  0.1374 -1.1734  0.4653
 7691TIP3   OH223015   7.312   1.544   2.893  0.2462  0.2719  0.0197
 7691TIP3    H123016   7.392   1.560   2.942  1.0552  0.0313 -1.1860
 7691TIP3    H223017   7.276   1.464   2.932 -0.5424  1.4909  1.9344
 7692TIP3   OH223018   6.199   5.385   6.456 -0.0261  0.2274  0.1450
 7692TIP3    H123019   6.149   5.466   6.454 -0.5897 -0.1321 -0.7641
 7692TIP3    H223020   6.188   5.347   6.369  1.1485 -0.2765  0.1928
 7693TIP3   OH223021   6.752   5.417   1.862 -0.5280  0.6579 -0.2635
 7693TIP3    H123022   6.802   5.476   1.919 -2.1371  0.5770  1.3310
 7693TIP3    H223023   6.733   5.341   1.916 -2.5411  0.7869 -0.7052
 7694TIP3   OH223024   7.059   6.090   5.820  0.1806  0.4210 -0.0845
 7694TIP3    H123025   6.970   6.074   5.787  0.0197  0.6517  0.2312
 7694TIP3    H223026   7.059   6.182   5.845  0.3903  0.3228  0.2849
 7695TIP3   OH223027   2.424   5.761   0.219 -0.1454  0.3861 -0.2239
 7695TIP3    H123028   2.474   5.840   0.241 -0.8613  0.8931 -0.3740
 7695TIP3    H223029   2.488   5.702   0.180  0.7308  0.2685  1.3127
 7696TIP3   OH223030   7.791   1.180   0.193  0.0075 -0.2702  0.0756
 7696TIP3    H123031   7.864   1.239   0.175  0.3446 -0.1192  1.7417
 7696TIP3    H223032   7.821   1.095   0.161  0.4620  0.0107 -0.2606
 7697TIP3   OH223033   7.401   0.890   2.690 -0.6064 -0.2769  0.0307
 7697TIP3    H123034   7.403   0.968   2.635 -0.6216 -0.0414  0.3567
 7697TIP3    H223035   7.319   0.847   2.668 -0.8960  0.1315  0.2924
 7698TIP3   OH223036   1.786   7.354   2.801 -0.1016 -0.2796  0.7174
 7698TIP3    H123037   1.790   7.302   2.881 -1.4398  1.7971  2.2360
 7698TIP3    H223038   1.712   7.317   2.753  0.3742 -1.2009  0.6675
 7699TIP3   OH223039   0.613   1.210   4.117  0.3082  0.4821  0.3344
 7699TIP3    H123040   0.642   1.300   4.100 -0.8837  0.5394 -1.6834
 7699TIP3    H223041   0.619   1.166   4.032  1.3267 -1.5269  1.3606
 7700TIP3   OH223042   0.685   3.236   5.752  0.2468 -0.5791  0.3492
 7700TIP3    H123043   0.707   3.160   5.806  0.9319 -0.8807 -0.3448
 7700TIP3    H223044   0.641   3.295   5.813  2.0580 -0.3818  1.5603
 7701TIP3   OH223045   8.154   2.520   1.264  0.0219 -0.3669  0.1664
 7701TIP3    H123046   8.098   2.444   1.251 -0.6937  0.4072 -1.6792
 7701TIP3    H223047   8.119   2.563   1.342 -2.5774  0.5330 -1.3565
 7702TIP3   OH223048   6.947   2.436   0.824  0.1962  0.0678 -0.5443
 7702TIP3    H123049   6.989   2.377   0.887 -0.9698  0.6588  0.8443
 7702TIP3    H223050   6.893   2.494   0.878 -0.0672  1.2556 -2.0228
 7703TIP3   OH223051   6.018   7.840   5.630 -0.2689 -0.0154 -0.5147
 7703TIP3    H123052   6.074   7.795   5.567  0.0622  1.0552 -1.0165
 7703TIP3    H223053   6.023   7.786   5.709  0.7391 -0.4351 -0.8438
 7704TIP3   OH223054   0.740   1.764   0.392 -0.1120  0.0719  0.3493
 7704TIP3    H123055   0.805   1.697   0.371 -0.8769 -0.2902 -0.9676
 7704TIP3    H223056   0.774   1.844   0.353  0.7339  0.4595  1.8042
 7705TIP3   OH223057   5.885   0.989   3.255  0.4110  0.3698  0.5749
 7705TIP3    H123058   5.962   1.018   3.205 -0.6283  2.2002 -0.0669
 7705TIP3    H223059   5.918   0.918   3.310  1.8385 -1.1392 -2.0051
 7706TIP3   OH223060   4.573   0.335   5.413  0.2335  0.1398  0.1815
 7706TIP3    H123061   4.641   0.357   5.477 -0.2079  2.9601 -0.2094
 7706TIP3    H223062   4.598   0.384   5.334 -0.4254 -1.5314 -1.1265
 7707TIP3   OH223063   3.870   3.448   3.164  0.3369 -0.1978 -0.1014
 7707TIP3    H123064   3.776   3.461   3.149  0.5260 -0.3360 -1.5502
 7707TIP3    H223065   3.874   3.395   3.244 -0.9244 -2.3518 -1.3742
 7708TIP3   OH223066   0.316   5.024   0.694  0.0540  0.0367  0.4354
 7708TIP3    H123067   0.270   5.047   0.613  0.8856 -0.5365 -0.2222
 7708TIP3    H223068   0.247   5.019   0.760 -0.3486  3.4963  0.4939
 7709TIP3   OH223069   4.767   1.076   0.013 -1.0832  0.6364 -0.0274
 7709TIP3    H123070   4.737   1.117   0.095 -0.4621  1.4956 -0.2102
 7709TIP3    H223071   4.786   1.150  -0.044 -0.0633  0.0749 -0.4262
 7710TIP3   OH223072   7.154   6.285   0.981  0.3043  0.4289 -0.7462
 7710TIP3    H123073   7.210   6.291   0.904  3.4127 -1.4188  1.1829
 7710TIP3    H223074   7.204   6.326   1.051 -1.0065 -0.6975  0.9436
 7711TIP3   OH223075   1.270   7.612   4.080  0.5531 -0.8371 -1.0226
 7711TIP3    H123076   1.305   7.652   4.000 -2.8131  1.9380 -1.3563
 7711TIP3    H223077   1.296   7.672   4.150  0.2579 -1.1720 -0.6226
 7712TIP3   OH223078   6.066   1.802   1.386 -0.1800  0.0944  0.1006
 7712TIP3    H123079   5.985   1.771   1.426 -0.7084  2.1379  0.7443
 7712TIP3    H223080   6.130   1.802   1.457  0.0410 -0.2706 -0.0933
 7713TIP3   OH223081   4.308   2.807   0.146  0.0108 -0.3227 -0.1410
 7713TIP3    H123082   4.339   2.808   0.237 -0.1077 -0.6786 -0.0932
 7713TIP3    H223083   4.259   2.725   0.139 -1.2393  0.4095 -0.1110
 7714TIP3   OH223084   7.372   2.040   3.062 -0.1717 -0.1490  0.5998
 7714TIP3    H123085   7.417   1.995   3.134  1.7307 -0.9739 -1.0042
 7714TIP3    H223086   7.316   1.973   3.024 -0.2788 -0.0598  0.6013
 7715TIP3   OH223087   0.816   5.629   2.969  0.9202 -0.6377 -0.5434
 7715TIP3    H123088   0.746   5.588   3.020 -0.4762  0.7040 -1.2867
 7715TIP3    H223089   0.891   5.570   2.978  0.6782 -0.6144  2.7742
 7716TIP3   OH223090   6.120   3.312   5.514  0.0457  0.4740  0.6349
 7716TIP3    H123091   6.093   3.220   5.510 -1.7769  1.0028 -1.7739
 7716TIP3    H223092   6.072   3.348   5.588  0.0953 -0.3100  1.0552
 7717TIP3   OH223093   0.616   7.205   2.499 -0.7314 -0.2756 -0.2544
 7717TIP3    H123094   0.627   7.125   2.447 -0.5703 -0.2758 -0.2204
 7717TIP3    H223095   0.539   7.248   2.461 -0.5385 -0.2094 -0.5849
 7718TIP3   OH223096   8.202   3.287   4.308 -1.3360  0.2887 -0.1272
 7718TIP3    H123097   8.272   3.352   4.308 -1.4138  0.3788  0.2644
 7718TIP3    H223098   8.223   3.227   4.237 -1.2003  0.6781 -0.4130
 7719TIP3   OH223099   2.652   3.140   6.677  0.0847 -0.1109  0.0058
 7719TIP3    H123100   2.720   3.203   6.655  0.5256 -0.9223 -1.0592
 7719TIP3    H223101   2.677   3.060   6.629 -1.6074 -0.4198 -0.4181
 7720TIP3   OH223102   2.362   2.321   4.267  0.0714  0.2475  0.2408
 7720TIP3    H123103   2.370   2.255   4.198 -0.5345  1.2405 -0.8229
 7720TIP3    H223104   2.280   2.300   4.311 -1.1795  1.3842 -1.3833
 7721TIP3   OH223105   1.897   4.623   0.715  0.6224  0.0669  0.0231
 7721TIP3    H123106   1.929   4.578   0.794  1.1309 -0.6030 -0.5553
 7721TIP3    H223107   1.920   4.715   0.729  0.2588  0.0410  0.8809
 7722TIP3   OH223108   2.921   4.243   1.322  0.1073 -0.4486 -0.7428
 7722TIP3    H123109   2.840   4.199   1.296  0.2376 -1.2828  0.2224
 7722TIP3    H223110   2.988   4.202   1.268 -0.1149  0.3898 -1.6970
 7723TIP3   OH223111   5.994   2.887   5.408  0.0118 -0.1064 -0.3062
 7723TIP3    H123112   5.958   2.803   5.438 -0.5463 -0.2337 -1.2989
 7723TIP3    H223113   5.955   2.901   5.322 -0.2808  1.4229  0.0413
 7724TIP3   OH223114   0.976   3.271   1.552  0.6228  0.0040  0.2042
 7724TIP3    H123115   0.904   3.320   1.513  0.5576 -0.0317  0.2789
 7724TIP3    H223116   0.952   3.179   1.541  0.3076 -0.0001  0.8786
 7725TIP3   OH223117   7.073   1.367   0.253  0.1825 -0.4097  0.5188
 7725TIP3    H123118   7.059   1.334   0.164 -0.1815 -1.9942  1.1310
 7725TIP3    H223119   7.068   1.289   0.308  1.6625  0.3752  1.8155
 7726TIP3   OH223120   4.712   6.621   2.731  0.0684 -0.4525  0.3185
 7726TIP3    H123121   4.747   6.565   2.661 -1.0848 -1.2587  0.3630
 7726TIP3    H223122   4.656   6.563   2.782  0.2202  0.3407  1.4141
 7727TIP3   OH223123   2.886   7.281   5.747  0.2348  0.0661 -0.6022
 7727TIP3    H123124   2.826   7.355   5.735 -1.2149 -1.3176 -2.4585
 7727TIP3    H223125   2.971   7.315   5.718  0.0850  1.5999  0.5912
 7728TIP3   OH223126   2.065   1.145   3.627  0.1592 -0.0860 -0.4684
 7728TIP3    H123127   2.118   1.220   3.601  0.0725 -0.1225 -0.7495
 7728TIP3    H223128   2.098   1.072   3.575  0.3091 -0.2655 -0.1236
 7729TIP3   OH223129   2.817   6.153   4.807  0.0763 -0.0627  0.4366
 7729TIP3    H123130   2.823   6.114   4.894  0.9753 -1.0420 -0.0398
 7729TIP3    H223131   2.767   6.089   4.756  2.3996 -1.1571 -0.6153
 7730TIP3   OH223132   6.486   0.784   2.736 -0.1141 -0.6787 -0.0281
 7730TIP3    H123133   6.444   0.870   2.731 -1.0971 -1.1214  0.2481
 7730TIP3    H223134   6.577   0.803   2.757  0.7464  0.4869 -4.0353
 7731TIP3   OH223135   6.737   1.178   0.056  1.0919 -0.2467 -0.1131
 7731TIP3    H123136   6.736   1.165   0.150  0.5457 -0.7311 -0.1844
 7731TIP3    H223137   6.664   1.237   0.038  0.3616 -1.1947 -0.3699
 7732TIP3   OH223138   7.060   7.648   1.119 -0.2354  0.6245  0.2545
 7732TIP3    H123139   7.130   7.632   1.055 -0.8043 -1.7053  0.1521
 7732TIP3    H223140   7.105   7.669   1.200  0.5475  0.6822 -0.1880
 7733TIP3   OH223141   0.329   5.838   4.414 -0.3043 -0.5270  0.3840
 7733TIP3    H123142   0.380   5.919   4.415 -1.1317  0.0090  0.1595
 7733TIP3    H223143   0.249   5.859   4.462 -0.5974 -1.1586  0.1856
 7734TIP3   OH223144   0.044   2.222   1.414  0.0572  0.1251  0.1079
 7734TIP3    H123145   0.078   2.155   1.474  0.0922  1.3145  1.4986
 7734TIP3    H223146   0.086   2.303   1.443 -0.6405  0.9001 -0.9600
 7735TIP3   OH223147   6.563   5.971   1.630 -0.5833  0.1674 -0.0809
 7735TIP3    H123148   6.586   6.044   1.573 -2.4685 -1.8311 -3.7683
 7735TIP3    H223149   6.645   5.923   1.643  0.2358  1.6702  0.5948
 7736TIP3   OH223150   1.920   1.054   6.219  0.2973  0.3890  0.3181
 7736TIP3    H123151   1.827   1.070   6.235  0.4412 -0.0390  1.7257
 7736TIP3    H223152   1.922   0.967   6.177  0.0517  0.5481 -0.0308
 7737TIP3   OH223153   8.104   6.639   6.406  0.3649 -0.1740 -0.4794
 7737TIP3    H123154   8.076   6.673   6.491 -0.6108 -0.6057 -0.6143
 7737TIP3    H223155   8.199   6.636   6.412  0.4671  1.8493 -0.1777
 7738TIP3   OH223156   1.439   2.910   5.228  0.3758 -0.2382 -0.4218
 7738TIP3    H123157   1.374   2.973   5.196 -0.3953 -1.3588 -1.1143
 7738TIP3    H223158   1.472   2.949   5.309 -0.5671  0.7432 -0.4873
 7739TIP3   OH223159   7.078   5.775   2.108  0.0114 -0.2104  0.0711
 7739TIP3    H123160   7.133   5.811   2.177  1.9152 -1.0069 -0.9401
 7739TIP3    H223161   7.081   5.840   2.038  0.8586 -0.8871 -0.5352
 7740TIP3   OH223162   2.109   5.470   1.526  0.1417  0.6448 -0.2588
 7740TIP3    H123163   2.044   5.539   1.541  0.7154  1.1065  0.1626
 7740TIP3    H223164   2.082   5.399   1.584 -0.1929  0.6939 -0.3548
 7741TIP3   OH223165   0.501   0.128   6.186 -0.3112 -0.9446  0.1933
 7741TIP3    H123166   0.448   0.082   6.251  0.1106 -0.7657  0.6711
 7741TIP3    H223167   0.577   0.160   6.235 -0.9027  0.8341  0.0403
 7742TIP3   OH223168   6.106   3.737   3.708  0.0993  0.5095  0.1694
 7742TIP3    H123169   6.021   3.775   3.732 -0.3369 -0.3309  0.0097
 7742TIP3    H223170   6.170   3.785   3.761 -0.4798  1.1119  0.3366
 7743TIP3   OH223171   0.121   5.275   0.355 -0.2150  0.3650 -0.2987
 7743TIP3    H123172   0.158   5.187   0.343 -0.2185  0.4785 -1.2056
 7743TIP3    H223173   0.037   5.272   0.309 -0.6873  0.5497  0.5240
 7744TIP3   OH223174   6.617   1.332   2.677  0.4077 -0.2102  0.1842
 7744TIP3    H123175   6.529   1.296   2.690 -0.1316  0.8741 -0.3275
 7744TIP3    H223176   6.617   1.413   2.729  1.3449 -0.5446  0.7285
 7745TIP3   OH223177   4.753   3.110   6.222 -0.1216 -0.3388 -0.0337
 7745TIP3    H123178   4.735   3.055   6.299  1.3605  0.0412  0.6029
 7745TIP3    H223179   4.799   3.186   6.257  1.6651 -0.7339 -1.4355
 7746TIP3   OH223180   6.842   6.252   4.655  0.6477 -0.0513 -0.2463
 7746TIP3    H123181   6.847   6.183   4.721  1.5599  0.2253 -0.0043
 7746TIP3    H223182   6.751   6.253   4.627 -0.0588  0.6289  1.9036
 7747TIP3   OH223183   3.952   6.057   0.098  0.3157  0.6927 -0.1148
 7747TIP3    H123184   3.891   6.130   0.102  0.8362  1.0929  1.3155
 7747TIP3    H223185   3.960   6.027   0.189 -0.5625 -1.7370 -0.7422
 7748TIP3   OH223186   0.340   2.416   3.688  0.0225 -0.1878  0.1343
 7748TIP3    H123187   0.263   2.376   3.649  0.8773 -0.1695 -1.7106
 7748TIP3    H223188   0.311   2.504   3.714 -0.3844  0.1734 -1.4170
 7749TIP3   OH223189   2.411   2.775   5.363 -0.3052  0.3297 -0.4948
 7749TIP3    H123190   2.464   2.698   5.384  1.6499  1.7470 -0.0637
 7749TIP3    H223191   2.393   2.767   5.269 -2.1145 -1.7835 -0.0635
 7750TIP3   OH223192   0.071   7.485   5.213  0.3079 -0.2280 -0.3427
 7750TIP3    H123193   0.009   7.512   5.281 -0.9439 -1.0053 -1.1305
 7750TIP3    H223194   0.049   7.540   5.138 -0.0987 -1.1797 -0.9390
 7751TIP3   OH223195   2.476   4.588   3.633  0.2318  0.7330  0.4905
 7751TIP3    H123196   2.439   4.634   3.709  1.2858  0.9114  0.9072
 7751TIP3    H223197   2.515   4.657   3.579 -1.0119  0.6745 -0.5256
 7752TIP3   OH223198   2.017   2.318   6.521  0.5414  0.1379  0.1105
 7752TIP3    H123199   2.106   2.334   6.554  0.5948 -0.4614  0.2562
 7752TIP3    H223200   1.997   2.396   6.469  1.1477  0.2818  0.0876
 7753TIP3   OH223201   4.894   4.080   5.868  0.2897 -0.4266 -0.3912
 7753TIP3    H123202   4.969   4.130   5.836 -0.6107  0.6419 -0.9012
 7753TIP3    H223203   4.932   4.003   5.911  1.7266  0.8897  0.7749
 7754TIP3   OH223204   6.461   5.702   1.844 -0.3345  0.2559  0.5200
 7754TIP3    H123205   6.541   5.721   1.893  0.3884 -0.4822 -0.3287
 7754TIP3    H223206   6.478   5.617   1.803 -1.2459  0.4533 -0.3119
 7755TIP3   OH223207   4.746   0.397   3.620  0.0060  0.7763  0.1631
 7755TIP3    H123208   4.664   0.418   3.575 -0.2667  0.5268  0.5250
 7755TIP3    H223209   4.740   0.445   3.703 -0.3860 -0.2677  0.7648
 7756TIP3   OH223210   1.201   3.600   5.237 -0.3184 -0.0414 -0.3520
 7756TIP3    H123211   1.130   3.587   5.173 -0.3068  2.6017 -0.9925
 7756TIP3    H223212   1.165   3.662   5.300  1.1231  0.6502 -0.1855
 7757TIP3   OH223213   1.566   4.576   1.154 -0.4445 -0.2303  0.2565
 7757TIP3    H123214   1.472   4.576   1.173 -0.4480 -1.0406  0.2842
 7757TIP3    H223215   1.574   4.624   1.071 -0.8542  0.0480  0.3773
 7758TIP3   OH223216   6.737   3.910   0.807 -0.3643 -0.0150 -0.2802
 7758TIP3    H123217   6.779   3.899   0.722  0.3196 -1.3689  0.2065
 7758TIP3    H223218   6.782   3.984   0.847 -1.7497  1.6852 -1.6793
 7759TIP3   OH223219   5.408   3.253   5.754  0.1830  0.0483 -0.0902
 7759TIP3    H123220   5.389   3.252   5.848 -0.2567  3.1609 -0.0609
 7759TIP3    H223221   5.322   3.248   5.712  0.0686  2.1335 -0.1975
 7760TIP3   OH223222   1.623   2.396   3.124  0.1190  0.3407 -0.0643
 7760TIP3    H123223   1.595   2.433   3.208 -0.6110 -0.7620  0.1920
 7760TIP3    H223224   1.701   2.346   3.145  0.3489  0.6469 -0.1788
 7761TIP3   OH223225   6.128   6.909   0.568  0.4465  0.2689 -0.2240
 7761TIP3    H123226   6.129   6.813   0.568 -3.0390  0.1185 -0.8315
 7761TIP3    H223227   6.203   6.934   0.514  0.9613 -2.1261 -0.7136
 7762TIP3   OH223228   5.918   1.744   1.854  0.6401  0.2013  0.4994
 7762TIP3    H123229   5.934   1.729   1.948 -0.8641  0.0444  0.7517
 7762TIP3    H223230   5.885   1.660   1.822  0.3785  0.4911 -0.0023
 7763TIP3   OH223231   2.589   5.381   2.452 -0.0681  0.0378  0.1506
 7763TIP3    H123232   2.661   5.444   2.445  0.9322 -1.1267 -0.3190
 7763TIP3    H223233   2.556   5.393   2.541  0.3124  0.9889  0.1765
 7764TIP3   OH223234   7.365   1.633   3.890 -0.4372 -0.0765  0.7191
 7764TIP3    H123235   7.392   1.708   3.943  0.5007 -0.5482  0.9255
 7764TIP3    H223236   7.269   1.638   3.887 -0.4379  0.4958  1.6538
 7765TIP3   OH223237   3.212   3.613   0.164 -0.3511 -0.5079  0.0227
 7765TIP3    H123238   3.233   3.541   0.104  1.1585  0.1942 -0.3284
 7765TIP3    H223239   3.276   3.681   0.143 -0.0344 -0.0879  2.1666
 7766TIP3   OH223240   2.567   0.445   6.410 -0.3089  0.0348 -0.2643
 7766TIP3    H123241   2.543   0.355   6.387  0.8916 -0.0836 -1.1848
 7766TIP3    H223242   2.660   0.439   6.434 -0.4652  0.8779  0.6035
 7767TIP3   OH223243   0.233   6.250   6.390  0.1804 -0.3991  0.2778
 7767TIP3    H123244   0.233   6.275   6.482 -0.8130 -0.9010  0.4308
 7767TIP3    H223245   0.325   6.253   6.364  0.4491 -0.0854  1.2348
 7768TIP3   OH223246   4.056   0.715   4.276  0.1476 -0.8110  0.0746
 7768TIP3    H123247   4.131   0.690   4.224  0.7430  0.9900  0.0155
 7768TIP3    H223248   4.090   0.778   4.340 -1.2732  0.0083  0.0819
 7769TIP3   OH223249   4.007   5.873   1.677  0.2674 -0.3024  0.5973
 7769TIP3    H123250   4.038   5.800   1.730  0.7970 -0.8065 -0.3935
 7769TIP3    H223251   3.925   5.900   1.719 -0.2195 -1.8033  0.6517
 7770TIP3   OH223252   6.192   0.591   1.636  0.0704  0.1490 -0.0634
 7770TIP3    H123253   6.145   0.550   1.708  0.4155 -0.7331 -0.3291
 7770TIP3    H223254   6.224   0.674   1.672  0.1355 -0.2235  0.7496
 7771TIP3   OH223255   0.359   1.576   3.980 -0.4247 -0.0147 -0.0722
 7771TIP3    H123256   0.394   1.605   4.065 -0.3422  0.6603 -0.3260
 7771TIP3    H223257   0.382   1.647   3.920  1.5058 -1.4533 -1.1698
 7772TIP3   OH223258   6.131   6.820   1.281  0.0053  0.2411 -0.2781
 7772TIP3    H123259   6.140   6.886   1.350 -3.0668  0.0568  0.4173
 7772TIP3    H223260   6.100   6.869   1.205  1.5938  0.1497 -1.0250
 7773TIP3   OH223261   6.825   1.029   3.894  0.0780  0.4941  0.3667
 7773TIP3    H123262   6.808   0.964   3.962  0.7624  1.2286  1.2712
 7773TIP3    H223263   6.751   1.088   3.897 -1.1245 -0.8184 -1.2320
 7774TIP3   OH223264   3.083   1.076   3.938 -0.2092 -0.7977  0.3949
 7774TIP3    H123265   3.158   1.134   3.919  0.1162 -0.7530  1.7373
 7774TIP3    H223266   3.110   0.990   3.906 -0.5231 -0.3252 -1.2251
 7775TIP3   OH223267   3.349   2.566   1.834 -0.1964 -0.4198  0.7454
 7775TIP3    H123268   3.294   2.641   1.811  1.5480  0.7827  0.2852
 7775TIP3    H223269   3.393   2.543   1.752  0.6963 -0.7227  1.2966
 7776TIP3   OH223270   1.081   2.133   3.638 -0.2742  0.5109  0.4612
 7776TIP3    H123271   1.025   2.062   3.669  1.0886 -1.9175 -2.2054
 7776TIP3    H223272   1.158   2.128   3.695 -0.7126  0.7031  1.0800
 7777TIP3   OH223273   2.367   0.648   4.062 -0.0441 -0.2214  0.2255
 7777TIP3    H123274   2.305   0.721   4.066  0.5321  0.2581  0.7043
 7777TIP3    H223275   2.380   0.633   3.969  2.4666  2.6300 -0.0525
 7778TIP3   OH223276   1.659   4.636   4.764 -0.1868  0.0849  0.2994
 7778TIP3    H123277   1.620   4.560   4.719  0.1178  0.2474 -0.2509
 7778TIP3    H223278   1.742   4.603   4.799 -0.9164 -0.3379  1.7188
 7779TIP3   OH223279   3.936   2.335   4.041  0.0677 -0.3891  0.3386
 7779TIP3    H123280   3.968   2.258   3.995 -0.7966 -1.3184  1.2563
 7779TIP3    H223281   3.997   2.405   4.017 -0.1240 -0.9185 -1.8914
 7780TIP3   OH223282   4.476   2.917   3.797  0.1104 -0.0572  0.7587
 7780TIP3    H123283   4.395   2.873   3.824  1.5052 -3.1657  0.2778
 7780TIP3    H223284   4.501   2.873   3.715  1.6290  1.7255  0.2051
 7781TIP3   OH223285   6.106   2.283   2.981  0.5318 -0.3963  0.2034
 7781TIP3    H123286   6.161   2.252   2.909  0.9438 -2.5581  1.3374
 7781TIP3    H223287   6.167   2.320   3.044  0.5135 -1.0619  0.6287
 7782TIP3   OH223288   0.196   1.062   0.552 -0.6058 -0.1531  0.2725
 7782TIP3    H123289   0.162   0.985   0.506  0.2939  0.3168 -1.2338
 7782TIP3    H223290   0.119   1.117   0.568 -0.9553 -0.3816 -0.5840
 7783TIP3   OH223291   4.261   2.160   1.025 -0.5288  0.1985  0.3138
 7783TIP3    H123292   4.317   2.190   1.096  2.6003 -0.2763 -1.7483
 7783TIP3    H223293   4.178   2.139   1.067  1.1853 -0.2533  3.8274
 7784TIP3   OH223294   5.851   4.904   1.685  0.4208 -0.1236  0.1431
 7784TIP3    H123295   5.901   4.952   1.751  0.3974 -1.4236  1.1603
 7784TIP3    H223296   5.780   4.962   1.660  0.6856  0.5646  0.9566
 7785TIP3   OH223297   0.894   0.575   5.810  1.2210 -0.0297  1.0606
 7785TIP3    H123298   0.917   0.517   5.738 -1.3573  0.2278 -0.0776
 7785TIP3    H223299   0.807   0.546   5.839 -0.0353  2.9452  0.6711
 7786TIP3   OH223300   3.616   7.636   3.852 -0.2163 -0.9602  0.5905
 7786TIP3    H123301   3.631   7.544   3.871 -1.4111 -1.4227 -0.5293
 7786TIP3    H223302   3.540   7.660   3.906 -0.1830 -0.7532  0.5482
 7787TIP3   OH223303   3.562   0.721   5.889  0.2163  0.0225  0.3797
 7787TIP3    H123304   3.645   0.701   5.846  0.4729 -0.6431  1.1491
 7787TIP3    H223305   3.495   0.700   5.824  0.4208 -3.9442  1.2063
 7788TIP3   OH223306   2.166   4.197   2.565  0.2588 -0.1748  0.1018
 7788TIP3    H123307   2.239   4.256   2.582 -0.1762 -0.2336  2.6128
 7788TIP3    H223308   2.204   4.124   2.516  1.7848  0.0191  0.9548
 7789TIP3   OH223309   1.771   5.922   5.871  0.6275 -0.2753 -0.0836
 7789TIP3    H123310   1.703   5.929   5.804  1.0640 -0.7703 -0.5840
 7789TIP3    H223311   1.724   5.892   5.950  0.1096  0.3412 -0.1467
 7790TIP3   OH223312   5.823   3.005   2.812  0.1117  0.6371  0.0653
 7790TIP3    H123313   5.888   3.038   2.874  0.3662  1.7813 -0.7778
 7790TIP3    H223314   5.874   2.952   2.751 -0.0030  0.2046  0.3470
 7791TIP3   OH223315   6.580   7.291   1.149 -0.0708 -0.6466 -0.3069
 7791TIP3    H123316   6.658   7.313   1.199  0.0023  0.3969 -0.8598
 7791TIP3    H223317   6.540   7.219   1.197  0.0369  0.2750  1.2135
 7792TIP3   OH223318   4.779   5.920   2.880 -0.5870 -0.1449  0.4109
 7792TIP3    H123319   4.822   5.859   2.940 -2.0463  0.4957  2.2426
 7792TIP3    H223320   4.833   5.999   2.883  0.1415 -0.6076 -0.2889
 7793TIP3   OH223321   4.538   3.757   4.692  0.0113  0.3921  0.2657
 7793TIP3    H123322   4.463   3.814   4.679  0.1484  0.9852  1.8613
 7793TIP3    H223323   4.507   3.670   4.668 -1.0988  0.6680  0.6759
 7794TIP3   OH223324   4.926   0.824   2.925 -0.6725 -0.5948  0.6117
 7794TIP3    H123325   5.022   0.827   2.934 -0.4409  1.1510 -1.4451
 7794TIP3    H223326   4.894   0.891   2.985 -0.4163  0.1171 -0.0236
 7795TIP3   OH223327   5.684   3.475   1.781 -0.1849 -0.7068 -0.0572
 7795TIP3    H123328   5.759   3.427   1.747  0.9804  0.6435  0.4703
 7795TIP3    H223329   5.636   3.505   1.703  0.7407 -0.2255 -0.4518
 7796TIP3   OH223330   1.984   3.902   0.051  0.0560 -0.1402 -0.4173
 7796TIP3    H123331   1.916   3.871  -0.009  1.2033 -3.3680 -0.2857
 7796TIP3    H223332   2.056   3.929  -0.006 -0.3021  0.5943 -0.5248
 7797TIP3   OH223333   7.124   6.538   5.590 -0.2491 -0.6452 -0.0546
 7797TIP3    H123334   7.168   6.623   5.595 -0.8574 -0.2857 -0.6338
 7797TIP3    H223335   7.153   6.501   5.507 -2.0911  0.2282 -1.1625
 7798TIP3   OH223336   7.237   4.182   6.668 -0.7099  0.3503  0.3955
 7798TIP3    H123337   7.304   4.181   6.736  0.5024 -0.6314 -0.7435
 7798TIP3    H223338   7.160   4.142   6.708 -0.0057 -0.2342  1.1728
 7799TIP3   OH223339   3.828   6.180   2.155  0.2123  0.5467 -0.0318
 7799TIP3    H123340   3.759   6.133   2.202  0.8366  0.7722  1.1300
 7799TIP3    H223341   3.781   6.232   2.089 -0.5878 -0.5997 -0.3901
 7800TIP3   OH223342   7.623   5.056   4.379 -0.0117 -0.0816  0.2098
 7800TIP3    H123343   7.712   5.030   4.355  0.3331  2.3188 -1.5005
 7800TIP3    H223344   7.627   5.151   4.388 -2.8562  0.4213 -2.2597
 7801TIP3   OH223345   2.501   5.455   4.676 -0.1822  0.2106 -0.0035
 7801TIP3    H123346   2.473   5.487   4.591 -0.3633 -2.4698 -1.0411
 7801TIP3    H223347   2.568   5.389   4.657 -0.3180 -0.5632  1.9091
 7802TIP3   OH223348   6.904   2.046   6.000  0.2733 -0.5127 -0.1090
 7802TIP3    H123349   6.839   2.111   5.975  0.2296 -0.8503 -0.8914
 7802TIP3    H223350   6.938   2.077   6.084 -1.0847 -0.4758  0.4548
 7803TIP3   OH223351   2.450   0.916   1.554 -0.2883 -0.3605 -0.4021
 7803TIP3    H123352   2.482   0.897   1.466 -1.2384  1.4497 -1.1874
 7803TIP3    H223353   2.359   0.889   1.553  0.2738 -2.5653  0.8411
 7804TIP3   OH223354   6.069   3.096   0.267  0.2405 -0.1608  1.2731
 7804TIP3    H123355   5.983   3.138   0.264  0.6870  0.7495 -0.6121
 7804TIP3    H223356   6.050   3.002   0.269 -0.8410 -0.0143 -0.2873
 7805TIP3   OH223357   1.670   3.847   1.204 -0.2231  0.3292  0.7286
 7805TIP3    H123358   1.588   3.821   1.161 -1.0192 -0.0286  2.3475
 7805TIP3    H223359   1.717   3.897   1.138 -1.6774  0.4078 -0.3133
 7806TIP3   OH223360   6.419   6.321   2.748  0.2764  0.0704  0.2531
 7806TIP3    H123361   6.338   6.290   2.789 -0.0125  1.1046  0.4955
 7806TIP3    H223362   6.478   6.340   2.821 -0.2976  2.0733  0.2568
 7807TIP3   OH223363   7.517   1.833   6.689  0.4517  0.0103 -0.2871
 7807TIP3    H123364   7.537   1.897   6.758  0.7977 -0.2525 -0.1413
 7807TIP3    H223365   7.482   1.758   6.736  2.1735 -0.7987 -0.2293
 7808TIP3   OH223366   5.479   0.390   1.856 -0.6731 -0.3493 -0.1781
 7808TIP3    H123367   5.518   0.444   1.925 -0.6568 -0.3690 -0.1718
 7808TIP3    H223368   5.551   0.374   1.795 -1.3071  1.9995 -1.6601
 7809TIP3   OH223369   4.558   0.457   1.412  0.1309 -0.0810  0.3950
 7809TIP3    H123370   4.475   0.462   1.364  0.6609 -0.1593 -0.5518
 7809TIP3    H223371   4.539   0.497   1.497 -0.1204  2.6796 -0.8593
 7810TIP3   OH223372   0.605   6.105   1.528  0.4157 -0.2284 -0.6465
 7810TIP3    H123373   0.670   6.069   1.469  1.0010 -2.2999  1.1340
 7810TIP3    H223374   0.552   6.164   1.474  2.4817 -0.0519 -2.5825
 7811TIP3   OH223375   4.093   1.730   3.528  0.1388  0.1167  0.2063
 7811TIP3    H123376   4.069   1.684   3.608  0.7841 -0.7799 -0.1022
 7811TIP3    H223377   4.010   1.765   3.495 -0.1248  0.5700  1.2957
 7812TIP3   OH223378   5.054   4.812   3.585  0.5338  0.1364 -0.1409
 7812TIP3    H123379   5.115   4.869   3.633  1.4766  0.1281 -1.2808
 7812TIP3    H223380   5.076   4.826   3.493 -1.0097 -0.0993 -0.5708
 7813TIP3   OH223381   7.556   4.685   2.135  0.5725  0.3610 -0.5061
 7813TIP3    H123382   7.568   4.776   2.109  0.8353  0.4845  0.0179
 7813TIP3    H223383   7.593   4.681   2.224 -2.7046  0.6533  1.0248
 7814TIP3   OH223384   1.143   6.934   5.915  0.9036 -0.3150 -0.3508
 7814TIP3    H123385   1.089   6.985   5.854  0.6461  0.7798  0.7546
 7814TIP3    H223386   1.176   6.861   5.862  1.2679  0.9746 -1.9867
 7815TIP3   OH223387   5.958   6.241   4.243  1.1314  0.4908  0.9358
 7815TIP3    H123388   5.938   6.307   4.309  0.5602  0.1940  1.0654
 7815TIP3    H223389   5.899   6.169   4.263  0.6076  0.5838 -0.1832
 7816TIP3   OH223390   5.068   3.260   4.403  0.1952 -0.1072 -0.3423
 7816TIP3    H123391   5.128   3.186   4.404 -0.3736 -0.5914 -1.0937
 7816TIP3    H223392   5.021   3.255   4.486  0.0310 -0.6927 -0.4721
 7817TIP3   OH223393   6.998   4.449   4.059  0.0259  0.5103 -0.3808
 7817TIP3    H123394   6.928   4.391   4.087  1.5159 -2.1281 -1.6458
 7817TIP3    H223395   6.978   4.468   3.967  0.3088  0.7111 -0.4027
 7818TIP3   OH223396   7.836   6.681   2.004 -0.0053 -0.1142  0.2560
 7818TIP3    H123397   7.876   6.749   2.059  1.5329 -0.4864 -0.3596
 7818TIP3    H223398   7.742   6.700   2.007  0.2044  0.8667  1.6589
 7819TIP3   OH223399   8.018   0.897   5.141 -0.0114 -0.0572  0.3340
 7819TIP3    H123400   8.083   0.900   5.211  0.8548  0.9776 -0.4915
 7819TIP3    H223401   8.067   0.869   5.064 -0.8485 -0.6611  0.0007
 7820TIP3   OH223402   7.072   7.225   3.449 -0.4533 -0.3000  0.0675
 7820TIP3    H123403   7.078   7.148   3.392 -0.3198 -1.7038  1.8748
 7820TIP3    H223404   7.098   7.192   3.535  0.2882  1.9510  0.7655
 7821TIP3   OH223405   1.252   4.664   5.615  0.0865 -0.1251 -0.3882
 7821TIP3    H123406   1.311   4.625   5.679 -0.3490 -1.1778 -0.6045
 7821TIP3    H223407   1.239   4.595   5.550  0.3697  0.8462 -1.5159
 7822TIP3   OH223408   7.514   6.400   2.697  0.6657 -0.0656  0.6497
 7822TIP3    H123409   7.481   6.443   2.776  0.1840  1.1516 -0.1845
 7822TIP3    H223410   7.542   6.313   2.727  0.0363  0.1864  2.0540
 7823TIP3   OH223411   3.553   6.399   4.371  0.4626  0.1597  0.4116
 7823TIP3    H123412   3.541   6.428   4.461 -2.3308  0.0586  0.1696
 7823TIP3    H223413   3.522   6.472   4.318  1.5078 -0.0115 -0.4744
 7824TIP3   OH223414   6.726   5.645   1.500  0.2060 -0.0730 -0.0743
 7824TIP3    H123415   6.690   5.560   1.526 -3.3346  1.2414 -0.1702
 7824TIP3    H223416   6.682   5.666   1.418  0.3583  2.2108  0.3622
 7825TIP3   OH223417   1.776   1.909   2.513 -0.9533 -0.0052 -0.4144
 7825TIP3    H123418   1.847   1.867   2.464  0.9033  0.0278  2.0521
 7825TIP3    H223419   1.698   1.856   2.492 -0.0249 -0.7141 -2.3408
 7826TIP3   OH223420   3.041   1.378   0.525  0.1154 -0.1418 -0.3022
 7826TIP3    H123421   3.109   1.407   0.586  0.1314 -1.1432  0.1814
 7826TIP3    H223422   3.084   1.374   0.440 -0.0761  1.9192 -0.5445
 7827TIP3   OH223423   0.153   3.293   0.728 -0.0663  0.4891  0.0771
 7827TIP3    H123424   0.162   3.258   0.639 -0.8866 -0.1877  0.2403
 7827TIP3    H223425   0.232   3.264   0.773 -0.2985 -0.3698 -0.0549
 7828TIP3   OH223426   2.892   7.462   0.667  0.2370  0.0959  0.0097
 7828TIP3    H123427   2.845   7.459   0.750  0.0017  0.4041 -0.1099
 7828TIP3    H223428   2.941   7.544   0.670  0.7021 -0.1827  0.0974
 7829TIP3   OH223429   3.553   0.771   5.422  0.1496  0.2046 -0.6221
 7829TIP3    H123430   3.537   0.848   5.368  0.6097  1.2100  0.6187
 7829TIP3    H223431   3.602   0.804   5.497 -1.3017 -0.9357  0.9271
 7830TIP3   OH223432   5.708   6.695   0.885  0.1424 -0.0915 -0.0416
 7830TIP3    H123433   5.679   6.611   0.849 -2.0249  0.4330  0.3208
 7830TIP3    H223434   5.752   6.672   0.966  0.8010 -0.9459 -0.6135
 7831TIP3   OH223435   1.975   6.302   1.280 -0.4716 -0.1013 -0.1396
 7831TIP3    H123436   2.025   6.276   1.202 -1.0947  0.5872 -0.7823
 7831TIP3    H223437   1.910   6.364   1.247  0.9555  2.3477  1.3027
 7832TIP3   OH223438   7.221   3.593   3.326 -0.9348  0.6683 -0.3695
 7832TIP3    H123439   7.217   3.525   3.259 -0.4195  1.4764 -1.2409
 7832TIP3    H223440   7.161   3.563   3.394 -0.5334 -0.7810 -0.6151
 7833TIP3   OH223441   1.780   2.460   2.404  0.1205  0.2109 -0.1579
 7833TIP3    H123442   1.705   2.459   2.345 -0.4174 -0.0717  0.5189
 7833TIP3    H223443   1.749   2.505   2.482 -0.0424 -1.8252  1.0106
 7834TIP3   OH223444   6.351   2.835   5.041 -0.3852 -0.5906 -0.0921
 7834TIP3    H123445   6.441   2.829   5.010 -0.9633  0.7513 -2.1858
 7834TIP3    H223446   6.350   2.912   5.098 -0.9269  1.8282 -3.1425
 7835TIP3   OH223447   5.352   4.953   5.817  0.0345  0.2231 -0.0512
 7835TIP3    H123448   5.284   4.885   5.813  0.5262 -0.2337 -0.8298
 7835TIP3    H223449   5.425   4.910   5.862 -0.2371  0.7734  0.9586
 7836TIP3   OH223450   2.373   4.255   3.004 -0.7138 -0.4426 -0.2832
 7836TIP3    H123451   2.412   4.216   3.083  2.1047 -2.6263 -2.5192
 7836TIP3    H223452   2.425   4.332   2.987 -1.7228  0.3847  0.2486
 7837TIP3   OH223453   2.615   2.019   5.592 -0.2397  0.0868 -0.0591
 7837TIP3    H123454   2.670   1.951   5.552  0.1669 -0.2650  1.0739
 7837TIP3    H223455   2.669   2.098   5.588 -0.5679  0.2725 -1.0404
 7838TIP3   OH223456   3.689   4.632   2.599 -0.2930 -0.1953  0.3953
 7838TIP3    H123457   3.758   4.692   2.628  0.1814 -0.4749 -0.1385
 7838TIP3    H223458   3.734   4.548   2.586 -1.0582 -0.8376  1.7065
 7839TIP3   OH223459   3.802   6.993   6.077  0.4228  0.5619 -0.3000
 7839TIP3    H123460   3.786   6.987   5.983  0.8361  1.1704 -0.4141
 7839TIP3    H223461   3.738   6.934   6.116  0.0848  0.4915 -0.9471
 7840TIP3   OH223462   0.808   4.464   2.484 -0.0190  0.1478  0.5070
 7840TIP3    H123463   0.753   4.490   2.558  0.0856  0.2351  0.5551
 7840TIP3    H223464   0.796   4.369   2.478 -1.7580  0.4018 -0.7721
 7841TIP3   OH223465   3.152   0.736   1.362 -0.9133  0.4838  0.3510
 7841TIP3    H123466   3.169   0.642   1.353  2.4899  1.1626 -3.0045
 7841TIP3    H223467   3.061   0.746   1.332 -1.2332 -1.6921  0.4237
 7842TIP3   OH223468   2.941   1.867   3.590  0.1100 -0.2294 -0.3482
 7842TIP3    H123469   2.932   1.779   3.628 -1.4107  0.1748  0.2971
 7842TIP3    H223470   2.854   1.887   3.556 -0.6858  2.5339  2.8709
 7843TIP3   OH223471   3.111   3.527   5.869 -0.3100  0.1377 -0.3091
 7843TIP3    H123472   3.185   3.481   5.829 -1.3356 -1.4126 -0.4652
 7843TIP3    H223473   3.035   3.503   5.817 -1.0153  1.4258  0.0661
 7844TIP3   OH223474   7.327   7.666   4.247 -0.1172 -0.0273  0.2120
 7844TIP3    H123475   7.246   7.625   4.217 -0.0582 -0.1351  0.1968
 7844TIP3    H223476   7.377   7.594   4.287  0.2678 -0.1143 -0.3970
 7845TIP3   OH223477   6.567   1.066   3.824  0.2365  0.2172  0.9253
 7845TIP3    H123478   6.561   1.114   3.741 -0.0433  0.2580  0.9682
 7845TIP3    H223479   6.571   1.135   3.891  0.3446  0.1841  0.9525
 7846TIP3   OH223480   8.208   6.491   3.502 -0.3898  0.3274 -0.2291
 7846TIP3    H123481   8.188   6.512   3.411 -0.1572 -0.4746 -0.4781
 7846TIP3    H223482   8.303   6.505   3.510 -0.4309  0.5229 -0.0735
 7847TIP3   OH223483   3.475   4.180   5.280  0.3046 -0.3870 -0.4911
 7847TIP3    H123484   3.499   4.129   5.202  1.1747  0.0835 -0.5395
 7847TIP3    H223485   3.535   4.149   5.348  0.7647  0.4824 -0.4879
 7848TIP3   OH223486   2.503   2.316   2.471  0.0649  0.4721  0.0307
 7848TIP3    H123487   2.419   2.352   2.498 -2.1210 -2.8022 -1.7674
 7848TIP3    H223488   2.552   2.307   2.553 -1.4541  1.9832  1.2036
 7849TIP3   OH223489   3.801   2.763   2.647  0.2490 -0.1352 -0.2994
 7849TIP3    H123490   3.711   2.741   2.622  0.3205 -0.1633 -0.5389
 7849TIP3    H223491   3.795   2.790   2.738  0.2639 -1.8889  0.2689
 7850TIP3   OH223492   1.573   6.938   5.793 -0.2308 -0.3797 -0.1866
 7850TIP3    H123493   1.665   6.965   5.799 -0.2978  0.6264 -2.5522
 7850TIP3    H223494   1.539   6.949   5.882  0.8047  3.5661 -0.1039
 7851TIP3   OH223495   6.789   4.998   0.386  0.0861 -0.2507 -0.1575
 7851TIP3    H123496   6.751   5.021   0.301  2.0163 -1.1765 -1.3517
 7851TIP3    H223497   6.883   4.993   0.369  0.4679 -1.0505  1.9075
 7852TIP3   OH223498   4.620   1.998   0.289  0.3120  0.0249 -0.5961
 7852TIP3    H123499   4.547   1.974   0.346  2.0824 -1.5258  1.1668
 7852TIP3    H223500   4.679   2.048   0.345  0.5714  1.3909 -2.0299
 7853TIP3   OH223501   8.268   6.936   0.886 -0.2908 -0.3452 -0.0222
 7853TIP3    H123502   8.333   6.873   0.855 -0.8968 -0.7573 -0.4980
 7853TIP3    H223503   8.305   6.972   0.966  0.1029 -1.2711  0.2265
 7854TIP3   OH223504   0.525   5.398   3.536 -0.2940  0.8910 -0.0497
 7854TIP3    H123505   0.467   5.421   3.463 -1.6550 -0.0858  0.6659
 7854TIP3    H223506   0.581   5.474   3.547  0.8109  0.6293 -2.8751
 7855TIP3   OH223507   2.518   2.504   1.843  0.2145 -0.2151  0.7686
 7855TIP3    H123508   2.465   2.427   1.824 -0.0242  0.1811 -0.2461
 7855TIP3    H223509   2.584   2.505   1.773  1.3356 -0.4771  1.7741
 7856TIP3   OH223510   7.806   1.926   2.478  0.1345  0.7144 -0.0512
 7856TIP3    H123511   7.880   1.902   2.422  0.7327  0.7214  0.7298
 7856TIP3    H223512   7.788   2.017   2.456 -1.0225  0.1311 -1.7666
 7857TIP3   OH223513   4.333   3.796   3.296 -0.1872 -0.7554  0.2518
 7857TIP3    H123514   4.380   3.713   3.306 -1.3944 -1.5852 -0.5570
 7857TIP3    H223515   4.387   3.847   3.236 -0.7838 -2.1209 -1.5362
 7858TIP3   OH223516   2.455   2.445   2.234 -0.5651  0.1527  0.3258
 7858TIP3    H123517   2.502   2.397   2.302  1.5067  0.5207 -0.7677
 7858TIP3    H223518   2.469   2.392   2.155  0.0610  1.4994 -0.4923
 7859TIP3   OH223519   2.333   0.651   2.119 -0.5577 -0.6799 -0.9199
 7859TIP3    H123520   2.249   0.608   2.137 -0.9965  1.0366  1.6606
 7859TIP3    H223521   2.313   0.744   2.119  1.5102 -0.1366  1.2832
 7860TIP3   OH223522   2.975   5.433   3.425  0.8454  0.2725 -0.0163
 7860TIP3    H123523   3.045   5.404   3.366 -0.1852 -0.3077 -1.0044
 7860TIP3    H223524   2.919   5.356   3.435 -0.0732  0.9423  0.1188
 7861TIP3   OH223525   8.192   2.283   2.191  0.1682  0.1894  0.0374
 7861TIP3    H123526   8.238   2.260   2.271  0.3598  0.3786 -0.0161
 7861TIP3    H223527   8.102   2.254   2.205 -0.3761  2.2233  1.2376
 7862TIP3   OH223528   4.012   4.574   0.170  0.9025 -0.1344 -0.4682
 7862TIP3    H123529   3.960   4.652   0.149 -0.6535 -0.8884  0.3963
 7862TIP3    H223530   3.987   4.510   0.103  0.8668 -0.4286 -0.1775
 7863TIP3   OH223531   8.114   0.957   0.112 -0.2698  0.7446  0.7037
 7863TIP3    H123532   8.177   1.008   0.163 -1.0862  1.1387  1.3288
 7863TIP3    H223533   8.057   0.917   0.177 -0.3341 -0.0644  0.1626
 7864TIP3   OH223534   3.978   5.549   1.381  0.3379 -0.4929 -0.1665
 7864TIP3    H123535   3.924   5.517   1.308 -1.0297  0.2366  0.4830
 7864TIP3    H223536   4.067   5.520   1.360  0.1924  0.6060 -2.6883
 7865TIP3   OH223537   3.704   6.677   3.405 -0.3743  0.4009  0.4226
 7865TIP3    H123538   3.760   6.665   3.481 -0.6176 -0.0661  0.5278
 7865TIP3    H223539   3.752   6.639   3.332 -0.7533 -0.4208  0.5957
 7866TIP3   OH223540   6.412   6.096   3.996  0.1742  0.3296 -0.0729
 7866TIP3    H123541   6.411   6.126   3.906  0.0054  1.4643  0.2900
 7866TIP3    H223542   6.380   6.171   4.047 -0.8413 -0.6739  0.8190
 7867TIP3   OH223543   1.152   6.837   4.445 -0.3732  0.0749 -0.1448
 7867TIP3    H123544   1.136   6.931   4.452 -0.9204 -0.0748  0.9320
 7867TIP3    H223545   1.190   6.825   4.358  0.0282  1.3329 -0.1703
 7868TIP3   OH223546   0.508   4.447   6.752  0.4047 -0.2224  0.8515
 7868TIP3    H123547   0.426   4.405   6.724  0.4219 -0.6049  1.3518
 7868TIP3    H223548   0.535   4.396   6.829  1.1872 -0.1854  0.6057
 7869TIP3   OH223549   1.707   5.988   5.483  0.1954 -0.4126  0.0272
 7869TIP3    H123550   1.682   6.028   5.400  0.1644  0.3054  0.3726
 7869TIP3    H223551   1.803   5.993   5.484  0.1376  1.3403  0.8565
 7870TIP3   OH223552   5.559   2.527   2.815  0.2171  0.4705  0.4109
 7870TIP3    H123553   5.521   2.473   2.884  1.8202 -0.7932  0.3526
 7870TIP3    H223554   5.560   2.470   2.738 -0.4861  1.4782 -0.3750
 7871TIP3   OH223555   0.842   7.716   1.051 -0.0911 -0.2068  0.1304
 7871TIP3    H123556   0.936   7.697   1.050 -0.0507  0.0125 -0.9844
 7871TIP3    H223557   0.806   7.665   0.980 -0.4588  1.3802 -0.8802
 7872TIP3   OH223558   5.786   3.300   5.463 -0.2145 -0.1378 -0.0770
 7872TIP3    H123559   5.822   3.238   5.526  2.1877 -0.6887 -1.8738
 7872TIP3    H223560   5.855   3.364   5.449 -1.0112  0.4662 -1.5120
 7873TIP3   OH223561   5.895   7.749   2.870 -0.2808  0.6063  0.0164
 7873TIP3    H123562   5.976   7.701   2.852 -0.2674  0.5898  0.1219
 7873TIP3    H223563   5.903   7.777   2.961 -0.5760  0.2546  0.1529
 7874TIP3   OH223564   4.374   3.718   4.031  0.4872  0.3323  0.0786
 7874TIP3    H123565   4.456   3.673   4.013 -0.2702 -0.4226 -1.8479
 7874TIP3    H223566   4.356   3.768   3.951 -1.4636 -0.4116 -0.0132
 7875TIP3   OH223567   1.955   4.297   6.049 -0.0487 -0.4078  0.0948
 7875TIP3    H123568   1.962   4.370   5.988  0.6606 -1.9850 -1.8408
 7875TIP3    H223569   1.868   4.305   6.087 -0.6951  0.4182 -1.4827
 7876TIP3   OH223570   4.755   6.691   3.249  0.2209 -0.8785  0.1581
 7876TIP3    H123571   4.802   6.609   3.240  1.2112 -0.3591  0.4570
 7876TIP3    H223572   4.822   6.755   3.274 -0.9193 -0.4807  2.4614
 7877TIP3   OH223573   4.021   5.556   4.132 -0.1429 -0.0614  0.0664
 7877TIP3    H123574   4.026   5.577   4.039  0.5994 -0.9127 -0.0959
 7877TIP3    H223575   4.111   5.558   4.162 -0.4001  0.4796  0.8447
 7878TIP3   OH223576   0.631   4.318   0.602 -0.7243  0.5587 -0.2854
 7878TIP3    H123577   0.561   4.378   0.627 -1.3253 -0.2141 -0.0421
 7878TIP3    H223578   0.618   4.304   0.508 -2.1528 -1.1010  0.1103
 7879TIP3   OH223579   5.459   5.777   3.855  0.4270 -0.3868  0.0120
 7879TIP3    H123580   5.551   5.789   3.878  0.6212 -0.1329 -0.8585
 7879TIP3    H223581   5.461   5.724   3.776 -0.2093 -0.9112  0.3360
 7880TIP3   OH223582   5.796   4.221   5.723 -0.9172  0.4836 -0.2874
 7880TIP3    H123583   5.854   4.204   5.649  2.1548  0.6145  1.8883
 7880TIP3    H223584   5.766   4.135   5.750 -1.9272  0.4214 -1.5036
 7881TIP3   OH223585   7.824   2.853   4.971  0.1548 -0.6422 -0.0760
 7881TIP3    H123586   7.845   2.910   4.897  0.6218 -0.0710  0.4903
 7881TIP3    H223587   7.905   2.849   5.022 -0.5693  0.1440  1.1815
 7882TIP3   OH223588   7.152   3.347   5.652  0.1332 -0.1949  0.4174
 7882TIP3    H123589   7.127   3.317   5.739 -1.0849  1.1521  0.5734
 7882TIP3    H223590   7.222   3.411   5.668  0.5149 -0.5874  0.3316
 7883TIP3   OH223591   1.580   6.881   0.375 -0.3820  0.2028 -0.4589
 7883TIP3    H123592   1.675   6.872   0.365 -0.3477  1.5161 -1.5305
 7883TIP3    H223593   1.564   6.975   0.369 -1.8694 -0.0783 -1.4391
 7884TIP3   OH223594   7.192   4.308   2.177 -0.7203  0.2138  0.4272
 7884TIP3    H123595   7.122   4.323   2.240 -0.8543  2.4775 -0.2017
 7884TIP3    H223596   7.261   4.369   2.202  0.0993 -0.3600 -0.3617
 7885TIP3   OH223597   0.357   6.678   0.658 -0.1378 -0.2654  0.3198
 7885TIP3    H123598   0.296   6.750   0.637 -2.1983 -1.7484  0.8587
 7885TIP3    H223599   0.375   6.637   0.573 -3.3974 -2.3911  0.4958
 7886TIP3   OH223600   8.280   4.381   6.316  0.2221  0.2444 -0.2112
 7886TIP3    H123601   8.328   4.456   6.281  1.8504 -1.0299 -0.8504
 7886TIP3    H223602   8.269   4.402   6.409 -1.2657  2.2013 -0.7737
 7887TIP3   OH223603   0.995   6.968   2.945  0.0904 -0.1413 -0.4395
 7887TIP3    H123604   1.062   6.984   2.878  0.0203  1.1293 -0.2454
 7887TIP3    H223605   1.044   6.939   3.022  0.3991  0.4509 -0.4036
 7888TIP3   OH223606   1.376   3.366   4.537  0.4763 -0.0559  0.2723
 7888TIP3    H123607   1.335   3.322   4.462  1.0268  1.0843 -0.7171
 7888TIP3    H223608   1.459   3.320   4.549  0.5463 -0.0119 -0.0419
 7889TIP3   OH223609   2.420   7.573   2.175 -0.4626 -0.6704  0.3508
 7889TIP3    H123610   2.442   7.543   2.263  0.0172  0.3130  0.5765
 7889TIP3    H223611   2.384   7.661   2.188  0.6998 -0.0394 -0.5247
 7890TIP3   OH223612   7.882   6.946   6.376 -0.3187 -0.5615  0.4710
 7890TIP3    H123613   7.789   6.964   6.391 -0.3898 -0.3660 -0.1873
 7890TIP3    H223614   7.889   6.851   6.388 -1.0673 -0.9557 -1.7285
 7891TIP3   OH223615   7.073   7.583   4.132 -0.2312 -0.2804  0.4236
 7891TIP3    H123616   6.981   7.606   4.148 -0.2907  1.0984 -1.5783
 7891TIP3    H223617   7.069   7.493   4.100 -0.8660 -0.2823  0.4840
 7892TIP3   OH223618   2.842   5.514   5.575 -0.2915 -0.1221  0.1850
 7892TIP3    H123619   2.801   5.478   5.496 -0.2964  1.4980 -0.5952
 7892TIP3    H223620   2.770   5.531   5.634 -0.6362  1.3485 -0.6135
 7893TIP3   OH223621   7.666   1.010   3.130  0.0992  0.0602 -0.2202
 7893TIP3    H123622   7.727   1.047   3.194 -0.2407  0.1663  0.0452
 7893TIP3    H223623   7.586   1.061   3.142  0.3867  0.8438 -1.5099
 7894TIP3   OH223624   5.719   4.369   0.596 -0.6886  0.6333  0.0682
 7894TIP3    H123625   5.628   4.385   0.573 -0.4499  1.0210 -0.6754
 7894TIP3    H223626   5.752   4.455   0.622  0.0886  1.0319 -2.0328
 7895TIP3   OH223627   5.578   2.627   0.022  0.3109 -0.0319  0.2571
 7895TIP3    H123628   5.505   2.572  -0.006  0.1707 -0.0654  0.6704
 7895TIP3    H223629   5.550   2.663   0.107  0.4749  0.5292  0.0824
 7896TIP3   OH223630   2.975   4.119   6.736 -0.4674  0.0079 -0.1665
 7896TIP3    H123631   3.038   4.187   6.715 -0.6524  0.5208  0.8987
 7896TIP3    H223632   2.890   4.163   6.734 -0.4498  0.2989  2.3326
 7897TIP3   OH223633   4.904   0.160   1.259 -0.1009 -0.2989  0.1609
 7897TIP3    H123634   4.946   0.081   1.293 -2.2541 -1.6486 -0.1355
 7897TIP3    H223635   4.826   0.171   1.312 -1.8406 -0.5871 -2.1935
 7898TIP3   OH223636   7.001   3.686   0.541  0.1867  0.0004 -0.1522
 7898TIP3    H123637   7.012   3.650   0.453  1.7658 -0.4248  0.1896
 7898TIP3    H223638   7.088   3.717   0.565 -0.2960  0.4113  1.1427
 7899TIP3   OH223639   3.839   4.650   0.409  0.0887 -0.3132  0.6573
 7899TIP3    H123640   3.897   4.599   0.352  2.1948 -0.6812  2.9652
 7899TIP3    H223641   3.758   4.600   0.412  1.1483 -2.1044  0.7253
 7900TIP3   OH223642   2.959   0.872   5.524 -0.9741  0.6201 -0.1020
 7900TIP3    H123643   2.894   0.897   5.589 -1.2223  0.6405 -0.3591
 7900TIP3    H223644   2.951   0.777   5.518 -1.0364  0.6310 -0.1928
 7901TIP3   OH223645   4.351   7.354   5.848 -0.1846  0.0920  0.3351
 7901TIP3    H123646   4.362   7.448   5.863 -1.3144  0.1339  1.0292
 7901TIP3    H223647   4.305   7.349   5.765  2.4144  0.0055 -1.2189
 7902TIP3   OH223648   4.511   5.359   1.839 -0.1319 -0.0402  0.4716
 7902TIP3    H123649   4.463   5.323   1.913 -0.5178  0.3753  0.4298
 7902TIP3    H223650   4.587   5.403   1.878 -0.0694 -0.2470  0.5803
 7903TIP3   OH223651   1.584   5.855   5.168  0.9028 -0.8761 -0.1547
 7903TIP3    H123652   1.639   5.778   5.182  1.3762 -0.4219  0.5975
 7903TIP3    H223653   1.646   5.925   5.146  0.5869 -0.4724  0.2206
 7904TIP3   OH223654   3.032   2.414   0.751  0.6023 -0.5875  0.1279
 7904TIP3    H123655   2.969   2.399   0.822  1.2422 -1.7695  0.4666
 7904TIP3    H223656   3.095   2.342   0.758  4.3860  2.4889  2.3670
 7905TIP3   OH223657   1.599   3.480   3.937  0.2660 -0.6866 -0.6081
 7905TIP3    H123658   1.519   3.495   3.987  0.6463 -0.0626 -0.1871
 7905TIP3    H223659   1.581   3.518   3.851 -0.2741 -1.4964 -0.8735
 7906TIP3   OH223660   2.545   7.624   0.987  0.4471  0.3123  0.3617
 7906TIP3    H123661   2.616   7.578   1.031 -0.6468 -1.3955  0.4235
 7906TIP3    H223662   2.465   7.589   1.026 -0.5071  0.2242 -1.5448
 7907TIP3   OH223663   0.052   1.828   6.501 -0.3965 -0.8056  0.5431
 7907TIP3    H123664   0.106   1.809   6.424 -0.8295 -1.4483  0.3908
 7907TIP3    H223665  -0.015   1.888   6.468 -1.4753 -2.2347  0.0459
 7908TIP3   OH223666   6.495   1.912   6.531 -0.2473 -0.1703  0.2017
 7908TIP3    H123667   6.416   1.945   6.488  0.3167 -0.0702 -0.7892
 7908TIP3    H223668   6.565   1.928   6.467  0.5930 -0.1418  1.1155
 7909TIP3   OH223669   1.640   4.938   3.508  0.1989 -0.1546 -0.0925
 7909TIP3    H123670   1.558   4.978   3.537  1.2499  1.1733  1.1994
 7909TIP3    H223671   1.690   5.010   3.470  2.1627 -0.0614  2.3335
 7910TIP3   OH223672   7.845   1.044   6.234  0.1190  0.0603  0.1509
 7910TIP3    H123673   7.841   0.953   6.264  0.1630  0.2190  0.6357
 7910TIP3    H223674   7.754   1.073   6.234  0.1096  0.0339  0.0357
 7911TIP3   OH223675   2.787   3.878   3.457  0.2772  0.2360 -0.4943
 7911TIP3    H123676   2.732   3.845   3.386 -1.0911  0.5385  0.3751
 7911TIP3    H223677   2.754   3.834   3.535  1.6450  0.0381 -0.0019
 7912TIP3   OH223678   0.710   3.588   0.337 -0.0240 -0.3104  0.5256
 7912TIP3    H123679   0.634   3.533   0.316  0.0068  0.0737 -0.6983
 7912TIP3    H223680   0.759   3.593   0.255  0.7502  0.3345  1.0116
 7913TIP3   OH223681   3.991   4.204   1.907 -0.5704  0.2737 -0.1127
 7913TIP3    H123682   4.066   4.253   1.941 -0.6420 -0.2073  0.7500
 7913TIP3    H223683   3.917   4.264   1.915 -0.5997  0.1358  0.6472
 7914TIP3   OH223684   0.232   3.092   5.173  0.0646 -0.3265 -0.2207
 7914TIP3    H123685   0.156   3.054   5.128 -1.3608  0.1644  1.6471
 7914TIP3    H223686   0.212   3.082   5.266  0.9949  2.2766  0.3456
 7915TIP3   OH223687   8.266   2.819   1.378  0.2012 -0.9537 -0.5340
 7915TIP3    H123688   8.294   2.829   1.287  1.7221 -1.0294 -0.0920
 7915TIP3    H223689   8.174   2.847   1.377  0.8069  1.2894 -1.6637
 7916TIP3   OH223690   7.566   2.079   2.107  0.5377 -0.1133 -0.1991
 7916TIP3    H123691   7.565   2.077   2.203 -0.0913 -0.2039 -0.2039
 7916TIP3    H223692   7.525   1.997   2.081  0.2708  0.1270 -0.5437
 7917TIP3   OH223693   2.998   7.127   3.287 -0.4271  0.8541  0.2635
 7917TIP3    H123694   3.094   7.122   3.293 -0.2774  2.3339 -0.3658
 7917TIP3    H223695   2.969   7.136   3.377 -0.0405 -0.2804  0.5182
 7918TIP3   OH223696   6.194   4.762   1.600 -0.3178 -0.1444  0.5409
 7918TIP3    H123697   6.277   4.724   1.629 -0.4765 -1.2115 -0.3448
 7918TIP3    H223698   6.207   4.857   1.609  0.9293 -0.3048  0.6170
 7919TIP3   OH223699   4.613   0.264   0.654 -0.3938  0.3115 -0.5965
 7919TIP3    H123700   4.563   0.295   0.579  0.1857 -0.7805 -1.4656
 7919TIP3    H223701   4.689   0.219   0.616  0.6937  0.9828  0.6688
 7920TIP3   OH223702   5.906   0.511   3.267 -0.0411 -0.0946 -0.1099
 7920TIP3    H123703   5.940   0.548   3.185  2.4268 -0.4274  0.7030
 7920TIP3    H223704   5.940   0.422   3.269 -2.9130 -1.3271 -0.2742
 7921TIP3   OH223705   6.699   4.653   0.032 -0.0800 -0.1359 -0.0190
 7921TIP3    H123706   6.714   4.623  -0.058 -3.0308 -1.6201 -0.1150
 7921TIP3    H223707   6.786   4.678   0.063  1.0952  0.1548 -3.1531
 7922TIP3   OH223708   2.629   1.126   0.611  0.3050  0.5725 -0.0240
 7922TIP3    H123709   2.546   1.092   0.643  0.4441  0.5895  0.3602
 7922TIP3    H223710   2.669   1.052   0.565  0.2413  0.4571  0.1059
 7923TIP3   OH223711   7.425   2.731   6.029  0.4565 -0.1723  0.2449
 7923TIP3    H123712   7.417   2.641   5.997  0.9070 -0.3639  0.6670
 7923TIP3    H223713   7.376   2.783   5.966  0.4846 -0.6727 -0.1952
 7924TIP3   OH223714   0.806   2.262   0.861  0.3566  0.8411 -0.0234
 7924TIP3    H123715   0.853   2.222   0.789  1.8726 -0.4187  1.5744
 7924TIP3    H223716   0.774   2.345   0.826 -0.2571 -0.3664 -2.5367
 7925TIP3   OH223717   1.353   3.823   6.634  0.2881 -0.6262 -0.1866
 7925TIP3    H123718   1.393   3.898   6.678  2.4564 -1.0103 -1.3624
 7925TIP3    H223719   1.362   3.751   6.696  1.9455 -0.8123 -0.5900
 7926TIP3   OH223720   6.138   7.189   5.023  0.1239  0.0132  0.7338
 7926TIP3    H123721   6.200   7.153   5.086  0.9916  1.9674  1.0465
 7926TIP3    H223722   6.167   7.155   4.938  0.7261 -0.2598  1.0490
 7927TIP3   OH223723   2.107   2.410   4.143  0.1392  0.2653  0.1181
 7927TIP3    H123724   2.022   2.448   4.122  0.5799  2.0821  1.3974
 7927TIP3    H223725   2.158   2.419   4.063 -0.1364  1.3840  0.0553
 7928TIP3   OH223726   2.787   6.581   0.524 -0.3539 -0.1507  0.3028
 7928TIP3    H123727   2.860   6.626   0.481 -0.6035  0.7576  0.8094
 7928TIP3    H223728   2.735   6.546   0.452  0.4627 -0.6324 -0.0677
 7929TIP3   OH223729   7.996   4.034   6.111 -0.3464  0.6955 -0.1105
 7929TIP3    H123730   8.028   4.015   6.022 -1.0416  0.2112 -0.2645
 7929TIP3    H223731   7.989   4.129   6.114 -1.7446  0.6672 -1.1054
 7930TIP3   OH223732   4.806   2.152   0.911 -0.3286 -0.4820  0.0911
 7930TIP3    H123733   4.889   2.189   0.941 -0.3204  0.2062 -0.7478
 7930TIP3    H223734   4.822   2.058   0.906  0.5289 -0.3205 -0.4412
 7931TIP3   OH223735   7.084   0.020   6.518 -0.2928  0.6548  0.4848
 7931TIP3    H123736   7.035   0.058   6.445  0.3584 -1.2684 -1.0401
 7931TIP3    H223737   7.018  -0.023   6.572 -0.6908  1.3838  0.5920
 7932TIP3   OH223738   5.281   3.625   4.674 -0.1845  0.1920 -0.0843
 7932TIP3    H123739   5.369   3.659   4.692 -0.6206  0.5613  1.4063
 7932TIP3    H223740   5.293   3.531   4.666  0.4306  0.2970 -0.5193
 7933TIP3   OH223741   0.862   7.212   4.037  0.3877  0.2223  0.0068
 7933TIP3    H123742   0.773   7.188   4.008  0.9995 -3.4828  0.6703
 7933TIP3    H223743   0.919   7.183   3.966  1.2299  0.3946  0.5994
 7934TIP3   OH223744   4.814   2.697   1.565  0.1598 -0.7836  0.2486
 7934TIP3    H123745   4.745   2.763   1.564 -0.5884 -1.5652 -0.3495
 7934TIP3    H223746   4.871   2.724   1.638 -0.4690  0.1630  0.4119
 7935TIP3   OH223747   0.755   2.235   4.134 -0.5442  0.0751 -0.1483
 7935TIP3    H123748   0.694   2.307   4.120  0.4721  0.9769 -0.0473
 7935TIP3    H223749   0.767   2.232   4.229 -0.5242 -0.1842 -0.1582
 7936TIP3   OH223750   3.243   0.913   5.240  0.0426 -0.4009  0.4669
 7936TIP3    H123751   3.338   0.906   5.225 -0.2725 -2.4671 -1.0623
 7936TIP3    H223752   3.234   0.986   5.300  2.6643 -0.4716  1.0954
 7937TIP3   OH223753   1.560   1.469   6.244  0.0211  0.5803 -0.2559
 7937TIP3    H123754   1.591   1.506   6.161 -0.4965 -1.5470 -1.5031
 7937TIP3    H223755   1.465   1.463   6.233 -0.0929  0.6864  0.6695
 7938TIP3   OH223756   6.118   4.970   4.448  0.5773  0.5025  0.1134
 7938TIP3    H123757   6.212   4.989   4.438  1.2450 -2.5208 -0.2457
 7938TIP3    H223758   6.102   4.980   4.542  1.2158  1.1356  0.1683
 7939TIP3   OH223759   5.915   1.425   5.886  0.0111 -0.6494  0.6401
 7939TIP3    H123760   5.855   1.362   5.846 -0.9326  1.1592 -0.9650
 7939TIP3    H223761   5.870   1.509   5.878  2.7507  0.8257 -0.7242
 7940TIP3   OH223762   4.791   2.998   1.743 -0.3229 -0.0200  0.4575
 7940TIP3    H123763   4.753   3.081   1.772 -0.6143  1.9905 -4.5406
 7940TIP3    H223764   4.722   2.958   1.689  0.2207 -3.0808  1.8300
 7941TIP3   OH223765   3.671   2.050   2.655  0.2967 -0.1372  0.1378
 7941TIP3    H123766   3.580   2.050   2.685  0.6033  2.0416  1.2751
 7941TIP3    H223767   3.665   2.079   2.564 -0.1661 -0.2946  0.1144
 7942TIP3   OH223768   6.443   1.339   5.725 -0.3922 -0.1860  0.0686
 7942TIP3    H123769   6.519   1.369   5.675 -1.1429  0.5059 -0.6986
 7942TIP3    H223770   6.466   1.356   5.817  0.6471 -0.6376 -0.0967
 7943TIP3   OH223771   3.522   5.332   0.599 -0.4758 -0.0975  0.4201
 7943TIP3    H123772   3.450   5.276   0.630  0.8421 -2.6067 -0.7804
 7943TIP3    H223773   3.577   5.274   0.547  2.7885  1.5307  1.7548
 7944TIP3   OH223774   8.287   5.278   5.008  0.3524  0.2343 -0.0456
 7944TIP3    H123775   8.235   5.300   5.085 -1.0266 -2.7807  0.0086
 7944TIP3    H223776   8.339   5.203   5.035  1.0289  0.1100 -1.5953
 7945TIP3   OH223777   1.366   5.172   4.536 -0.5982 -0.0496  0.3902
 7945TIP3    H123778   1.337   5.261   4.514 -0.8860 -0.0269  0.8500
 7945TIP3    H223779   1.445   5.159   4.485 -0.3119  0.6339  0.6525
 7946TIP3   OH223780   5.946   4.475   1.993 -0.2515 -0.3560 -0.1243
 7946TIP3    H123781   5.900   4.475   1.910  0.3727 -0.5575 -0.4779
 7946TIP3    H223782   6.039   4.479   1.969 -0.0050 -1.8513  0.5193
 7947TIP3   OH223783   3.444   4.674   0.552 -0.2788 -0.2461  0.0316
 7947TIP3    H123784   3.356   4.640   0.570 -0.2558  0.2167  1.1402
 7947TIP3    H223785   3.497   4.643   0.625 -0.1649  1.7464  0.8762
 7948TIP3   OH223786   1.657   2.455   3.779  0.1982  0.7918 -0.2952
 7948TIP3    H123787   1.622   2.434   3.865 -1.5108  0.0799 -1.1233
 7948TIP3    H223788   1.710   2.533   3.793 -0.5830  1.0693  1.2763
 7949TIP3   OH223789   7.519   6.273   0.580 -0.1962 -0.5440  0.1898
 7949TIP3    H123790   7.477   6.274   0.666 -1.4631  1.2071 -0.3779
 7949TIP3    H223791   7.525   6.181   0.557 -0.4747 -1.0041  1.8545
 7950TIP3   OH223792   6.387   7.400   4.913  0.2669 -0.1395  0.3374
 7950TIP3    H123793   6.474   7.389   4.876 -0.1236 -0.6407 -0.4616
 7950TIP3    H223794   6.360   7.311   4.938  0.1986  0.0863  1.0783
 7951TIP3   OH223795   5.599   2.514   0.341 -0.1489  0.3828  0.1216
 7951TIP3    H123796   5.618   2.485   0.430  0.4690 -2.4385 -0.8066
 7951TIP3    H223797   5.685   2.532   0.302 -0.0686 -1.6697 -0.8127
 7952TIP3   OH223798   6.776   3.000   6.528 -0.4924 -0.3907 -0.2842
 7952TIP3    H123799   6.744   2.939   6.596  2.3755 -2.7354 -0.8256
 7952TIP3    H223800   6.763   3.087   6.566 -0.5637 -1.5215  2.5936
 7953TIP3   OH223801   3.173   1.189   5.065 -0.5281 -0.0403 -0.4446
 7953TIP3    H123802   3.080   1.174   5.083 -0.4530 -0.4493 -0.4098
 7953TIP3    H223803   3.198   1.122   5.002  0.5633 -2.1263  2.0029
 7954TIP3   OH223804   1.719   1.270   1.356 -0.1687  0.1486 -0.4756
 7954TIP3    H123805   1.748   1.179   1.360 -1.5706 -0.3695 -1.3847
 7954TIP3    H223806   1.781   1.317   1.412  0.5150 -1.3698  0.1093
 7955TIP3   OH223807   6.357   0.062   4.174 -0.6392  0.5712 -0.4922
 7955TIP3    H123808   6.354   0.053   4.079 -3.2278  1.4314 -0.5469
 7955TIP3    H223809   6.319   0.147   4.192  0.2214  0.6243  1.3350
 7956TIP3   OH223810   4.641   5.817   6.144  0.0926 -0.2011 -0.4206
 7956TIP3    H123811   4.578   5.884   6.172 -0.0456 -1.3235  2.2448
 7956TIP3    H223812   4.588   5.749   6.103 -0.2956 -0.5466  0.6365
 7957TIP3   OH223813   0.995   6.009   5.324 -0.1089 -0.4000  0.0231
 7957TIP3    H123814   0.995   5.947   5.397 -0.7047  0.8119  1.0617
 7957TIP3    H223815   1.046   5.964   5.256 -0.5227 -2.0297  0.7413
 7958TIP3   OH223816   4.063   3.693   1.161  0.1997 -0.7194 -0.2408
 7958TIP3    H123817   4.090   3.708   1.251 -0.1333  1.0704 -0.4027
 7958TIP3    H223818   4.103   3.766   1.112 -2.0379  0.0555 -1.0331
 7959TIP3   OH223819   5.970   6.341   3.553 -0.4975 -0.1963  0.4721
 7959TIP3    H123820   6.041   6.277   3.546  0.3497  0.4021  2.7379
 7959TIP3    H223821   5.890   6.289   3.548  0.1695 -1.4116  1.8804
 7960TIP3   OH223822   1.566   5.168   1.914  0.8239  0.3723  0.3503
 7960TIP3    H123823   1.569   5.170   2.009 -0.4703 -0.3600  0.4157
 7960TIP3    H223824   1.583   5.077   1.891  1.6876  0.6430 -0.1680
 7961TIP3   OH223825   3.855   3.576   3.715 -0.0341 -0.0727 -0.2969
 7961TIP3    H123826   3.902   3.598   3.796 -0.2878 -2.2903  0.5265
 7961TIP3    H223827   3.832   3.660   3.677  2.4603  1.0845  0.5332
 7962TIP3   OH223828   0.930   2.120   5.201  0.5410 -0.5079 -0.4336
 7962TIP3    H123829   0.897   2.031   5.194  0.5115 -0.7041  1.6994
 7962TIP3    H223830   0.996   2.127   5.131  0.4451 -2.1384 -0.7191
 7963TIP3   OH223831   0.794   4.968   2.558  0.3084 -0.0018 -0.3768
 7963TIP3    H123832   0.875   4.979   2.607  0.0570  0.1424  0.0091
 7963TIP3    H223833   0.777   5.053   2.518 -0.2672  0.3085  0.4993
 7964TIP3   OH223834   1.665   7.398   1.012  0.2511 -0.0673 -0.0520
 7964TIP3    H123835   1.665   7.474   0.954  1.1650 -0.8762 -1.1510
 7964TIP3    H223836   1.730   7.419   1.079 -2.2449  1.7613  2.0022
 7965TIP3   OH223837   4.774   0.398   3.939 -0.1945 -0.4470  0.1285
 7965TIP3    H123838   4.762   0.370   4.029 -0.5669  1.8719  0.8625
 7965TIP3    H223839   4.843   0.464   3.943 -1.1438  0.6875 -1.0188
 7966TIP3   OH223840   7.988   4.683   0.326 -0.1967 -0.2222  0.3245
 7966TIP3    H123841   7.975   4.686   0.421 -0.4382  0.7760  0.2722
 7966TIP3    H223842   8.075   4.723   0.313  0.7254 -2.1472  0.2656
 7967TIP3   OH223843   7.421   5.226   5.459  0.0071 -0.0922  0.2589
 7967TIP3    H123844   7.485   5.155   5.446 -0.2979 -0.2353 -0.5438
 7967TIP3    H223845   7.381   5.238   5.372 -1.3279 -0.2757  0.8252
 7968TIP3   OH223846   8.238   5.560   2.312  0.2098  0.2111  0.0121
 7968TIP3    H123847   8.234   5.642   2.262 -0.7660  1.3165  1.7857
 7968TIP3    H223848   8.331   5.541   2.320  0.3932  0.1945 -1.8764
 7969TIP3   OH223849   6.057   6.564   1.785 -0.2249 -0.5323  0.0151
 7969TIP3    H123850   6.101   6.603   1.861 -1.4434  1.3096 -0.1582
 7969TIP3    H223851   6.016   6.485   1.819 -1.5439  0.7500  1.5700
 7970TIP3   OH223852   8.012   2.690   5.878  0.4119  0.2291 -0.5919
 7970TIP3    H123853   7.945   2.754   5.903 -1.4757 -2.2601  1.1999
 7970TIP3    H223854   7.964   2.623   5.829  2.2148 -0.0986 -1.9761
 7971TIP3   OH223855   3.851   2.510   3.757  0.0788 -0.2075  0.0659
 7971TIP3    H123856   3.806   2.511   3.672 -0.4703 -0.9678  0.3322
 7971TIP3    H223857   3.780   2.509   3.821  0.4655  2.6613  0.6360
 7972TIP3   OH223858   3.751   0.094   3.013  0.9179  0.2565  0.5077
 7972TIP3    H123859   3.678   0.155   3.022  0.8325  0.1519  0.5235
 7972TIP3    H223860   3.738   0.053   2.928 -0.1154 -1.1582  1.3055
 7973TIP3   OH223861   4.113   6.204   0.646 -0.0204 -0.6809 -0.1522
 7973TIP3    H123862   4.194   6.222   0.599 -1.3455 -2.0517 -3.2519
 7973TIP3    H223863   4.111   6.108   0.654 -2.2034 -0.8810 -2.0445
 7974TIP3   OH223864   0.390   0.127   2.606  0.7043  0.6054  0.3356
 7974TIP3    H123865   0.411   0.135   2.699  0.9071 -0.8487  0.4512
 7974TIP3    H223866   0.337   0.204   2.586  1.2028  1.2759  1.4880
 7975TIP3   OH223867   5.935   4.628   1.345  0.4538 -0.3484  0.0075
 7975TIP3    H123868   5.974   4.709   1.310 -0.4273 -0.3223 -0.9818
 7975TIP3    H223869   6.004   4.563   1.338  0.7177 -0.0129 -0.5628
 7976TIP3   OH223870   6.785   3.030   5.855  0.6413  0.3422  0.2570
 7976TIP3    H123871   6.865   2.985   5.884 -0.8894 -0.9795  2.7689
 7976TIP3    H223872   6.806   3.123   5.863  1.6055  0.0153  1.9036
 7977TIP3   OH223873   2.179   5.087   0.695 -0.1264  0.4231 -0.0822
 7977TIP3    H123874   2.274   5.078   0.684 -0.3217 -2.5636 -0.1122
 7977TIP3    H223875   2.170   5.157   0.760  2.2204 -0.5558  1.4606
 7978TIP3   OH223876   4.012   4.549   1.693  0.0907  0.1535  0.2615
 7978TIP3    H123877   3.935   4.572   1.744  0.4150 -0.2654  0.9584
 7978TIP3    H223878   4.085   4.584   1.744  0.4815 -1.0160  0.5303
 7979TIP3   OH223879   4.247   2.069   6.470 -0.6312  0.2292  0.3607
 7979TIP3    H123880   4.157   2.044   6.450 -0.4006  0.5476 -1.1864
 7979TIP3    H223881   4.285   2.094   6.386  0.8077  0.4391  1.0321
 7980TIP3   OH223882   7.896   7.656   1.263 -0.4321  0.0236 -0.7645
 7980TIP3    H123883   7.845   7.623   1.336  2.3076 -0.8777  0.8915
 7980TIP3    H223884   7.891   7.587   1.197 -0.3229 -0.6269 -0.0998
 7981TIP3   OH223885   3.997   2.662   1.423 -0.3849  0.0861 -0.6632
 7981TIP3    H123886   3.920   2.678   1.369  0.1297  0.8503 -1.2026
 7981TIP3    H223887   4.039   2.748   1.430  1.2744 -0.5891 -1.7357
 7982TIP3   OH223888   4.483   0.021   0.130 -0.0582  0.4928 -0.3475
 7982TIP3    H123889   4.534   0.101   0.135  1.8733 -0.7725  1.9150
 7982TIP3    H223890   4.409   0.036   0.189  0.3548  0.5821  0.1521
 7983TIP3   OH223891   0.081   1.931   3.027 -0.3721 -0.4545 -0.0920
 7983TIP3    H123892   0.011   1.881   3.068  1.4321 -2.6600  0.5083
 7983TIP3    H223893   0.095   2.005   3.087 -0.8597 -1.0890  0.8366
 7984TIP3   OH223894   0.136   5.148   5.445  0.3651  0.1300 -0.2712
 7984TIP3    H123895   0.113   5.231   5.404  0.6091  0.0823 -0.5062
 7984TIP3    H223896   0.222   5.126   5.409  0.9895  0.5193  0.9241
 7985TIP3   OH223897   6.930   3.997   2.812  0.1081 -0.7558 -0.3649
 7985TIP3    H123898   7.000   3.939   2.839  0.2783 -0.7083 -0.7007
 7985TIP3    H223899   6.874   3.943   2.756 -0.7124 -1.0955  0.7564
 7986TIP3   OH223900   4.580   6.830   4.078  0.1044 -0.1652 -0.3940
 7986TIP3    H123901   4.595   6.831   3.983 -0.4288 -0.1043 -0.4813
 7986TIP3    H223902   4.573   6.923   4.101  0.6855 -0.1624 -0.2189
 7987TIP3   OH223903   4.223   0.731   5.916  0.1013 -0.0078 -0.2737
 7987TIP3    H123904   4.130   0.731   5.941 -0.1679 -0.3742 -1.2212
 7987TIP3    H223905   4.229   0.798   5.848  0.6676  0.4508  0.2189
 7988TIP3   OH223906   2.659   4.866   5.172 -0.3089 -0.3843 -0.4308
 7988TIP3    H123907   2.742   4.913   5.160  0.0316 -0.7163  0.5392
 7988TIP3    H223908   2.683   4.788   5.221 -1.1579 -0.6443 -0.4252
 7989TIP3   OH223909   2.283   7.596   5.970 -0.0063 -0.5786 -0.0746
 7989TIP3    H123910   2.278   7.556   6.057 -1.3962  0.4596  0.3656
 7989TIP3    H223911   2.271   7.690   5.986 -1.2382 -0.4645 -1.4490
 7990TIP3   OH223912   3.929   1.468   4.333 -0.1242  0.2318 -0.3565
 7990TIP3    H123913   3.874   1.400   4.372  1.6704 -1.0754 -0.0342
 7990TIP3    H223914   3.923   1.541   4.395 -0.5872 -0.3061  0.2463
 7991TIP3   OH223915   0.749   3.314   0.600 -0.4516  0.0958  0.2282
 7991TIP3    H123916   0.765   3.267   0.682 -1.4599 -2.1468 -0.7565
 7991TIP3    H223917   0.656   3.336   0.603 -0.6896 -0.7319 -0.6222
 7992TIP3   OH223918   6.273   7.598   0.261 -0.1026 -0.7451 -0.1113
 7992TIP3    H123919   6.323   7.642   0.329 -0.7343 -1.5369  0.8821
 7992TIP3    H223920   6.249   7.668   0.200 -0.5867  0.1973  1.1267
 7993TIP3   OH223921   7.728   2.597   6.412  0.5605 -0.0442 -0.5495
 7993TIP3    H123922   7.704   2.644   6.331  0.4362 -2.4097 -1.9622
 7993TIP3    H223923   7.644   2.578   6.453  0.4344 -1.3730 -1.3890
 7994TIP3   OH223924   1.836   5.626   1.540 -0.3336  0.7263 -0.1327
 7994TIP3    H123925   1.774   5.593   1.476 -0.7807  0.8446  0.2320
 7994TIP3    H223926   1.815   5.719   1.548 -0.7114  0.5882  0.6446
 7995TIP3   OH223927   1.623   3.467   0.415  0.6244 -0.1612 -0.6850
 7995TIP3    H123928   1.568   3.393   0.393 -0.7735  0.5899  0.1127
 7995TIP3    H223929   1.688   3.472   0.345  0.0025 -1.3971 -1.3611
 7996TIP3   OH223930   3.457   6.185   3.580 -0.2912  0.2335  0.1768
 7996TIP3    H123931   3.500   6.270   3.580 -1.6825  0.9733 -1.2079
 7996TIP3    H223932   3.364   6.205   3.574 -0.5770 -1.3849 -1.6431
 7997TIP3   OH223933   7.064   3.103   2.477 -0.0089  0.2929  0.0965
 7997TIP3    H123934   6.989   3.151   2.512  1.0405  0.9355  1.5467
 7997TIP3    H223935   7.086   3.039   2.545  0.5512 -0.1299 -0.4629
 7998TIP3   OH223936   5.405   4.439   4.638  0.5476 -0.3652 -0.0658
 7998TIP3    H123937   5.328   4.427   4.583 -0.0887  0.5015  0.6192
 7998TIP3    H223938   5.420   4.534   4.638  0.7296 -0.3828  0.9906
 7999TIP3   OH223939   0.983   1.190   6.031 -0.3798  0.5888 -0.1196
 7999TIP3    H123940   1.009   1.142   5.953 -0.1833  1.0141 -0.3206
 7999TIP3    H223941   0.929   1.128   6.081  0.0589  0.0896 -0.2617
 8000TIP3   OH223942   3.847   2.925   0.267  0.4027 -0.3843 -0.5298
 8000TIP3    H123943   3.875   3.015   0.250 -0.1579 -0.3542 -1.3859
 8000TIP3    H223944   3.804   2.929   0.353 -0.3555  0.3475 -0.9246
 8001TIP3   OH223945   6.616   7.498   6.088 -0.5233  0.5822 -0.0079
 8001TIP3    H123946   6.669   7.439   6.141 -0.9218  0.7066  0.5343
 8001TIP3    H223947   6.656   7.584   6.102 -2.0564  1.0400  2.0432
 8002TIP3   OH223948   6.862   7.481   0.244 -0.3541  0.7904  0.6870
 8002TIP3    H123949   6.776   7.508   0.213  0.9540  1.1642 -3.0411
 8002TIP3    H223950   6.917   7.558   0.232  1.1946 -0.3900 -0.1812
 8003TIP3   OH223951   2.901   2.152   4.392  0.4840  0.1586 -0.3318
 8003TIP3    H123952   2.829   2.213   4.375  1.3346  1.8450  1.6698
 8003TIP3    H223953   2.976   2.190   4.348  0.8215  0.1107  0.1851
 8004TIP3   OH223954   6.067   4.908   4.061 -0.3988 -0.1300 -0.1085
 8004TIP3    H123955   6.130   4.868   4.121 -0.4474  0.1958  0.1669
 8004TIP3    H223956   6.120   4.940   3.988 -0.1453  0.7309  0.4320
 8005TIP3   OH223957   3.554   4.550   0.127 -0.2817 -0.3489  0.1785
 8005TIP3    H123958   3.557   4.525   0.219  0.3894  0.2644  0.3411
 8005TIP3    H223959   3.558   4.646   0.129 -1.6109 -0.2675 -0.4493
 8006TIP3   OH223960   6.436   4.703   5.057 -0.5602  0.4037  0.8464
 8006TIP3    H123961   6.350   4.742   5.040 -0.1164  1.6137  1.2685
 8006TIP3    H223962   6.416   4.619   5.098 -1.5972  1.8945  3.6890
 8007TIP3   OH223963   1.905   3.254   5.509  0.3942 -0.3431  0.2380
 8007TIP3    H123964   1.864   3.182   5.557 -1.9604  0.9191  0.2638
 8007TIP3    H223965   1.941   3.311   5.576  0.7584 -0.6236  0.2861
 8008TIP3   OH223966   4.735   0.571   6.441  0.2540 -0.3208  0.3969
 8008TIP3    H123967   4.695   0.592   6.357  0.7525 -0.3295  0.1542
 8008TIP3    H223968   4.830   0.573   6.424  0.3510 -0.6364  0.8788
 8009TIP3   OH223969   1.533   3.596   6.419  0.5232 -0.7173 -0.0111
 8009TIP3    H123970   1.490   3.538   6.356  0.9286  1.1233 -2.1115
 8009TIP3    H223971   1.486   3.581   6.501  0.2969 -3.5900 -0.5360
 8010TIP3   OH223972   7.195   3.476   1.662 -0.1189 -0.4614  0.3429
 8010TIP3    H123973   7.145   3.558   1.659  2.8716  1.4895 -0.9614
 8010TIP3    H223974   7.190   3.442   1.572  0.5168 -0.4751  0.3096
 8011TIP3   OH223975   2.787   7.789   4.537 -0.2222  0.3973  0.1309
 8011TIP3    H123976   2.836   7.857   4.582 -0.8150  1.3461 -0.6034
 8011TIP3    H223977   2.846   7.756   4.469 -0.8077  2.1405 -1.3252
 8012TIP3   OH223978   1.873   4.572   4.923 -0.0592  0.4301  0.0517
 8012TIP3    H123979   1.821   4.587   5.003 -1.4190  1.3857 -0.9558
 8012TIP3    H223980   1.885   4.477   4.920 -0.9338  0.2680  0.8305
 8013TIP3   OH223981   4.770   2.512   5.815  0.2746 -0.0765 -0.1015
 8013TIP3    H123982   4.861   2.483   5.822 -0.2174 -1.8596 -0.8134
 8013TIP3    H223983   4.775   2.596   5.770  1.6159  0.2989  0.6831
 8014TIP3   OH223984   4.979   0.957   5.437 -0.0585 -0.3242  0.3990
 8014TIP3    H123985   4.913   0.960   5.367 -2.3629  0.3294  2.4513
 8014TIP3    H223986   4.987   1.047   5.467  2.0948 -0.3338  0.0167
 8015TIP3   OH223987   0.792   0.307   2.711  0.1832  0.2068 -0.6304
 8015TIP3    H123988   0.729   0.325   2.781  0.7313  3.6186 -0.8410
 8015TIP3    H223989   0.869   0.273   2.757  0.2575  1.6451  0.3721
 8016TIP3   OH223990   7.827   6.183   5.312 -0.0374 -0.6604 -0.2575
 8016TIP3    H123991   7.817   6.143   5.225 -1.3950  0.5378 -0.6959
 8016TIP3    H223992   7.871   6.116   5.364  1.9417 -0.9555 -2.1657
 8017TIP3   OH223993   5.942   2.742   1.736  0.1311  0.2054 -0.7485
 8017TIP3    H123994   6.029   2.717   1.767 -1.1896 -2.9275  0.9054
 8017TIP3    H223995   5.935   2.701   1.649  0.2401  0.3166 -0.8096
 8018TIP3   OH223996   7.389   7.616   6.037  0.2163  0.4303  0.0856
 8018TIP3    H123997   7.310   7.639   6.085 -0.2548 -0.7033 -0.1015
 8018TIP3    H223998   7.438   7.560   6.097  0.7395  0.8821  0.0879
 8019TIP3   OH223999   4.502   5.821   2.837 -0.4746  0.0470 -0.1987
 8019TIP3    H124000   4.490   5.748   2.777  0.0230 -0.9011  0.8196
 8019TIP3    H224001   4.597   5.824   2.852 -0.4829  0.9294 -0.2470
 8020TIP3   OH224002   5.997   4.166   3.072 -0.4916  0.0422 -0.4642
 8020TIP3    H124003   5.998   4.071   3.084 -3.0684 -0.2002 -1.4597
 8020TIP3    H224004   6.007   4.179   2.978 -1.0876  0.6855 -0.4506
 8021TIP3   OH224005   2.513   3.372   5.886 -0.1147  0.5105  0.0598
 8021TIP3    H124006   2.544   3.462   5.884  0.3987  0.3527  0.6314
 8021TIP3    H224007   2.579   3.322   5.838  0.5197  0.1867  1.2097
 8022TIP3   OH224008   1.502   3.490   0.800  0.4560  0.2223  0.3328
 8022TIP3    H124009   1.536   3.580   0.799 -0.4556  0.5815 -0.8004
 8022TIP3    H224010   1.580   3.435   0.802  1.0567  1.0408  0.0630
 8023TIP3   OH224011   2.312   2.141   5.802  0.1864 -0.5117  0.3176
 8023TIP3    H124012   2.289   2.077   5.736 -0.4789  0.7327 -0.6846
 8023TIP3    H224013   2.320   2.224   5.755 -1.0351  0.5607  1.8850
 8024TIP3   OH224014   2.467   5.890   4.217 -0.6434 -0.4944 -0.0137
 8024TIP3    H124015   2.444   5.847   4.299  0.0532  2.0383  1.6272
 8024TIP3    H224016   2.383   5.907   4.174 -0.9857 -2.3238 -0.1251
 8025TIP3   OH224017   7.088   1.178   6.298  0.4620  0.4251  0.2849
 8025TIP3    H124018   7.046   1.242   6.240  0.5641  1.3636  1.2115
 8025TIP3    H224019   7.038   1.182   6.379  1.1563  0.1467  0.7398
 8026TIP3   OH224020   2.340   5.410   5.699 -0.0226 -0.4763 -0.4291
 8026TIP3    H124021   2.372   5.412   5.609  1.8122  1.6556  0.1674
 8026TIP3    H224022   2.257   5.458   5.696  0.0074 -0.4565 -0.9840
 8027TIP3   OH224023   7.440   1.958   6.093  0.3309 -0.2548 -0.1197
 8027TIP3    H124024   7.440   1.863   6.079 -1.4560 -0.6597  2.1732
 8027TIP3    H224025   7.372   1.991   6.033  1.0908 -0.3502 -1.0659
 8028TIP3   OH224026   4.416   3.731   5.325 -0.0571 -0.5650 -0.6360
 8028TIP3    H124027   4.373   3.755   5.407 -0.0631  1.4644 -1.1798
 8028TIP3    H224028   4.403   3.807   5.268  3.1143 -0.3461 -1.2557
 8029TIP3   OH224029   1.329   4.844   3.671  0.3805 -0.0477 -0.2741
 8029TIP3    H124030   1.263   4.898   3.715  1.4189  0.4965  0.6749
 8029TIP3    H224031   1.390   4.820   3.740  1.2460 -0.4389 -1.1539
 8030TIP3   OH224032   5.185   7.228   6.600 -0.5596 -0.3297  0.1435
 8030TIP3    H124033   5.208   7.142   6.635  0.8151 -0.9478 -2.0853
 8030TIP3    H224034   5.089   7.230   6.604 -0.5467 -1.0772  2.1076
 8031TIP3   OH224035   2.357   7.419   3.019 -0.7098 -0.2165  0.7336
 8031TIP3    H124036   2.430   7.467   2.980 -1.3090 -0.9824 -1.5036
 8031TIP3    H224037   2.390   7.330   3.031 -0.6484 -0.0732  1.6538
 8032TIP3   OH224038   0.284   0.224   1.004 -0.4205 -0.2147  0.1311
 8032TIP3    H124039   0.220   0.251   0.938 -0.5906  0.3928  0.5294
 8032TIP3    H224040   0.277   0.291   1.072  2.4195  1.3711 -0.9490
 8033TIP3   OH224041   4.864   2.957   3.479 -0.2683  0.3386 -0.3276
 8033TIP3    H124042   4.877   3.013   3.402  0.0915  0.8599  0.1080
 8033TIP3    H224043   4.948   2.960   3.525 -0.7917  0.8605  0.6292
 8034TIP3   OH224044   1.203   2.668   5.007 -0.0642  0.6030 -0.3015
 8034TIP3    H124045   1.169   2.748   5.048 -0.0240  0.7317 -0.5190
 8034TIP3    H224046   1.294   2.688   4.985 -0.6848  1.3199 -2.4537
 8035TIP3   OH224047   5.400   7.748   4.073  0.0873  0.1745  0.0310
 8035TIP3    H124048   5.361   7.746   3.986  2.4391 -3.4085 -1.1631
 8035TIP3    H224049   5.446   7.832   4.077 -3.0362  2.0622 -0.5811
 8036TIP3   OH224050   1.154   3.351   0.140 -0.2626 -0.0296  0.3763
 8036TIP3    H124051   1.090   3.376   0.207 -0.8933  1.5626 -0.7652
 8036TIP3    H224052   1.212   3.426   0.132 -1.7471  0.9638 -2.6131
 8037TIP3   OH224053   0.782   6.446   2.156  0.2390 -0.4757 -0.5214
 8037TIP3    H124054   0.707   6.433   2.097 -0.5095  0.3342  0.2281
 8037TIP3    H224055   0.846   6.494   2.103 -0.7717  1.0026 -0.4490
 8038TIP3   OH224056   0.635   7.042   3.483 -0.2266  0.4003 -0.2246
 8038TIP3    H124057   0.713   7.095   3.468 -0.1627 -0.0825 -1.7378
 8038TIP3    H224058   0.656   6.990   3.560  1.4365 -0.5734 -1.2791
 8039TIP3   OH224059   2.677   3.043   2.344  0.1239  0.8937 -0.2778
 8039TIP3    H124060   2.684   3.127   2.300  4.1566 -0.3851 -2.6096
 8039TIP3    H224061   2.723   3.055   2.427  0.6630  1.0332 -0.5919
 8040TIP3   OH224062   1.019   4.984   2.736 -0.1705 -0.0570  0.2551
 8040TIP3    H124063   1.113   4.985   2.721 -0.4583 -0.3512 -1.9415
 8040TIP3    H224064   1.004   4.906   2.790  0.8974  0.4811  1.3814
 8041TIP3   OH224065   0.295   3.295   0.464  0.0261  0.1942  0.1039
 8041TIP3    H124066   0.303   3.238   0.387 -0.4888 -0.1604  0.3023
 8041TIP3    H224067   0.225   3.356   0.441 -1.4891 -1.1389  1.0115
 8042TIP3   OH224068   6.456   5.481   6.570  0.3869 -0.1274 -0.4210
 8042TIP3    H124069   6.501   5.435   6.642  0.4916  0.6302  0.0053
 8042TIP3    H224070   6.397   5.415   6.533  0.6357 -0.6475  0.0938
 8043TIP3   OH224071   6.391   7.652   3.071  0.1190  0.1004  0.3727
 8043TIP3    H124072   6.431   7.701   3.143  1.3917  0.7766 -0.7459
 8043TIP3    H224073   6.355   7.720   3.014 -0.0507 -0.3880 -0.1013
 8044TIP3   OH224074   4.832   7.182   2.498 -0.5966  0.3107  0.1946
 8044TIP3    H124075   4.827   7.264   2.547 -0.2882  1.2906 -1.3399
 8044TIP3    H224076   4.920   7.183   2.460  0.2207 -1.7881  1.8630
 8045TIP3   OH224077   0.835   0.432   1.049 -0.1536  0.0623 -0.4124
 8045TIP3    H124078   0.822   0.476   1.133  1.2605 -2.0886  1.0403
 8045TIP3    H224079   0.747   0.412   1.019 -0.6786 -0.1663  1.1635
 8046TIP3   OH224080   1.586   1.937   1.554 -0.4029  0.3157  0.3386
 8046TIP3    H124081   1.570   1.847   1.584 -1.2020  0.1121 -0.6422
 8046TIP3    H224082   1.512   1.956   1.497 -0.6815  1.9150  1.1774
 8047TIP3   OH224083   5.464   2.973   0.016  0.8231  0.5607 -0.2941
 8047TIP3    H124084   5.389   3.033   0.015 -0.0432 -0.4492 -2.9506
 8047TIP3    H224085   5.435   2.899   0.069  0.6352  0.9268  0.1305
 8048TIP3   OH224086   1.577   2.179   6.515  0.2285  0.6292  0.2020
 8048TIP3    H124087   1.563   2.274   6.520 -0.0396  0.5666  0.6360
 8048TIP3    H224088   1.536   2.144   6.593  0.3622  0.1529  0.0635
 8049TIP3   OH224089   5.023   4.026   4.528 -0.3906 -0.0609 -0.0263
 8049TIP3    H124090   5.042   3.936   4.503 -0.8026  0.2105 -1.4071
 8049TIP3    H224091   5.095   4.050   4.586 -1.4648 -1.9929  2.2756
 8050TIP3   OH224092   1.851   1.449   0.733  0.6100  0.3909 -0.0541
 8050TIP3    H124093   1.939   1.468   0.766  0.8805 -0.6763 -0.1328
 8050TIP3    H224094   1.792   1.483   0.800  1.1330 -1.3709  1.3634
 8051TIP3   OH224095   3.731   1.462   5.037  0.1161  0.3840 -0.1221
 8051TIP3    H124096   3.804   1.521   5.020  0.3354 -0.0426 -0.7024
 8051TIP3    H224097   3.672   1.511   5.094  0.8079  0.7675  0.2665
 8052TIP3   OH224098   3.894   3.207   2.656 -0.1196  0.1536 -0.4879
 8052TIP3    H124099   3.934   3.145   2.595  1.0586 -0.4686  0.8435
 8052TIP3    H224100   3.801   3.185   2.655  0.1475 -1.0300 -0.7322
 8053TIP3   OH224101   3.857   7.020   3.746  0.4116  0.3021  0.2328
 8053TIP3    H124102   3.896   7.045   3.830 -1.0016  0.7195  0.7949
 8053TIP3    H224103   3.910   7.065   3.680  0.5884  1.2132  0.9869
 8054TIP3   OH224104   4.730   3.164   0.960  0.0581 -0.2329 -0.0096
 8054TIP3    H124105   4.754   3.088   1.014 -0.1243  0.4414  1.0562
 8054TIP3    H224106   4.637   3.176   0.977 -0.0001 -0.0102 -0.4840
 8055TIP3   OH224107   8.078   7.195   1.211  0.3241 -0.5713  0.0904
 8055TIP3    H124108   8.003   7.251   1.231  1.5890  0.6299  1.8425
 8055TIP3    H224109   8.067   7.120   1.269  0.4371 -0.4175  0.3134
 8056TIP3   OH224110   5.901   2.332   2.795 -0.2773  0.1553 -0.1108
 8056TIP3    H124111   5.951   2.338   2.877 -2.4678 -1.4239  1.4691
 8056TIP3    H224112   5.858   2.418   2.787 -0.8457  0.0008  1.0130
 8057TIP3   OH224113   0.282   6.400   4.633  0.6737  0.5568  0.0825
 8057TIP3    H124114   0.368   6.431   4.662  1.1513 -0.1482 -0.5164
 8057TIP3    H224115   0.283   6.307   4.653 -0.2625  0.6874  0.7615
 8058TIP3   OH224116   1.408   1.750   4.412  0.4272  0.0847 -0.0117
 8058TIP3    H124117   1.418   1.840   4.383  1.7390 -0.2391 -0.6173
 8058TIP3    H224118   1.471   1.740   4.483  1.0742 -0.6540 -0.6709
 8059TIP3   OH224119   5.147   1.938   3.326 -0.1904 -0.2301 -0.2768
 8059TIP3    H124120   5.171   2.029   3.344  0.1646 -0.1403 -1.1755
 8059TIP3    H224121   5.188   1.889   3.397  1.1152  0.1315 -0.7443
 8060TIP3   OH224122   2.413   7.703   6.255  0.8166  0.2658 -0.4920
 8060TIP3    H124123   2.419   7.707   6.350 -0.7130  1.6506 -0.4144
 8060TIP3    H224124   2.381   7.614   6.237  0.5633  0.1875  0.3198
 8061TIP3   OH224125   6.689   1.922   6.239 -0.0477 -0.4632  0.5849
 8061TIP3    H124126   6.746   1.899   6.312  1.7748 -1.5828 -1.0876
 8061TIP3    H224127   6.719   1.868   6.166  0.1739  2.5889 -1.8251
 8062TIP3   OH224128   4.809   4.412   3.719  0.1876  0.0968  0.8273
 8062TIP3    H124129   4.859   4.338   3.684 -0.4110 -0.7594  1.7337
 8062TIP3    H224130   4.845   4.425   3.806  0.5332  1.1334  0.5461
 8063TIP3   OH224131   2.611   1.304   5.676 -0.0463 -0.2119 -0.5460
 8063TIP3    H124132   2.608   1.251   5.596  0.6100  0.7080 -1.2089
 8063TIP3    H224133   2.656   1.249   5.740 -0.5089 -0.9332 -0.8335
 8064TIP3   OH224134   0.226   1.521   2.386  0.1517 -0.4784 -0.5336
 8064TIP3    H124135   0.286   1.583   2.428 -0.3797 -0.3387  0.0241
 8064TIP3    H224136   0.188   1.471   2.459 -1.4443  0.3595 -0.7424
 8065TIP3   OH224137   3.770   1.392   2.174  0.3062  0.3041 -0.4135
 8065TIP3    H124138   3.783   1.297   2.164 -1.1512 -0.1154  1.1962
 8065TIP3    H224139   3.829   1.417   2.245 -0.9826  0.1000  0.7825
 8066TIP3   OH224140   7.260   1.306   0.530 -0.1369 -0.1536 -0.1968
 8066TIP3    H124141   7.350   1.319   0.560 -0.2775 -1.5536  0.9576
 8066TIP3    H224142   7.208   1.319   0.609 -1.0333  1.1889 -0.9660
 8067TIP3   OH224143   7.295   0.649   3.333 -0.0886 -0.1896 -0.3302
 8067TIP3    H124144   7.296   0.731   3.282  1.2936 -0.4401 -0.7363
 8067TIP3    H224145   7.203   0.621   3.331 -0.6462  1.4991  0.0711
 8068TIP3   OH224146   3.910   2.055   5.615 -0.0645 -0.1691  0.3359
 8068TIP3    H124147   3.990   2.003   5.607 -0.3099 -0.3977 -0.6209
 8068TIP3    H224148   3.930   2.137   5.571 -0.2986 -0.1559  0.2522
 8069TIP3   OH224149   0.407   5.169   2.068  0.2079  0.6726  0.2612
 8069TIP3    H124150   0.460   5.246   2.048  1.8230  0.0391  1.7955
 8069TIP3    H224151   0.320   5.203   2.085  0.6555  2.0392 -0.1119
 8070TIP3   OH224152   6.398   0.761   5.135  0.2424 -0.7961 -0.1326
 8070TIP3    H124153   6.484   0.777   5.094 -0.6244 -0.1151 -1.7786
 8070TIP3    H224154   6.391   0.665   5.137  1.0247 -0.8609 -0.0248
 8071TIP3   OH224155   4.513   2.561   0.354 -0.7039  0.0745  0.2157
 8071TIP3    H124156   4.598   2.602   0.336  0.0732 -1.0081  1.2784
 8071TIP3    H224157   4.469   2.622   0.414 -0.7685  0.7190 -0.4674
 8072TIP3   OH224158   6.527   5.152   6.194 -0.0464 -0.0210 -0.1711
 8072TIP3    H124159   6.487   5.239   6.186  1.6743  0.8628  0.3401
 8072TIP3    H224160   6.615   5.163   6.160 -0.3102 -2.0167 -1.6263
 8073TIP3   OH224161   4.506   7.582   3.455 -0.1506  0.4854 -0.2225
 8073TIP3    H124162   4.569   7.611   3.390  0.8570  2.3697  1.4702
 8073TIP3    H224163   4.547   7.505   3.495  0.2581  0.6442 -0.3300
 8074TIP3   OH224164   8.186   5.190   3.566  0.5645 -0.7988  0.5841
 8074TIP3    H124165   8.180   5.269   3.512 -2.7534 -1.3827 -0.1074
 8074TIP3    H224166   8.230   5.126   3.510  1.3234 -0.1039  0.3607
 8075TIP3   OH224167   8.123   6.535   1.318  0.5421 -0.3518  0.2337
 8075TIP3    H124168   8.126   6.625   1.352  0.1579 -0.1370 -0.2824
 8075TIP3    H224169   8.034   6.505   1.338  0.1610 -0.0648 -0.9465
 8076TIP3   OH224170   1.205   2.996   3.548 -0.2984 -0.1636  0.7191
 8076TIP3    H124171   1.120   2.979   3.509 -0.2008  1.8169 -0.4731
 8076TIP3    H224172   1.197   2.964   3.638 -2.0006 -0.7734  0.3818
 8077TIP3   OH224173   3.511   6.768   1.203  0.3870 -0.2955 -0.2809
 8077TIP3    H124174   3.475   6.857   1.204 -0.0847 -0.4728 -0.7236
 8077TIP3    H224175   3.491   6.736   1.115  3.0281  0.1380 -1.1154
 8078TIP3   OH224176   1.594   6.199   3.762  0.0454 -0.7854  0.1182
 8078TIP3    H124177   1.587   6.158   3.676 -0.0725 -1.8344  0.6094
 8078TIP3    H224178   1.687   6.217   3.772  0.3372 -2.3149  0.4837
 8079TIP3   OH224179   4.184   2.075   0.767 -0.5321  0.1867 -0.0896
 8079TIP3    H124180   4.100   2.028   0.760 -0.0205 -0.8960  0.6869
 8079TIP3    H224181   4.188   2.103   0.858 -0.3409  0.8301 -0.2906
 8080TIP3   OH224182   1.664   7.146   0.902 -0.0759  0.1529  0.0466
 8080TIP3    H124183   1.629   7.148   0.813  1.4764  0.5478 -0.5899
 8080TIP3    H224184   1.653   7.235   0.934  0.5164  0.3233 -0.2229
 8081TIP3   OH224185   7.139   4.441   3.347  0.6188  0.1162 -0.3452
 8081TIP3    H124186   7.187   4.489   3.414 -0.8713  0.3037  0.6517
 8081TIP3    H224187   7.196   4.443   3.270  2.0195  0.6134  0.6595
 8082TIP3   OH224188   0.756   6.622   4.438  0.2477  0.6020  0.1923
 8082TIP3    H124189   0.831   6.634   4.497  0.6798  1.0828 -0.4466
 8082TIP3    H224190   0.785   6.659   4.354  0.3418 -1.7500 -0.8827
 8083TIP3   OH224191   1.703   7.727   0.683 -0.0049  0.3668 -0.1525
 8083TIP3    H124192   1.723   7.781   0.760  1.0806 -0.2368  0.0140
 8083TIP3    H224193   1.664   7.647   0.718 -1.6695  1.0217 -0.4038
 8084TIP3   OH224194   6.860   7.256   6.039  0.0105 -0.4535 -0.2459
 8084TIP3    H124195   6.921   7.195   5.999 -1.7728 -1.6045 -1.3687
 8084TIP3    H224196   6.880   7.340   5.997  2.2728 -0.2442  1.0838
 8085TIP3   OH224197   3.841   1.068   4.609 -0.1757 -0.1029  0.0849
 8085TIP3    H124198   3.816   0.985   4.570 -0.5402 -0.3049  0.7472
 8085TIP3    H224199   3.773   1.087   4.673 -1.0926  1.6005 -1.2967
 8086TIP3   OH224200   4.379   5.033   4.294 -0.2105 -0.1746  0.4591
 8086TIP3    H124201   4.398   5.102   4.359 -0.3258 -0.1232  0.4389
 8086TIP3    H224202   4.426   5.061   4.215 -1.3111  0.5688  0.0388
 8087TIP3   OH224203   5.045   2.534   5.027 -0.1408  0.7047  0.1350
 8087TIP3    H124204   5.045   2.439   5.016 -0.7280  0.5172  1.5069
 8087TIP3    H224205   5.137   2.556   5.040 -0.0815  0.2045  0.6168
 8088TIP3   OH224206   4.865   5.393   5.352 -0.1391  0.0720 -0.4996
 8088TIP3    H124207   4.797   5.451   5.386 -1.0907  0.8739 -3.5115
 8088TIP3    H224208   4.856   5.313   5.404 -1.0775  1.3375  1.4277
 8089TIP3   OH224209   0.487   4.384   3.014  0.2194 -0.1870 -0.1020
 8089TIP3    H124210   0.517   4.466   2.975  0.4915 -0.7307 -1.0570
 8089TIP3    H224211   0.566   4.330   3.021  0.5341  0.4664  2.7802
 8090TIP3   OH224212   3.330   6.833   3.218 -0.5972  0.1925  0.0444
 8090TIP3    H124213   3.365   6.778   3.148  0.1725 -0.8956  1.2315
 8090TIP3    H224214   3.255   6.784   3.252 -1.6451  1.2312 -0.6946
 8091TIP3   OH224215   4.884   0.174   4.962 -0.1074 -0.0462 -0.4882
 8091TIP3    H124216   4.956   0.232   4.990 -1.3348  1.3708 -0.1288
 8091TIP3    H224217   4.827   0.168   5.039 -1.9759  1.4521 -1.6545
 8092TIP3   OH224218   2.216   1.384   3.602  0.5031 -0.0701 -0.2664
 8092TIP3    H124219   2.166   1.442   3.659  0.3378 -1.3530  0.9589
 8092TIP3    H224220   2.295   1.433   3.580  0.4481  0.5571  0.8734
 8093TIP3   OH224221   3.179   4.823   3.345  0.0127 -0.4541 -0.2050
 8093TIP3    H124222   3.258   4.854   3.301  0.7857  0.3162  1.6318
 8093TIP3    H224223   3.208   4.752   3.402 -1.1220 -2.0579 -1.5035
 8094TIP3   OH224224   6.752   6.644   3.376 -0.1734  0.0986 -0.2596
 8094TIP3    H124225   6.809   6.706   3.422 -0.1746  0.2826 -0.5034
 8094TIP3    H224226   6.695   6.608   3.444  0.7087 -0.6219  0.1115
 8095TIP3   OH224227   1.814   6.754   1.659  0.5228  0.3358  0.0182
 8095TIP3    H124228   1.824   6.659   1.655 -0.2249  0.2493  0.0762
 8095TIP3    H224229   1.903   6.788   1.649  0.5493 -0.2767 -2.6647
 8096TIP3   OH224230   2.346   4.965   5.954  0.3937  0.1132  0.1628
 8096TIP3    H124231   2.303   4.948   6.038 -0.4845 -0.6045 -0.4102
 8096TIP3    H224232   2.326   5.057   5.935  0.1313  0.1237  0.4797
 8097TIP3   OH224233   2.180   4.304   1.154 -0.1034  0.5188  0.4134
 8097TIP3    H124234   2.230   4.223   1.164 -2.5546 -1.2834 -0.8546
 8097TIP3    H224235   2.126   4.309   1.233  1.9799  2.5576  1.8701
 8098TIP3   OH224236   5.437   2.194   5.658  0.3779 -0.3183  0.0293
 8098TIP3    H124237   5.501   2.202   5.729 -0.2410  1.6229  0.4265
 8098TIP3    H224238   5.355   2.174   5.702  0.0653  0.5315 -0.1476
 8099TIP3   OH224239   4.665   2.014   1.375 -0.5581  0.3259  0.2229
 8099TIP3    H124240   4.723   2.087   1.397 -0.6571  0.1974  0.9519
 8099TIP3    H224241   4.671   1.956   1.451 -1.4912  0.2193  0.2178
 8100TIP3   OH224242   3.972   0.280   3.461  0.3772 -1.1462  0.3326
 8100TIP3    H124243   3.988   0.374   3.469 -4.3620  0.3148 -2.6827
 8100TIP3    H224244   4.024   0.254   3.384 -1.4107  0.2239 -1.4538
 8101TIP3   OH224245   4.677   5.234   3.363  0.2500 -0.2294 -0.1459
 8101TIP3    H124246   4.749   5.283   3.403 -0.0549  0.3633 -0.3182
 8101TIP3    H224247   4.669   5.155   3.417  1.2119 -0.4395 -0.3018
 8102TIP3   OH224248   0.293   1.316   4.813 -0.3630 -0.4017  0.0972
 8102TIP3    H124249   0.210   1.328   4.768 -0.0538 -1.2174 -0.7133
 8102TIP3    H224250   0.358   1.311   4.743  0.2883 -0.4539  0.6906
 8103TIP3   OH224251   0.941   2.584   0.600  0.2949 -0.6708  0.7441
 8103TIP3    H124252   1.006   2.648   0.628  1.7301 -1.2297 -1.1106
 8103TIP3    H224253   0.858   2.633   0.599  1.2386  0.9671  0.0419
 8104TIP3   OH224254   3.310   2.176   3.083  0.8801  0.1260 -0.2252
 8104TIP3    H124255   3.224   2.147   3.050  1.5141 -2.1065 -0.0750
 8104TIP3    H224256   3.314   2.269   3.061 -2.4539  0.8792  1.6081
 8105TIP3   OH224257   2.411   5.685   3.220 -0.7345 -0.6442 -0.7572
 8105TIP3    H124258   2.492   5.668   3.173  0.2223  1.8222 -0.1362
 8105TIP3    H224259   2.401   5.780   3.218 -0.0899 -0.1481  4.6419
 8106TIP3   OH224260   5.308   6.786   3.446 -0.1257 -0.6189  0.3030
 8106TIP3    H124261   5.389   6.833   3.426 -1.4350 -0.0626 -5.2519
 8106TIP3    H224262   5.242   6.855   3.455 -0.8938 -1.1242 -1.1284
 8107TIP3   OH224263   4.274   5.769   5.167  0.1991  0.0220 -0.0493
 8107TIP3    H124264   4.352   5.789   5.116 -0.9932  0.3071 -1.8413
 8107TIP3    H224265   4.270   5.838   5.233  0.9847  0.5057 -0.4981
 8108TIP3   OH224266   7.241   2.932   5.823 -0.4393 -0.3034 -0.4836
 8108TIP3    H124267   7.176   2.890   5.767 -1.6418 -0.0202  0.6577
 8108TIP3    H224268   7.196   3.009   5.859  0.9635  0.6562 -0.6983
 8109TIP3   OH224269   4.666   0.825   6.198  0.0904 -0.4161  0.2976
 8109TIP3    H124270   4.574   0.806   6.180  0.5485 -0.3765 -2.4460
 8109TIP3    H224271   4.678   0.915   6.168  0.9129 -0.2135  1.1808
 8110TIP3   OH224272   2.894   0.274   2.963 -0.0149 -0.1569  0.1086
 8110TIP3    H124273   2.812   0.322   2.952 -0.1741 -0.2837  0.7144
 8110TIP3    H224274   2.943   0.291   2.882 -0.0416  1.0575  0.3369
 8111TIP3   OH224275   2.090   7.394   3.702  0.3065 -0.1675  0.3974
 8111TIP3    H124276   2.031   7.398   3.777  0.2102 -2.1187  0.4774
 8111TIP3    H224277   2.156   7.461   3.720 -1.8382  2.1548  0.2714
 8112TIP3   OH224278   3.542   7.024   0.536 -0.1883  0.8508 -0.4910
 8112TIP3    H124279   3.628   7.063   0.521  0.5075 -1.1056 -1.9721
 8112TIP3    H224280   3.496   7.036   0.453  0.1294 -1.5439 -1.0673
 8113TIP3   OH224281   4.030   4.294   5.569  0.7232 -1.0453  0.1102
 8113TIP3    H124282   3.938   4.318   5.553  0.0150 -3.0211  0.8200
 8113TIP3    H224283   4.081   4.363   5.527 -1.0859  0.5730  0.4329
 8114TIP3   OH224284   5.170   4.211   1.882  0.7632 -0.1715  0.1636
 8114TIP3    H124285   5.224   4.174   1.812  0.6735  0.4064 -0.2196
 8114TIP3    H224286   5.199   4.302   1.889  0.6912 -0.1938  0.8050
 8115TIP3   OH224287   5.526   2.420   4.892  0.3099 -0.0292 -0.2869
 8115TIP3    H124288   5.511   2.471   4.813  1.6596  0.1758 -0.4210
 8115TIP3    H224289   5.594   2.467   4.940  0.0968 -0.5856  0.6036
 8116TIP3   OH224290   0.800   1.191   3.247  0.2475 -0.0178 -0.7407
 8116TIP3    H124291   0.873   1.248   3.270 -0.4386  0.2771  0.8467
 8116TIP3    H224292   0.802   1.187   3.151  2.8257 -0.7031 -0.7399
 8117TIP3   OH224293   7.973   0.874   0.945 -0.3487 -0.7090  0.2686
 8117TIP3    H124294   7.878   0.871   0.932 -0.4755  0.7975  0.6100
 8117TIP3    H224295   7.986   0.945   1.007  0.9872 -1.1549  0.5295
 8118TIP3   OH224296   4.205   7.499   4.683 -0.4101 -0.4173 -0.3767
 8118TIP3    H124297   4.174   7.413   4.713 -1.8737  0.0652 -0.4119
 8118TIP3    H224298   4.293   7.507   4.720 -0.9747 -1.1465  1.2305
 8119TIP3   OH224299   7.176   3.367   3.557 -0.0528  0.3156  0.4312
 8119TIP3    H124300   7.236   3.293   3.542  0.2247  0.6270 -0.0276
 8119TIP3    H224301   7.205   3.404   3.641 -0.8112 -0.6765  1.1506
 8120TIP3   OH224302   3.801   0.647   4.713 -0.6387  0.0216 -0.0492
 8120TIP3    H124303   3.870   0.580   4.717 -0.4975  0.0535 -1.4798
 8120TIP3    H224304   3.770   0.654   4.803 -1.3451 -2.6950  0.0190
 8121TIP3   OH224305   0.905   5.978   1.336  0.1667  0.3492  0.0145
 8121TIP3    H124306   0.827   5.922   1.334 -0.0210  0.6245 -1.8923
 8121TIP3    H224307   0.938   5.976   1.247  1.9328  0.8543  0.6260
 8122TIP3   OH224308   7.551   4.714   6.753  0.2255  0.2891 -0.1758
 8122TIP3    H124309   7.580   4.805   6.755 -0.1686  0.5210 -2.3661
 8122TIP3    H224310   7.489   4.710   6.680 -2.2370 -1.0734  1.8157
 8123TIP3   OH224311   4.916   2.823   2.289  0.0326  0.1476  0.0338
 8123TIP3    H124312   4.869   2.874   2.355  1.5623  0.4353  0.9621
 8123TIP3    H224313   4.986   2.881   2.260 -0.2249 -0.2212 -1.4022
 8124TIP3   OH224314   1.427   3.163   3.891 -0.0318  0.2254  0.8812
 8124TIP3    H124315   1.519   3.163   3.920  0.6158 -1.7320 -0.8731
 8124TIP3    H224316   1.384   3.101   3.950  0.4797 -1.0606 -0.0459
 8125TIP3   OH224317   1.105   5.611   4.767 -0.1626  0.4796  0.1735
 8125TIP3    H124318   1.010   5.627   4.773 -0.5656 -0.7730 -2.0177
 8125TIP3    H224319   1.122   5.547   4.835 -0.8272  0.8933  0.7549
 8126TIP3   OH224320   6.579   1.177   1.151 -0.1919 -0.2262  0.1316
 8126TIP3    H124321   6.639   1.102   1.154  0.6670  0.4830  1.6991
 8126TIP3    H224322   6.632   1.252   1.178 -0.5310  1.3775 -3.1205
 8127TIP3   OH224323   7.226   3.022   3.423 -0.0680 -0.5863  0.1189
 8127TIP3    H124324   7.155   3.011   3.486 -0.5181  0.7587 -0.1125
 8127TIP3    H224325   7.192   2.984   3.342 -0.4437 -0.1907  0.0811
 8128TIP3   OH224326   6.889   3.092   3.454  0.8146  0.1691  0.5697
 8128TIP3    H124327   6.906   3.175   3.410  0.7900  1.5801  3.0407
 8128TIP3    H224328   6.834   3.043   3.392  1.6473  1.5385 -1.3735
 8129TIP3   OH224329   1.585   0.441   4.464 -0.4413  0.1578 -0.1629
 8129TIP3    H124330   1.667   0.419   4.508  0.9610  1.5646 -1.9062
 8129TIP3    H224331   1.557   0.360   4.422 -0.0351 -0.3677  0.5603
 8130TIP3   OH224332   2.362   5.012   6.247 -0.3570  0.0117 -0.0454
 8130TIP3    H124333   2.369   5.108   6.247 -0.2309  0.0098  0.9002
 8130TIP3    H224334   2.449   4.982   6.223 -0.2556  0.1329  0.1646
 8131TIP3   OH224335   2.231   6.731   6.480 -0.4006 -0.1393 -0.0354
 8131TIP3    H124336   2.295   6.722   6.550 -1.8073 -1.0495  1.1819
 8131TIP3    H224337   2.156   6.774   6.521 -0.9612  0.0360 -1.1906
 8132TIP3   OH224338   5.348   3.514   5.581 -0.1192  0.6109  0.5693
 8132TIP3    H124339   5.343   3.435   5.635  0.4445  0.3747  0.2905
 8132TIP3    H224340   5.414   3.568   5.624 -0.6014  0.9921  0.8345
 8133TIP3   OH224341   1.037   1.654   3.831 -0.0000  0.1142  0.2001
 8133TIP3    H124342   1.132   1.660   3.819 -0.0685  1.0885  0.0615
 8133TIP3    H224343   1.015   1.728   3.887 -0.5032 -0.9341  1.4327
 8134TIP3   OH224344   0.972   1.829   5.846 -0.0638  0.2310  0.3285
 8134TIP3    H124345   1.015   1.873   5.772  1.7375  0.7749  1.6256
 8134TIP3    H224346   0.986   1.735   5.829 -1.6235  0.2238 -1.1162
 8135TIP3   OH224347   8.027   7.671   0.118 -0.4387  0.1057  0.2770
 8135TIP3    H124348   8.096   7.609   0.094  0.9478  2.0948 -1.1133
 8135TIP3    H224349   8.064   7.721   0.191 -2.0596 -1.4365  2.3075
 8136TIP3   OH224350   2.570   7.379   3.831 -0.5288 -0.1182 -0.4355
 8136TIP3    H124351   2.487   7.400   3.873  0.2024  0.9251  0.5265
 8136TIP3    H224352   2.574   7.437   3.755 -0.9650 -0.6363 -0.8642
 8137TIP3   OH224353   2.977   4.550   5.514  0.2323  0.1315 -0.2092
 8137TIP3    H124354   3.028   4.538   5.434 -1.4861 -0.4615 -1.2582
 8137TIP3    H224355   2.960   4.644   5.518  2.2547  0.5269  0.7560
 8138TIP3   OH224356   1.067   6.505   2.664  0.4179  0.0654 -0.2146
 8138TIP3    H124357   0.983   6.506   2.711 -1.0512  1.0734 -2.6980
 8138TIP3    H224358   1.079   6.414   2.638  0.0857 -0.0809  0.1403
 8139TIP3   OH224359   4.836   1.361   1.250 -0.6746  0.2073  0.0933
 8139TIP3    H124360   4.901   1.307   1.205 -0.8844  0.3629 -0.4029
 8139TIP3    H224361   4.798   1.415   1.181 -2.6615 -1.1980  0.0093
 8140TIP3   OH224362   6.770   6.854   1.664  0.3347 -0.2810 -0.6467
 8140TIP3    H124363   6.796   6.818   1.579 -0.3350 -0.5519 -0.7421
 8140TIP3    H224364   6.681   6.821   1.678  0.3120  0.0407  0.0025
 8141TIP3   OH224365   3.652   5.775   1.272  0.4731 -0.2443 -0.2775
 8141TIP3    H124366   3.586   5.837   1.303  1.3562  2.4068 -3.1344
 8141TIP3    H224367   3.648   5.781   1.176  2.3674 -2.7944 -0.6484
 8142TIP3   OH224368   3.069   1.055   0.608 -0.2419  0.4924  0.0946
 8142TIP3    H124369   3.004   1.111   0.650  2.3482  1.8457  2.5933
 8142TIP3    H224370   3.141   1.113   0.586  1.1339 -1.3053 -0.4043
 8143TIP3   OH224371   2.519   6.979   5.768 -0.1186 -0.2796  0.4922
 8143TIP3    H124372   2.543   6.893   5.735  0.1321 -0.6086  1.4949
 8143TIP3    H224373   2.551   7.040   5.702 -0.7021 -0.9734 -0.4417
 8144TIP3   OH224374   1.168   5.587   5.671 -0.1397 -0.1367  0.3397
 8144TIP3    H124375   1.189   5.518   5.607 -1.0475  0.9791 -1.2433
 8144TIP3    H224376   1.236   5.652   5.659  0.2490 -0.3680  1.2444
 8145TIP3   OH224377   0.909   5.689   3.715  0.3376 -0.1231  0.5271
 8145TIP3    H124378   0.962   5.641   3.778 -1.6415 -1.2258  1.4160
 8145TIP3    H224379   0.865   5.757   3.766  3.3546  3.1333 -0.7430
 8146TIP3   OH224380   0.291   4.001   6.458  0.5460  0.5597 -0.1545
 8146TIP3    H124381   0.227   3.930   6.463  0.5761  0.3734 -1.7809
 8146TIP3    H224382   0.372   3.958   6.429  0.8883  1.0850  0.0073
 8147TIP3   OH224383   7.320   5.946   5.329  0.5856  0.1688 -0.4433
 8147TIP3    H124384   7.292   6.016   5.387 -1.7690  0.5551 -1.9002
 8147TIP3    H224385   7.410   5.968   5.305  1.1990  0.6227  2.0067
 8148TIP3   OH224386   1.269   2.612   4.365  0.2644 -0.1358  0.0630
 8148TIP3    H124387   1.314   2.528   4.350 -1.3646 -0.7528 -1.6858
 8148TIP3    H224388   1.198   2.590   4.425 -1.0312 -0.3415 -1.5023
 8149TIP3   OH224389   7.845   3.511   0.238  0.2776  0.5260  0.3202
 8149TIP3    H124390   7.912   3.494   0.305  3.1466 -0.0628 -2.4615
 8149TIP3    H224391   7.890   3.563   0.172 -1.9358 -0.1880 -1.8866
 8150TIP3   OH224392   6.238   6.586   3.038 -0.2580  0.3304  0.4749
 8150TIP3    H124393   6.313   6.577   3.096 -1.0532 -1.4128  1.3183
 8150TIP3    H224394   6.166   6.613   3.095 -0.5505  0.8294 -0.1125
 8151TIP3   OH224395   7.650   7.778   5.477  1.2080 -0.1189 -0.6470
 8151TIP3    H124396   7.616   7.701   5.522  1.6631 -1.1343 -1.9683
 8151TIP3    H224397   7.587   7.847   5.495  1.3310 -0.4956  1.4462
 8152TIP3   OH224398   3.340   6.517   1.703  0.0002 -0.7225 -0.3602
 8152TIP3    H124399   3.253   6.478   1.693  0.0548 -1.7176  2.2276
 8152TIP3    H224400   3.352   6.571   1.625 -2.3475 -1.6592 -1.4486
 8153TIP3   OH224401   2.862   4.580   2.641 -0.3807  0.4081  0.4535
 8153TIP3    H124402   2.791   4.573   2.576  0.0443  2.8561 -0.3617
 8153TIP3    H224403   2.910   4.498   2.631 -1.4567 -0.1069 -0.9804
 8154TIP3   OH224404   2.880   0.665   5.953 -0.0668 -0.6042  0.0271
 8154TIP3    H124405   2.797   0.639   5.993 -0.7968 -0.3780 -1.2654
 8154TIP3    H224406   2.947   0.613   5.998 -0.9026 -0.7814  1.0989
 8155TIP3   OH224407   0.814   3.843   1.839 -0.4533 -0.2531 -0.2107
 8155TIP3    H124408   0.830   3.924   1.792 -0.7916  0.7889  1.3918
 8155TIP3    H224409   0.753   3.867   1.909 -1.5363 -2.1474 -0.4333
 8156TIP3   OH224410   0.544   5.524   3.807  0.1239 -0.2723 -0.2108
 8156TIP3    H124411   0.633   5.502   3.834  0.1202 -1.6280 -1.2048
 8156TIP3    H224412   0.499   5.439   3.803 -1.7663  0.5101  2.0646
 8157TIP3   OH224413   2.894   2.264   5.202  1.0853 -0.1814 -0.4886
 8157TIP3    H124414   2.908   2.265   5.297 -0.5440 -1.7159 -0.1760
 8157TIP3    H224415   2.980   2.240   5.166  1.2523 -1.6699  0.7684
 8158TIP3   OH224416   3.606   5.986   2.511  0.3076 -0.1542 -0.4181
 8158TIP3    H124417   3.572   6.068   2.475  1.9226  0.5791 -0.3661
 8158TIP3    H224418   3.642   5.940   2.436 -1.0723 -1.1018 -0.5350
 8159TIP3   OH224419   2.958   0.861   0.465 -0.1114 -0.2998 -0.2831
 8159TIP3    H124420   3.017   0.789   0.483  0.7789  0.6679  0.8928
 8159TIP3    H224421   2.989   0.932   0.522 -1.6691  0.6230 -0.5176
 8160TIP3   OH224422   2.253   0.043   3.321 -0.0570  0.5587 -0.8754
 8160TIP3    H124423   2.245   0.039   3.226  0.9665  0.9718 -0.9974
 8160TIP3    H224424   2.342   0.011   3.338 -0.8874 -1.3917  0.1049
 8161TIP3   OH224425   4.045   5.980   5.258 -0.1513  0.0036  0.2102
 8161TIP3    H124426   4.063   5.939   5.342 -0.3738 -1.4001 -0.3973
 8161TIP3    H224427   3.951   5.970   5.246 -0.0069 -0.5325 -0.5528
 8162TIP3   OH224428   8.240   7.402   1.304 -0.3539  0.2598 -0.7533
 8162TIP3    H124429   8.208   7.332   1.248 -1.4274  0.8482 -0.9053
 8162TIP3    H224430   8.272   7.469   1.243  1.5401 -0.4338 -0.6100
 8163TIP3   OH224431   6.332   5.008   3.422  0.2240  0.4831 -0.8868
 8163TIP3    H124432   6.316   4.960   3.342  0.7150 -2.2356  0.5328
 8163TIP3    H224433   6.261   4.983   3.481  0.4747  1.5638 -0.0757
 8164TIP3   OH224434   1.699   4.679   2.696 -0.2287 -0.9342  0.3883
 8164TIP3    H124435   1.703   4.629   2.615 -0.2780  1.3933 -1.1590
 8164TIP3    H224436   1.787   4.714   2.707 -0.5966  0.0074  0.4529
 8165TIP3   OH224437   6.305   3.910   2.135  0.0828  0.5916  0.4477
 8165TIP3    H124438   6.374   3.845   2.128  0.9935  1.6192 -0.6420
 8165TIP3    H224439   6.282   3.930   2.044 -3.1368 -1.1924  0.7227
 8166TIP3   OH224440   2.351   1.207   6.451  0.7637  0.0775 -0.1855
 8166TIP3    H124441   2.398   1.168   6.378 -1.8496 -2.5118 -0.6892
 8166TIP3    H224442   2.260   1.213   6.421  0.1646  2.1987  1.6787
 8167TIP3   OH224443   2.070   2.991   5.614  0.4004  0.0721  0.9187
 8167TIP3    H124444   2.139   3.058   5.616  0.1524  0.3210  1.8649
 8167TIP3    H224445   2.004   3.024   5.676 -1.0836  0.3863 -0.7470
 8168TIP3   OH224446   6.254   7.413   1.364 -0.1921 -0.0618  0.4505
 8168TIP3    H124447   6.313   7.455   1.427 -0.6812 -0.6809  1.3472
 8168TIP3    H224448   6.202   7.485   1.328 -0.6375  0.1985  1.5590
 8169TIP3   OH224449   7.836   1.891   2.745  0.1628  0.1968  0.0512
 8169TIP3    H124450   7.821   1.912   2.653 -1.1280 -3.0310 -0.6122
 8169TIP3    H224451   7.750   1.900   2.786  0.5321  0.6417  0.7581
 8170TIP3   OH224452   0.611   1.629   2.007 -0.3820 -0.5610  0.0299
 8170TIP3    H124453   0.590   1.648   2.098 -1.2393  0.3485 -0.3352
 8170TIP3    H224454   0.544   1.677   1.957  1.1174  0.3945 -1.1344
 8171TIP3   OH224455   5.934   5.102   3.389 -0.4336  0.1128 -0.3509
 8171TIP3    H124456   5.966   5.014   3.373 -2.5515 -0.4482 -1.8286
 8171TIP3    H224457   5.937   5.112   3.485 -0.1765 -1.5539 -0.1661
 8172TIP3   OH224458   1.204   7.355   2.297 -0.1854 -0.1188  0.3055
 8172TIP3    H124459   1.167   7.437   2.262 -0.1261 -0.5336 -0.7675
 8172TIP3    H224460   1.240   7.311   2.220  1.7558 -0.1512  1.1890
 8173TIP3   OH224461   6.425   0.240   2.182  0.3559  0.3320 -0.1597
 8173TIP3    H124462   6.457   0.317   2.135  0.1591  0.8106  0.4876
 8173TIP3    H224463   6.335   0.262   2.207  0.4386  0.0614  0.3924
 8174TIP3   OH224464   0.820   1.344   4.370 -0.0388 -0.0364  0.1988
 8174TIP3    H124465   0.826   1.332   4.275  0.9834  1.0760  0.0927
 8174TIP3    H224466   0.903   1.310   4.404 -0.2931 -0.1982  0.6732
 8175TIP3   OH224467   0.374   7.110   3.605 -0.0108 -0.0526 -1.1932
 8175TIP3    H124468   0.365   7.194   3.649  0.3020 -0.5257 -0.2008
 8175TIP3    H224469   0.468   7.098   3.594  0.2236 -1.7038  1.6175
 8176TIP3   OH224470   2.996   4.557   1.746  0.4282 -0.3553  0.0030
 8176TIP3    H124471   3.081   4.585   1.713 -0.5078  1.1811 -1.2393
 8176TIP3    H224472   2.967   4.489   1.685  0.6383 -0.6849  0.2682
 8177TIP3   OH224473   2.860   3.609   3.282 -0.0495  0.3157  0.2799
 8177TIP3    H124474   2.775   3.650   3.292 -1.0525 -1.9716  1.9153
 8177TIP3    H224475   2.879   3.571   3.368  2.6417  0.7554 -0.0348
 8178TIP3   OH224476   0.590   1.442   6.403 -0.2344  0.1415 -0.1499
 8178TIP3    H124477   0.549   1.522   6.370  0.3953  0.6632  0.3293
 8178TIP3    H224478   0.614   1.393   6.324  1.0302  1.2579 -0.4790
 8179TIP3   OH224479   5.223   2.954   3.171  0.4841  0.0581 -0.2311
 8179TIP3    H124480   5.271   3.021   3.124  1.3381  0.5648  1.2844
 8179TIP3    H224481   5.286   2.883   3.183  0.5367  0.2548  0.7808
 8180TIP3   OH224482   2.763   2.259   5.526  0.3369  0.1835  0.2397
 8180TIP3    H124483   2.759   2.296   5.614  0.4008 -0.3182  0.4604
 8180TIP3    H224484   2.742   2.332   5.467  0.4528  0.5563  0.6604
 8181TIP3   OH224485   0.329   4.278   4.770 -0.5743  0.4129  0.0602
 8181TIP3    H124486   0.334   4.247   4.860 -0.1716  0.1392 -0.0543
 8181TIP3    H224487   0.417   4.267   4.735 -0.0788  2.8277  0.3655
 8182TIP3   OH224488   1.132   0.375   6.508  0.2344  0.1550  0.7033
 8182TIP3    H124489   1.162   0.430   6.435 -1.8819 -1.8970 -1.9103
 8182TIP3    H224490   1.186   0.296   6.502 -0.5031 -0.3658  0.8518
 8183TIP3   OH224491   4.534   0.921   2.864 -0.0044  0.1022  0.0492
 8183TIP3    H124492   4.492   0.989   2.811 -1.4824 -0.1829  0.8182
 8183TIP3    H224493   4.548   0.849   2.803 -3.2599 -0.9010  0.2972
 8184TIP3   OH224494   5.349   1.672   0.631 -0.1844 -0.1446 -0.4806
 8184TIP3    H124495   5.300   1.737   0.682 -0.0290  0.1760 -0.7315
 8184TIP3    H224496   5.389   1.723   0.560  1.7766 -0.1169  0.5675
 8185TIP3   OH224497   6.218   6.852   3.315 -0.0117  0.6642  0.0187
 8185TIP3    H124498   6.275   6.804   3.375 -0.7271  1.7179  1.5943
 8185TIP3    H224499   6.167   6.784   3.271  1.3868 -0.1957 -0.3119
 8186TIP3   OH224500   7.292   1.772   1.866 -0.5623  0.6201  0.0764
 8186TIP3    H124501   7.386   1.760   1.861 -0.6366 -0.9891  1.4849
 8186TIP3    H224502   7.264   1.785   1.776  0.7540 -1.0484 -0.6223
 8187TIP3   OH224503   7.985   0.659   6.471  0.0474  0.1883 -0.0922
 8187TIP3    H124504   7.963   0.715   6.546  1.0887  0.4734  0.0170
 8187TIP3    H224505   7.913   0.673   6.409  0.5355  2.0921 -0.3027
 8188TIP3   OH224506   3.597   5.559   5.357  0.4919 -0.3226 -0.5865
 8188TIP3    H124507   3.503   5.559   5.342  0.4859  0.6567 -0.6389
 8188TIP3    H224508   3.635   5.527   5.276  0.2351 -0.0224 -0.8254
 8189TIP3   OH224509   6.254   3.680   1.309  0.5611  0.3585  0.2411
 8189TIP3    H124510   6.209   3.610   1.260  0.3305 -1.6139  2.9962
 8189TIP3    H224511   6.215   3.761   1.277 -0.5661 -0.8776 -1.7438
 8190TIP3   OH224512   3.479   6.804   5.068  0.7402 -0.3639 -0.2447
 8190TIP3    H124513   3.479   6.876   5.132  0.3096 -1.0063  0.5008
 8190TIP3    H224514   3.540   6.740   5.105 -0.5448 -1.3510  0.2611
 8191TIP3   OH224515   2.960   2.751   0.097  0.2850 -0.0022  0.0491
 8191TIP3    H124516   2.899   2.789   0.033 -0.6944 -0.6738  0.5514
 8191TIP3    H224517   2.962   2.815   0.168 -1.3581 -0.8223  0.8922
 8192TIP3   OH224518   6.313   1.287   0.452 -0.0242  0.2320 -0.3546
 8192TIP3    H124519   6.283   1.324   0.535  1.2900 -0.3191  0.3796
 8192TIP3    H224520   6.323   1.194   0.469 -0.3560  0.0038 -1.3272
 8193TIP3   OH224521   3.081   2.275   1.955 -0.4628  0.5381 -0.6424
 8193TIP3    H124522   3.017   2.229   1.899 -1.5080  0.6154  0.4442
 8193TIP3    H224523   3.039   2.359   1.973  0.7615  1.3229 -1.3619
 8194TIP3   OH224524   4.498   7.334   5.438 -0.6214  0.0799 -0.5542
 8194TIP3    H124525   4.590   7.315   5.457 -0.6172 -0.8204 -1.4191
 8194TIP3    H224526   4.495   7.347   5.344 -1.4093 -0.1135 -0.5622
 8195TIP3   OH224527   1.932   6.783   3.825 -0.0960 -0.2983 -0.0686
 8195TIP3    H124528   2.008   6.729   3.804 -0.1585 -0.0937 -0.8288
 8195TIP3    H224529   1.962   6.873   3.812 -0.3275 -0.1917  0.1133
 8196TIP3   OH224530   1.071   0.793   3.439  0.6412 -0.4591 -0.8700
 8196TIP3    H124531   1.061   0.844   3.359 -0.2979  1.6925  0.5431
 8196TIP3    H224532   1.081   0.858   3.508  0.6802 -2.2346  0.8701
 8197TIP3   OH224533   7.470   4.796   0.055 -0.1250 -0.0058  0.0121
 8197TIP3    H124534   7.524   4.872   0.074  1.0616 -1.2099  1.7408
 8197TIP3    H224535   7.471   4.789  -0.040  1.1575  1.1371 -0.0904
 8198TIP3   OH224536   0.632   6.495   6.474  0.1671  0.0695  0.4145
 8198TIP3    H124537   0.589   6.495   6.389  1.6313  1.6829 -0.3986
 8198TIP3    H224538   0.686   6.416   6.474  0.3611  0.1982 -0.2816
 8199TIP3   OH224539   8.217   2.942   4.469  0.4566  0.0389  0.0606
 8199TIP3    H124540   8.194   2.885   4.542 -0.9163 -0.7870 -0.9576
 8199TIP3    H224541   8.146   2.928   4.406  1.3537  1.0965 -1.2139
 8200TIP3   OH224542   6.191   0.643   4.222  0.0991 -0.5559  0.4169
 8200TIP3    H124543   6.186   0.661   4.316  1.8481 -0.5889  0.5491
 8200TIP3    H224544   6.138   0.564   4.210  0.1432 -0.7533  1.4311
 8201TIP3   OH224545   0.637   1.150   3.857  0.1387 -0.6283  0.6295
 8201TIP3    H124546   0.561   1.205   3.838  0.4597 -0.0739  0.9516
 8201TIP3    H224547   0.684   1.145   3.774  0.0685 -0.4862  0.5817
 8202TIP3   OH224548   4.586   0.291   0.159  0.4010 -0.1405  0.6263
 8202TIP3    H124549   4.634   0.366   0.125  0.1835 -0.0851  0.4360
 8202TIP3    H224550   4.541   0.324   0.237 -1.1050  0.4138 -0.4236
 8203TIP3   OH224551   3.004   2.424   5.630 -0.0644  0.2938 -0.0155
 8203TIP3    H124552   2.960   2.470   5.559 -0.8934  0.5629  0.6581
 8203TIP3    H224553   3.068   2.368   5.586  1.3109  2.4060 -0.8452
 8204TIP3   OH224554   5.257   6.252   0.058  0.3263  0.3273  0.0688
 8204TIP3    H124555   5.298   6.295  -0.017 -0.0305  2.9516  1.2654
 8204TIP3    H224556   5.219   6.324   0.109  1.0789 -1.2795  3.0882
 8205TIP3   OH224557   0.411   1.737   1.844 -0.5717  0.1902  0.2656
 8205TIP3    H124558   0.319   1.712   1.835 -0.4786 -0.1284  0.1939
 8205TIP3    H224559   0.412   1.831   1.825 -1.1506  0.5820  1.9641
 8206TIP3   OH224560   5.814   7.722   0.441 -0.8306  0.4770 -0.0790
 8206TIP3    H124561   5.823   7.720   0.346 -0.6764  0.0243 -0.0574
 8206TIP3    H224562   5.875   7.655   0.472 -1.0955  0.4194  0.3206
 8207TIP3   OH224563   0.959   5.775   5.542  0.2346 -0.1462  0.0562
 8207TIP3    H124564   1.041   5.763   5.494  0.1419 -0.5137 -0.0105
 8207TIP3    H224565   0.960   5.707   5.609  0.1930  0.1346  0.3457
 8208TIP3   OH224566   1.716   7.011   5.142  0.2354 -0.0517  0.4092
 8208TIP3    H124567   1.752   7.080   5.197  0.5809  0.7180 -0.7287
 8208TIP3    H224568   1.781   6.941   5.144  0.8630  0.5053 -0.0315
 8209TIP3   OH224569   1.122   6.261   5.865 -0.4692 -0.2085  0.4074
 8209TIP3    H124570   1.099   6.215   5.784 -1.3643 -1.5606  1.3769
 8209TIP3    H224571   1.063   6.336   5.868 -0.2273  0.0229 -0.3153
 8210TIP3   OH224572   0.410   5.850   2.929  0.5842  0.0009 -0.3080
 8210TIP3    H124573   0.436   5.866   2.839  1.2545 -0.8665 -0.2792
 8210TIP3    H224574   0.449   5.921   2.979  0.7266  0.1398 -0.6187
 8211TIP3   OH224575   6.228   3.931   4.338  0.4549 -0.6681  0.4282
 8211TIP3    H124576   6.136   3.941   4.363  0.4548 -0.2071  0.2465
 8211TIP3    H224577   6.226   3.904   4.246  0.5357  4.1230 -1.2324
 8212TIP3   OH224578   1.726   3.813   4.147 -0.2700  0.0383  0.0605
 8212TIP3    H124579   1.650   3.828   4.090  0.2480  2.1393 -0.1652
 8212TIP3    H224580   1.786   3.884   4.125  1.6897 -1.4289  0.4167
 8213TIP3   OH224581   6.424   7.478   3.365  0.3183 -0.5907 -0.5835
 8213TIP3    H124582   6.334   7.508   3.347  0.5360  1.2946  1.0904
 8213TIP3    H224583   6.477   7.558   3.357  1.5568 -1.2929  0.3407
 8214TIP3   OH224584   0.381   6.736   2.344  0.3479 -0.3338 -0.3006
 8214TIP3    H124585   0.337   6.814   2.379 -0.5975 -0.8291 -0.3412
 8214TIP3    H224586   0.360   6.736   2.251  1.5241  0.1129 -0.5806
 8215TIP3   OH224587   0.543   3.483   2.506 -0.2814  0.3899 -0.4303
 8215TIP3    H124588   0.538   3.388   2.517  0.0651  0.3854 -0.3036
 8215TIP3    H224589   0.614   3.496   2.443  0.4042  0.6177  0.3787
 8216TIP3   OH224590   7.576   1.709   0.342 -0.5663 -0.2580  0.4156
 8216TIP3    H124591   7.629   1.634   0.316 -1.5377 -0.8710  0.1694
 8216TIP3    H224592   7.638   1.770   0.382  0.9471  0.4116 -2.5999
 8217TIP3   OH224593   7.063   2.277   3.949  0.1788 -0.5544  0.0987
 8217TIP3    H124594   7.053   2.259   4.043 -2.1646 -0.6673 -0.1260
 8217TIP3    H224595   6.984   2.325   3.925  1.2901  0.5351 -1.6042
 8218TIP3   OH224596   8.114   6.814   4.314 -0.2004  0.4918  0.0993
 8218TIP3    H124597   8.120   6.893   4.368 -0.3819  0.5066  0.0965
 8218TIP3    H224598   8.054   6.837   4.243 -0.8696  0.1082  0.5256
 8219TIP3   OH224599   5.100   0.282   2.370  0.2500 -0.1184  0.1147
 8219TIP3    H124600   5.176   0.294   2.313 -0.1823  1.7188 -0.1404
 8219TIP3    H224601   5.103   0.357   2.430 -1.5943  0.2423 -0.1853
 8220TIP3   OH224602   3.788   2.175   0.047  0.1662 -0.0025  0.2958
 8220TIP3    H124603   3.804   2.175  -0.048  1.0912 -0.8578  0.4255
 8220TIP3    H224604   3.701   2.214   0.057 -0.4114 -0.8759 -0.9917
 8221TIP3   OH224605   5.494   2.134   0.729 -0.0734 -0.2996 -0.3784
 8221TIP3    H124606   5.407   2.097   0.746  1.3108 -2.8268  2.0316
 8221TIP3    H224607   5.486   2.226   0.755 -2.1745 -0.2989 -0.8757
 8222TIP3   OH224608   4.750   3.489   0.084  0.2376 -0.2123  0.2262
 8222TIP3    H124609   4.762   3.504  -0.010 -0.0589 -3.7755 -0.4883
 8222TIP3    H224610   4.730   3.576   0.119  2.1380  1.5768 -2.6558
 8223TIP3   OH224611   7.322   5.573   4.056 -0.2437 -0.0126  0.6363
 8223TIP3    H124612   7.295   5.497   4.108  0.3810  0.9455  2.4642
 8223TIP3    H224613   7.393   5.539   4.001 -0.4318 -0.9160  0.9236
 8224TIP3   OH224614   1.462   0.924   1.808 -0.2467 -0.4549 -0.1537
 8224TIP3    H124615   1.408   0.942   1.886 -1.0780  1.5709 -1.1176
 8224TIP3    H224616   1.407   0.869   1.753 -0.3761 -0.4056 -0.0757
 8225TIP3   OH224617   6.849   3.910   0.569  0.5075  0.0204 -0.5132
 8225TIP3    H124618   6.915   3.965   0.611 -0.2562  0.0685  0.6571
 8225TIP3    H224619   6.898   3.837   0.532  1.1138 -0.5600  1.3511
 8226TIP3   OH224620   5.442   1.815   0.405  0.3695  0.0842 -0.0947
 8226TIP3    H124621   5.418   1.907   0.422  0.9075  0.4427 -1.2048
 8226TIP3    H224622   5.489   1.817   0.322  0.8849 -1.1324  0.1448
 8227TIP3   OH224623   3.392   5.476   2.829  0.2465  0.5969  0.1054
 8227TIP3    H124624   3.446   5.453   2.753 -2.4367 -0.7089 -1.5536
 8227TIP3    H224625   3.408   5.569   2.844  0.8083  0.8973 -2.1208
 8228TIP3   OH224626   5.991   2.399   0.227  0.6684 -0.3614 -0.1154
 8228TIP3    H124627   6.032   2.395   0.314  1.9929 -0.7215 -0.7222
 8228TIP3    H224628   5.965   2.490   0.216  0.4463 -0.3234  0.6759
 8229TIP3   OH224629   4.344   2.875   1.227 -0.3265  0.5784 -0.4056
 8229TIP3    H124630   4.267   2.880   1.284  1.1479 -0.0452  1.7672
 8229TIP3    H224631   4.338   2.789   1.186  1.1048 -1.2245  2.8098
 8230TIP3   OH224632   4.649   2.844   4.003 -0.5362  0.2373  0.0932
 8230TIP3    H124633   4.613   2.862   3.916 -3.0654 -3.6864  0.0615
 8230TIP3    H224634   4.725   2.788   3.986 -0.2636  0.5153  0.3936
 8231TIP3   OH224635   4.467   4.191   2.097 -0.3117  0.1680  0.5468
 8231TIP3    H124636   4.411   4.216   2.024  1.5547 -0.0424 -1.0158
 8231TIP3    H224637   4.553   4.174   2.058  0.4692 -1.0770  2.6168
 8232TIP3   OH224638   6.984   5.296   2.299  0.5836  0.3028 -0.9877
 8232TIP3    H124639   6.991   5.349   2.378  2.8518 -0.5941 -0.5087
 8232TIP3    H224640   6.944   5.214   2.329  1.8120 -0.1903 -0.6630
 8233TIP3   OH224641   0.465   6.970   6.201 -0.5455  0.0130  0.2623
 8233TIP3    H124642   0.550   6.939   6.168 -1.1035  0.5745 -1.8616
 8233TIP3    H224643   0.406   6.897   6.185 -0.9241  0.4697 -0.4596
 8234TIP3   OH224644   4.656   4.662   5.391 -0.3132 -0.1811 -0.2779
 8234TIP3    H124645   4.732   4.609   5.364  0.6900  1.3372 -0.5389
 8234TIP3    H224646   4.684   4.702   5.473 -1.4583 -0.8356  0.4568
 8235TIP3   OH224647   5.165   6.916   6.170 -0.2660 -0.2143  0.5812
 8235TIP3    H124648   5.124   6.869   6.098  0.9396 -0.5831  0.1134
 8235TIP3    H224649   5.259   6.906   6.155  0.0456 -1.1199  2.6959
 8236TIP3   OH224650   6.215   1.404   0.042  0.1018  0.3529  0.2183
 8236TIP3    H124651   6.272   1.474   0.074 -0.4048  0.3922  1.0865
 8236TIP3    H224652   6.134   1.448   0.018 -0.3803  0.0372  1.1857
 8237TIP3   OH224653   6.955   4.813   1.573 -0.5523 -0.1102  0.0834
 8237TIP3    H124654   7.003   4.732   1.585 -1.0895 -0.4873 -0.2493
 8237TIP3    H224655   6.872   4.786   1.532 -0.2047  0.7230 -1.2513
 8238TIP3   OH224656   1.021   5.600   2.410 -0.1846 -0.0361 -0.0856
 8238TIP3    H124657   0.976   5.610   2.495  0.5656 -0.1936  0.3365
 8238TIP3    H224658   1.098   5.655   2.417  0.8981 -1.5046  0.0631
 8239TIP3   OH224659   6.277   0.280   5.386 -0.0225  0.2732  0.6163
 8239TIP3    H124660   6.290   0.193   5.423 -0.7894  0.4544  1.3517
 8239TIP3    H224661   6.362   0.324   5.395  0.0020  0.0558  1.4837
 8240TIP3   OH224662   3.077   1.258   5.795  0.4410  0.4588 -0.4459
 8240TIP3    H124663   3.086   1.203   5.874 -0.5002  0.6986 -0.1631
 8240TIP3    H224664   3.031   1.336   5.826  0.7072  0.8770 -1.0980
 8241TIP3   OH224665   1.573   1.451   3.622 -0.3077 -0.1797 -0.2145
 8241TIP3    H124666   1.540   1.454   3.712  1.5693 -1.8789  0.6321
 8241TIP3    H224667   1.629   1.528   3.614  0.2387 -0.4947  0.4234
 8242TIP3   OH224668   5.243   6.806   4.790 -0.0245 -0.2615 -0.5970
 8242TIP3    H124669   5.194   6.889   4.797  1.2029  0.6944 -2.4375
 8242TIP3    H224670   5.193   6.756   4.725 -1.9785 -1.9824  2.0265
 8243TIP3   OH224671   1.487   4.104   5.328 -0.1292 -0.5599 -0.4355
 8243TIP3    H124672   1.581   4.123   5.323 -0.1638 -0.3836 -0.4005
 8243TIP3    H224673   1.453   4.168   5.390 -0.2602 -0.6753 -0.3888
 8244TIP3   OH224674   2.418   0.621   6.564  0.3905  0.5573 -0.2560
 8244TIP3    H124675   2.461   0.571   6.495 -2.0952 -2.7655  0.3414
 8244TIP3    H224676   2.448   0.580   6.645 -0.6386  0.9714  0.3570
 8245TIP3   OH224677   4.364   5.134   5.761  0.1584 -0.1571 -0.3761
 8245TIP3    H124678   4.318   5.119   5.679  1.4116 -0.3775 -1.0627
 8245TIP3    H224679   4.457   5.123   5.740  0.5931  0.8268  0.8295
 8246TIP3   OH224680   7.848   2.783   4.515 -0.0093  0.1197  0.2071
 8246TIP3    H124681   7.881   2.788   4.605 -0.3487  1.6923  0.2724
 8246TIP3    H224682   7.755   2.763   4.524 -0.2969  1.3841  0.2878
 8247TIP3   OH224683   1.844   0.327   2.637 -0.1083  0.0963  0.2888
 8247TIP3    H124684   1.801   0.259   2.689  0.8042 -2.0371 -1.6075
 8247TIP3    H224685   1.849   0.402   2.697 -3.0188 -0.7444  1.7919
 8248TIP3   OH224686   0.084   2.082   5.715 -0.3453  0.1667 -0.1198
 8248TIP3    H124687  -0.008   2.086   5.689  0.2891  2.8809 -2.3934
 8248TIP3    H224688   0.124   2.020   5.653 -0.4277 -0.1214  0.1145
 8249TIP3   OH224689   0.410   1.578   3.603 -1.1432 -0.2657 -0.9078
 8249TIP3    H124690   0.398   1.672   3.621  0.2337 -0.3044  0.3645
 8249TIP3    H224691   0.421   1.538   3.689 -2.8120 -1.7984 -1.3650
 8250TIP3   OH224692   0.409   5.787   3.845  0.2274  0.1695  0.5705
 8250TIP3    H124693   0.455   5.705   3.826 -1.7016 -0.9876  0.6038
 8250TIP3    H224694   0.382   5.779   3.936  0.7156  1.2216  0.8181
 8251TIP3   OH224695   2.618   5.156   0.636 -0.7716 -0.2740  0.2864
 8251TIP3    H124696   2.618   5.126   0.727 -0.9781 -1.5477 -0.1171
 8251TIP3    H224697   2.618   5.252   0.642 -0.9553 -0.3451  1.6231
 8252TIP3   OH224698   6.194   7.815   3.894  0.1715 -0.6769  0.7309
 8252TIP3    H124699   6.283   7.822   3.930  0.1575  0.3144  0.5947
 8252TIP3    H224700   6.151   7.749   3.949  0.7021 -0.4718  1.3999
 8253TIP3   OH224701   8.154   2.113   4.108 -0.3420 -0.2811  0.0279
 8253TIP3    H124702   8.168   2.168   4.185  0.0325  0.3347 -0.4611
 8253TIP3    H224703   8.133   2.176   4.038 -1.7034 -0.9046 -0.1446
 8254TIP3   OH224704   6.805   0.031   5.375  0.5581 -0.1144  0.2155
 8254TIP3    H124705   6.854  -0.041   5.413  2.3033  0.3172 -1.1063
 8254TIP3    H224706   6.863   0.068   5.309 -1.2475  0.9348 -0.8870
 8255TIP3   OH224707   4.103   4.996   3.893  0.7227  0.3509 -0.0292
 8255TIP3    H124708   4.176   4.935   3.905 -0.3911 -1.3640 -1.4733
 8255TIP3    H224709   4.102   5.014   3.799  0.6727  2.1898  0.2931
 8256TIP3   OH224710   6.213   5.939   1.280 -0.3980  0.1430 -0.5873
 8256TIP3    H124711   6.201   5.930   1.185 -2.4209 -2.0787 -0.2053
 8256TIP3    H224712   6.124   5.946   1.315  0.2704 -0.0571  1.2489
 8257TIP3   OH224713   4.234   4.383   4.746 -0.3041  0.4579  0.6653
 8257TIP3    H124714   4.318   4.359   4.786  0.9183 -1.3176 -2.5759
 8257TIP3    H224715   4.213   4.310   4.689 -2.4276  2.2810 -1.0748
 8258TIP3   OH224716   0.081   4.014   4.737  0.0318 -0.2963  0.5314
 8258TIP3    H124717   0.034   4.086   4.695  0.3166 -0.5477 -0.2424
 8258TIP3    H224718   0.167   4.014   4.696  0.2557 -0.6689  0.9900
 8259TIP3   OH224719   7.010   0.536   1.733  0.0435 -0.0102 -0.0730
 8259TIP3    H124720   6.995   0.496   1.648  1.3626  1.0854 -0.8529
 8259TIP3    H224721   7.012   0.462   1.794 -0.8945 -0.8102 -0.9667
 8260TIP3   OH224722   0.610   7.144   3.986  0.1968  0.1192  0.0011
 8260TIP3    H124723   0.560   7.189   3.917 -0.3001 -0.1586  0.1777
 8260TIP3    H224724   0.570   7.173   4.068  1.6055  1.4512  0.2584
 8261TIP3   OH224725   7.973   2.325   1.747  0.2567 -0.3485  0.3689
 8261TIP3    H124726   8.007   2.331   1.657  0.7554  0.5287  0.6165
 8261TIP3    H224727   8.036   2.372   1.800 -1.2450  1.2183  0.8595
 8262TIP3   OH224728   3.313   4.342   3.543  0.6843 -0.5852  0.6275
 8262TIP3    H124729   3.296   4.249   3.532 -1.9811 -0.0712 -0.4050
 8262TIP3    H224730   3.275   4.363   3.629 -2.6916  0.2024 -0.8699
 8263TIP3   OH224731   7.954   5.332   0.721  0.5301 -0.4900  0.4474
 8263TIP3    H124732   8.041   5.347   0.758  0.5866  0.0114  0.1159
 8263TIP3    H224733   7.968   5.326   0.626  0.0888  0.5221  0.3035
 8264TIP3   OH224734   6.000   4.635   4.139 -0.0357  0.0216 -0.1371
 8264TIP3    H124735   6.025   4.648   4.047 -2.1205 -0.1043 -0.7672
 8264TIP3    H224736   5.953   4.714   4.163 -1.2443 -0.7576  0.1690
 8265TIP3   OH224737   0.498   2.842   5.374  0.5284 -0.2879  0.4335
 8265TIP3    H124738   0.458   2.889   5.447 -2.2192  0.1611 -1.2170
 8265TIP3    H224739   0.576   2.893   5.352 -0.2954  1.3272  1.1006
 8266TIP3   OH224740   2.306   0.262   0.932 -0.1017 -0.0892 -0.2795
 8266TIP3    H124741   2.304   0.172   0.964  0.7211 -0.5070 -1.3292
 8266TIP3    H224742   2.322   0.316   1.009 -0.9215 -0.7984  0.4113
 8267TIP3   OH224743   6.601   7.024   5.844 -0.6267 -0.2525  0.3516
 8267TIP3    H124744   6.571   7.035   5.934 -1.9050  0.7948 -0.1707
 8267TIP3    H224745   6.690   6.989   5.853 -0.6946 -0.0930  2.0120
 8268TIP3   OH224746   7.386   0.987   0.791 -0.3196  0.3963 -0.0451
 8268TIP3    H124747   7.426   0.968   0.706 -1.4289  0.6961 -0.6505
 8268TIP3    H224748   7.292   0.981   0.775 -0.5724 -1.8491  1.6915
 8269TIP3   OH224749   7.567   3.618   2.434 -0.1104  0.4080 -0.0456
 8269TIP3    H124750   7.473   3.613   2.418 -0.2070  1.2460  0.1693
 8269TIP3    H224751   7.582   3.556   2.506 -0.4530  0.0786 -0.2553
 8270TIP3   OH224752   1.644   7.341   3.307  0.0617  0.0719  0.8830
 8270TIP3    H124753   1.724   7.289   3.314  0.5820  0.9352  1.4937
 8270TIP3    H224754   1.583   7.285   3.258  1.4596 -0.0955 -0.7459
 8271TIP3   OH224755   7.210   1.881   4.693  0.4729 -0.0069 -0.1067
 8271TIP3    H124756   7.268   1.809   4.717 -1.2503 -1.0425  1.1663
 8271TIP3    H224757   7.190   1.866   4.600 -0.6655 -1.8443  0.3710
 8272TIP3   OH224758   1.425   3.771   2.555  0.4473  0.0470 -0.5639
 8272TIP3    H124759   1.371   3.723   2.492  1.6256 -1.9450 -0.1404
 8272TIP3    H224760   1.514   3.739   2.540  1.1812  1.5529  0.3076
 8273TIP3   OH224761   4.431   7.770   4.427 -0.4598 -0.0163 -0.1767
 8273TIP3    H124762   4.339   7.747   4.443 -0.3077 -0.2120  0.4150
 8273TIP3    H224763   4.427   7.838   4.359 -1.0278 -0.1864 -0.3195
 8274TIP3   OH224764   3.902   0.321   6.377  0.0015 -0.4242 -0.0309
 8274TIP3    H124765   3.828   0.284   6.328 -0.2002  0.0471 -0.0811
 8274TIP3    H224766   3.876   0.410   6.397  1.2456  0.3320 -1.5565
 8275TIP3   OH224767   5.485   5.789   6.755 -0.0162 -0.0379 -0.0899
 8275TIP3    H124768   5.480   5.885   6.759  1.7205  0.0541  0.7141
 8275TIP3    H224769   5.412   5.764   6.698  0.7961  1.9301 -2.1616
 8276TIP3   OH224770   5.911   6.678   2.896  0.3629  0.2773 -0.3607
 8276TIP3    H124771   5.987   6.643   2.850  0.9986 -0.1796  1.0139
 8276TIP3    H224772   5.865   6.601   2.929 -1.4488  0.4427 -2.2217
 8277TIP3   OH224773   4.636   0.118   5.718 -0.3611  0.1344  0.0008
 8277TIP3    H124774   4.703   0.167   5.671  1.4799 -1.0011  1.3343
 8277TIP3    H224775   4.676   0.033   5.736 -2.7444 -1.1918 -0.5072
 8278TIP3   OH224776   4.670   1.078   3.295  0.1681 -0.1584 -0.5705
 8278TIP3    H124777   4.709   1.039   3.217  2.7738 -0.4116  0.7636
 8278TIP3    H224778   4.646   1.003   3.350  1.5478  0.0131  0.3100
 8279TIP3   OH224779   0.168   5.803   1.262 -0.0208 -0.2599 -0.0911
 8279TIP3    H124780   0.105   5.747   1.218 -0.5537 -0.7588  1.2409
 8279TIP3    H224781   0.226   5.741   1.307  0.7039  0.2231 -0.3472
 8280TIP3   OH224782   5.675   5.102   0.777  0.5955  0.3346  0.2561
 8280TIP3    H124783   5.769   5.117   0.776  0.8689 -1.1332  0.9131
 8280TIP3    H224784   5.640   5.156   0.706  2.0030  0.4272 -0.3816
 8281TIP3   OH224785   0.863   4.094   4.804  0.0829  0.1441  0.2667
 8281TIP3    H124786   0.922   4.035   4.851 -1.8409 -1.9595  0.2076
 8281TIP3    H224787   0.779   4.085   4.849 -0.4527  2.4094 -0.1604
 8282TIP3   OH224788   4.957   2.991   4.103  0.3236 -0.1775  0.1536
 8282TIP3    H124789   5.021   3.048   4.058 -0.0006  1.0996  1.2515
 8282TIP3    H224790   4.872   3.025   4.076  0.1139 -0.6789  0.1775
 8283TIP3   OH224791   7.113   6.937   5.226  0.3648 -0.3892 -0.8252
 8283TIP3    H124792   7.023   6.955   5.199  0.8771  2.4321 -1.0208
 8283TIP3    H224793   7.156   6.903   5.148 -0.6888 -2.7306 -0.4689
 8284TIP3   OH224794   1.406   4.704   2.744  0.0278  0.4059  0.2347
 8284TIP3    H124795   1.484   4.742   2.785  0.8333  1.3646 -1.9912
 8284TIP3    H224796   1.436   4.676   2.657 -1.7620 -0.6629 -0.0891
 8285TIP3   OH224797   4.048   7.764   2.324 -0.1340  0.3430 -0.6009
 8285TIP3    H124798   4.065   7.770   2.230 -3.2044  0.7018 -1.2491
 8285TIP3    H224799   4.040   7.854   2.353 -1.1689  0.2214 -0.4634
 8286TIP3   OH224800   1.947   6.546   0.409  0.6248 -0.0874 -0.1623
 8286TIP3    H124801   2.019   6.532   0.349  2.7294  1.3425  1.8602
 8286TIP3    H224802   1.937   6.463   0.455  1.4712 -0.1019  0.0081
 8287TIP3   OH224803   5.976   2.929   6.134  0.0589  0.6575 -0.2511
 8287TIP3    H124804   6.069   2.943   6.118  0.0618  0.0554 -0.7872
 8287TIP3    H224805   5.942   3.016   6.156  1.0908  0.5821  1.8629
 8288TIP3   OH224806   6.135   4.872   0.199  0.3498  0.3755 -0.0768
 8288TIP3    H124807   6.100   4.926   0.129  0.2378  3.8851  2.4168
 8288TIP3    H224808   6.217   4.915   0.224  0.7386 -1.1389  1.5085
 8289TIP3   OH224809   6.818   5.357   0.432 -0.3935  0.3031  0.4563
 8289TIP3    H124810   6.729   5.387   0.412  0.0825  2.7635  1.6357
 8289TIP3    H224811   6.806   5.270   0.470 -2.0683 -0.3416 -1.3621
 8290TIP3   OH224812   4.177   7.001   2.934 -0.4786  0.1047 -0.5318
 8290TIP3    H124813   4.228   6.988   3.015  0.0457  0.7422 -0.7557
 8290TIP3    H224814   4.212   6.936   2.873  0.4197  0.8574 -0.8413
 8291TIP3   OH224815   7.963   4.745   2.293 -0.3407  0.0170  0.1429
 8291TIP3    H124816   7.986   4.805   2.364  0.9166  1.3252 -1.2818
 8291TIP3    H224817   8.047   4.720   2.255 -0.8745 -2.1730  0.2625
 8292TIP3   OH224818   3.923   7.077   2.820 -0.0274 -0.1258  1.4216
 8292TIP3    H124819   4.007   7.050   2.856 -0.0080 -0.4548  1.1432
 8292TIP3    H224820   3.871   7.103   2.896  0.5385  0.6931  1.5370
 8293TIP3   OH224821   0.104   5.001   3.379  0.3226  1.2981 -0.5297
 8293TIP3    H124822   0.100   4.911   3.346 -1.7909  0.9426  0.5357
 8293TIP3    H224823   0.151   5.049   3.311  2.0710 -0.7020 -0.8235
 8294TIP3   OH224824   5.470   4.263   2.047  0.1970  0.1813  0.5903
 8294TIP3    H124825   5.392   4.314   2.026 -0.2003 -0.1037  1.3145
 8294TIP3    H224826   5.543   4.321   2.029 -0.1111  0.0625 -1.2387
 8295TIP3   OH224827   0.915   1.975   0.081  0.4161  0.4948 -0.2036
 8295TIP3    H124828   0.961   1.981   0.165 -2.2357 -0.0816  1.4323
 8295TIP3    H224829   0.888   2.065   0.063  1.7191  0.7610 -0.9375
 8296TIP3   OH224830   4.454   1.798   2.916 -0.3008  0.1072 -0.3913
 8296TIP3    H124831   4.441   1.848   2.835 -0.6332  0.0667 -0.3645
 8296TIP3    H224832   4.509   1.855   2.971  1.1701 -0.4732 -1.2045
 8297TIP3   OH224833   6.963   4.318   2.349 -0.3903 -0.5592  0.6013
 8297TIP3    H124834   6.919   4.247   2.304 -0.4262 -0.0705 -0.1553
 8297TIP3    H224835   6.915   4.397   2.324  1.4276  0.1214 -1.0144
 8298TIP3   OH224836   5.701   6.551   4.234  0.3973  0.4184 -0.0280
 8298TIP3    H124837   5.774   6.538   4.295  0.9478  1.2971 -0.4670
 8298TIP3    H224838   5.715   6.639   4.200 -0.0937  0.0781 -1.1519
 8299TIP3   OH224839   3.601   7.107   1.079  0.3797  0.2145 -0.5000
 8299TIP3    H124840   3.656   7.182   1.100  0.2359  0.2411 -0.2050
 8299TIP3    H224841   3.562   7.128   0.995  0.6924  0.2683 -0.6332
 8300TIP3   OH224842   0.390  -0.020   6.402  0.1323  0.2851  0.1563
 8300TIP3    H124843   0.335  -0.019   6.481 -1.5033 -1.2194 -0.8935
 8300TIP3    H224844   0.456   0.047   6.419 -0.2024  0.0826  2.7630
 8301TIP3   OH224845   5.186   5.928   2.341  0.0580 -0.1642  0.3353
 8301TIP3    H124846   5.278   5.955   2.336 -0.8289  3.1392 -1.2191
 8301TIP3    H224847   5.141   6.006   2.373 -2.1747 -1.9220  1.7253
 8302TIP3   OH224848   4.730   1.818   2.542  0.1598 -0.3833  0.4394
 8302TIP3    H124849   4.765   1.813   2.453 -1.1118  0.5640 -0.1455
 8302TIP3    H224850   4.807   1.827   2.597  0.9766 -1.0164 -0.5600
 8303TIP3   OH224851   4.949   6.770   3.613 -0.5067  0.5248  0.0733
 8303TIP3    H124852   4.994   6.826   3.549  0.7787 -1.0840 -0.5262
 8303TIP3    H224853   4.979   6.681   3.591 -2.8126 -0.4790  0.6680
 8304TIP3   OH224854   8.115   2.805   6.633  0.1135 -0.2594 -0.0060
 8304TIP3    H124855   8.046   2.760   6.680  0.0189 -2.6514 -2.2399
 8304TIP3    H224856   8.069   2.863   6.572  0.1131 -0.7123 -0.4376
 8305TIP3   OH224857   6.611   7.116   2.239  0.8590  0.1326  0.0481
 8305TIP3    H124858   6.517   7.119   2.256  0.9060 -0.0848  0.3645
 8305TIP3    H224859   6.632   7.022   2.239  0.9512  0.1469 -0.7267
 8306TIP3   OH224860   5.950   5.115   5.779 -0.2706 -0.2307  0.1998
 8306TIP3    H124861   5.924   5.069   5.699  0.4180 -0.6493  0.2050
 8306TIP3    H224862   5.887   5.186   5.788 -2.9419 -2.5331  1.4819
 8307TIP3   OH224863   8.043   6.627   0.327 -0.1252  0.2770 -0.5100
 8307TIP3    H124864   8.077   6.655   0.411  0.5574 -2.4674  0.2448
 8307TIP3    H224865   8.085   6.542   0.311 -2.5022 -0.7155 -2.1600
 8308TIP3   OH224866   0.818   0.079   6.649 -0.1612 -0.3648 -0.4473
 8308TIP3    H124867   0.883   0.029   6.699  0.2855  0.0411 -0.6225
 8308TIP3    H224868   0.863   0.159   6.623 -0.2662 -0.7299 -1.8374
 8309TIP3   OH224869   3.327   3.152   0.437 -0.1770  0.0250  0.8156
 8309TIP3    H124870   3.381   3.073   0.443 -1.3013 -1.0507 -1.6789
 8309TIP3    H224871   3.238   3.119   0.420 -0.7704  1.8080  0.2542
 8310TIP3   OH224872   1.667   2.430   1.060  0.3092  0.0616 -0.0073
 8310TIP3    H124873   1.632   2.499   1.004 -0.1918  0.3556  0.6477
 8310TIP3    H224874   1.591   2.376   1.081  0.7365 -0.8161 -0.6827
 8311TIP3   OH224875   4.565   5.752   3.588 -0.1684 -0.3737  0.5451
 8311TIP3    H124876   4.589   5.841   3.614 -1.5415 -0.2857  1.6919
 8311TIP3    H224877   4.479   5.738   3.629 -1.3708 -1.1619 -2.0259
 8312TIP3   OH224878   3.529   7.022   5.598  0.4566  0.5488 -0.4062
 8312TIP3    H124879   3.438   7.024   5.570  0.7783  2.3486 -1.4799
 8312TIP3    H224880   3.579   7.042   5.519  1.6722  1.3936  0.5338
 8313TIP3   OH224881   2.081   3.003   1.966  0.2864 -0.3709 -0.7078
 8313TIP3    H124882   2.125   2.981   1.884  1.5195 -0.9442  0.0789
 8313TIP3    H224883   2.064   2.918   2.007 -2.9506 -0.3003 -1.6303
 8314TIP3   OH224884   1.883   1.517   6.142  0.2536  0.4379 -0.5527
 8314TIP3    H124885   1.903   1.443   6.084 -1.3039 -0.8204  0.4610
 8314TIP3    H224886   1.961   1.525   6.197  0.4922 -0.3738 -0.7484
 8315TIP3   OH224887   3.420   3.255   6.367 -0.0172 -0.0234 -0.4924
 8315TIP3    H124888   3.491   3.274   6.429 -0.7867 -1.7939  1.0349
 8315TIP3    H224889   3.341   3.284   6.413 -0.3758  1.3329 -1.9074
 8316TIP3   OH224890   5.152   1.983   6.099 -0.4300 -0.5628  0.3779
 8316TIP3    H124891   5.174   2.039   6.173  1.4235 -1.8309  0.8509
 8316TIP3    H224892   5.060   1.960   6.112 -1.3330  2.4515  0.0502
 8317TIP3   OH224893   0.264   6.120   0.522 -0.1237 -0.2127  0.1614
 8317TIP3    H124894   0.297   6.038   0.487  1.4394  0.2787  0.4149
 8317TIP3    H224895   0.206   6.154   0.452  0.0663 -0.9937 -0.3881
 8318TIP3   OH224896   5.278   7.109   2.709  0.1898  0.0910  0.2438
 8318TIP3    H124897   5.289   7.181   2.771  1.7987  0.4570 -0.4167
 8318TIP3    H224898   5.238   7.039   2.760  1.6537  0.3009  1.7678
 8319TIP3   OH224899   4.502   0.097   6.298 -0.3273 -0.6761 -0.4130
 8319TIP3    H124900   4.576   0.086   6.358 -1.3826 -0.8911  0.8938
 8319TIP3    H224901   4.517   0.182   6.257  0.3867 -0.4961  0.1938
 8320TIP3   OH224902   2.768   6.930   2.678  0.1486  0.0482  0.3378
 8320TIP3    H124903   2.675   6.950   2.677  0.4532  1.5639 -0.8048
 8320TIP3    H224904   2.808   7.002   2.726  0.7756 -0.3358  0.4011
 8321TIP3   OH224905   3.343   4.484   2.815 -0.4449 -0.2832  0.3678
 8321TIP3    H124906   3.420   4.470   2.871 -2.4179 -1.3829  3.0163
 8321TIP3    H224907   3.338   4.579   2.805 -0.7065  0.1024  3.2708
 8322TIP3   OH224908   8.277   4.941   0.377 -0.0134 -0.0026  0.7332
 8322TIP3    H124909   8.372   4.935   0.367  0.1416  2.0277  0.6373
 8322TIP3    H224910   8.242   4.911   0.293  0.5429 -0.3936  0.6321
 8323TIP3   OH224911   3.469   4.304   0.840  0.4037  0.2426  0.6631
 8323TIP3    H124912   3.563   4.301   0.859  0.6015  2.9857  0.4438
 8323TIP3    H224913   3.444   4.395   0.854 -2.4786 -0.6139  1.6918
 8324TIP3   OH224914   2.359   4.863   0.658 -0.2070 -0.1261 -0.2819
 8324TIP3    H124915   2.285   4.876   0.598  0.8360  2.9252 -1.1069
 8324TIP3    H224916   2.410   4.793   0.618 -0.8415  0.1405 -1.6419
 8325TIP3   OH224917   3.319   2.619   6.135  0.1040 -0.0909 -0.0590
 8325TIP3    H124918   3.243   2.562   6.150 -0.3147  0.6461  0.7033
 8325TIP3    H224919   3.364   2.579   6.061 -0.8352 -0.7420 -0.3031
 8326TIP3   OH224920   2.068   4.786   1.375 -0.0283 -0.3468  0.1650
 8326TIP3    H124921   1.978   4.754   1.369 -0.1008 -0.2345  0.6223
 8326TIP3    H224922   2.081   4.804   1.468  1.3658 -3.0362  0.6124
 8327TIP3   OH224923   0.960   0.990   6.473  0.0273 -0.4411  0.5080
 8327TIP3    H124924   0.898   0.922   6.497  0.3137 -0.6174  0.7435
 8327TIP3    H224925   1.015   1.003   6.550 -0.5560  0.6483  0.7597
 8328TIP3   OH224926   7.788   3.373   4.682 -0.5714  0.2802 -0.2146
 8328TIP3    H124927   7.858   3.434   4.704 -0.2369 -0.8622  2.1449
 8328TIP3    H224928   7.831   3.304   4.630 -0.3632  0.5740 -0.4340
 8329TIP3   OH224929   5.445   1.487   0.261 -0.0305 -0.0436  0.1341
 8329TIP3    H124930   5.358   1.493   0.299  0.5145  0.7702  1.2984
 8329TIP3    H224931   5.461   1.573   0.222  0.7847  0.3070  1.1771
 8330TIP3   OH224932   5.748   3.836   3.250 -0.7959 -0.3546  0.1467
 8330TIP3    H124933   5.840   3.810   3.237 -0.7981 -0.3025  0.0218
 8330TIP3    H224934   5.698   3.777   3.193 -0.8115 -0.1614 -0.0418
 8331TIP3   OH224935   6.207   0.803   3.807  0.0136  0.2615  0.4558
 8331TIP3    H124936   6.181   0.727   3.756  1.9123 -1.2599  1.6014
 8331TIP3    H224937   6.227   0.871   3.742 -0.8905 -0.4841 -0.6260
 8332TIP3   OH224938   2.657   5.976   6.655  0.0847  0.3589 -0.0320
 8332TIP3    H124939   2.639   5.885   6.678  1.5150 -0.2523 -1.2024
 8332TIP3    H224940   2.752   5.985   6.663 -0.1354  2.1760  1.4786
 8333TIP3   OH224941   2.395   3.818   2.229 -0.4836 -0.0939 -0.0875
 8333TIP3    H124942   2.485   3.842   2.251  0.3906 -2.1788 -1.1147
 8333TIP3    H224943   2.360   3.893   2.182  1.7811 -0.3570 -2.3539
 8334TIP3   OH224944   3.665   3.955   0.567 -0.2438 -0.6830  0.3264
 8334TIP3    H124945   3.581   3.981   0.529  0.6419  2.0188 -0.0094
 8334TIP3    H224946   3.718   3.928   0.491 -0.4510 -1.4310  0.4323
 8335TIP3   OH224947   4.897   1.999   5.817 -0.6042 -0.0907  0.5376
 8335TIP3    H124948   4.843   2.056   5.763 -1.1983 -0.4111  0.7848
 8335TIP3    H224949   4.954   2.060   5.866 -0.0538  0.1969 -0.4289
 8336TIP3   OH224950   1.041   2.595   1.082  1.1961 -0.5797 -0.2153
 8336TIP3    H124951   1.071   2.680   1.050 -0.6200 -0.2545 -1.2123
 8336TIP3    H224952   1.114   2.536   1.065  2.0902  0.5625 -0.4840
 8337TIP3   OH224953   4.203   2.698   4.504  0.0194  0.7927  0.1483
 8337TIP3    H124954   4.142   2.665   4.571 -0.0162 -0.0829 -0.3071
 8337TIP3    H224955   4.152   2.764   4.457 -1.1194 -0.9269 -1.1637
 8338TIP3   OH224956   3.836   4.763   0.074  0.0811  0.5861  0.3669
 8338TIP3    H124957   3.742   4.762   0.055  0.2296 -1.4338 -0.4837
 8338TIP3    H224958   3.872   4.829   0.015 -0.7516  1.0708  0.3912
 8339TIP3   OH224959   3.548   2.745   1.430  0.1439  0.0666 -0.8489
 8339TIP3    H124960   3.618   2.778   1.487  1.2166 -1.3360 -1.2826
 8339TIP3    H224961   3.509   2.673   1.479 -0.2039  0.0714 -1.1139
 8340TIP3   OH224962   7.825   1.170   3.719  0.4310 -0.6820  0.3842
 8340TIP3    H124963   7.828   1.223   3.640 -0.2983 -1.4422 -0.1745
 8340TIP3    H224964   7.764   1.215   3.777  0.0325 -0.7508  0.0240
 8341TIP3   OH224965   7.541   0.222   0.529  0.1614  0.5913  0.0646
 8341TIP3    H124966   7.615   0.224   0.468  0.9740  0.9016  1.0380
 8341TIP3    H224967   7.481   0.289   0.496 -0.0391 -0.1394 -1.1336
 8342TIP3   OH224968   2.099   1.448   5.461  0.6734  0.4031 -0.0521
 8342TIP3    H124969   2.062   1.389   5.527  0.9112  1.1716  0.8074
 8342TIP3    H224970   2.170   1.399   5.421 -0.5386 -0.6774 -0.9185
 8343TIP3   OH224971   2.161   7.681   5.131 -0.1353  0.8195 -0.0881
 8343TIP3    H124972   2.133   7.590   5.124 -1.6284  1.3189 -1.1825
 8343TIP3    H224973   2.256   7.678   5.121 -0.2158 -0.5830 -0.5766
 8344TIP3   OH224974   3.308   3.090   4.070 -0.2669  0.0282  0.1348
 8344TIP3    H124975   3.343   3.010   4.030 -0.4510 -0.9740  1.8756
 8344TIP3    H224976   3.216   3.090   4.046 -0.1024  0.1360 -0.5133
 8345TIP3   OH224977   1.408   7.148   0.397  0.1345  0.1958  0.1686
 8345TIP3    H124978   1.394   7.101   0.314  0.8083 -1.2331  0.8166
 8345TIP3    H224979   1.347   7.221   0.394 -1.3944 -1.0403 -0.6841
 8346TIP3   OH224980   4.055   4.572   0.966 -0.3060 -0.2752  0.3663
 8346TIP3    H124981   4.094   4.613   0.889  0.8752 -0.8603  0.6233
 8346TIP3    H224982   4.088   4.622   1.040  0.8656 -1.4221  0.6603
 8347TIP3   OH224983   4.932   1.828   2.320  0.3571 -0.0263 -0.4728
 8347TIP3    H124984   5.007   1.885   2.306 -0.1981  0.6771 -0.6086
 8347TIP3    H224985   4.933   1.768   2.245  2.1810 -1.6222  0.7286
 8348TIP3   OH224986   5.838   3.134   6.728 -0.5486  0.7515  0.5880
 8348TIP3    H124987   5.901   3.181   6.782 -0.3064  0.4053  0.6134
 8348TIP3    H224988   5.816   3.195   6.658 -1.3315  1.4392  1.4080
 8349TIP3   OH224989   6.658   1.939   4.783  0.0521 -0.4741 -0.2948
 8349TIP3    H124990   6.742   1.952   4.738 -0.5053 -1.2241 -1.6230
 8349TIP3    H224991   6.677   1.873   4.850  1.0792  1.2251  1.1862
 8350TIP3   OH224992   2.536   6.835   0.397  0.0928  0.5043 -0.5186
 8350TIP3    H124993   2.552   6.741   0.394 -0.1985  0.3130  1.9483
 8350TIP3    H224994   2.442   6.845   0.381 -0.1222  0.2235  0.4778
 8351TIP3   OH224995   3.170   5.258   5.444 -0.2753  0.4778 -0.0699
 8351TIP3    H124996   3.160   5.295   5.356  1.4938 -0.0469 -0.5362
 8351TIP3    H224997   3.264   5.256   5.458 -0.3793 -1.9464  0.7424
 8352TIP3   OH224998   5.300   7.784   6.682  0.6447  0.0784 -0.3439
 8352TIP3    H124999   5.234   7.722   6.650  0.0801 -0.2928  1.4320
 8352TIP3    H225000   5.381   7.756   6.641 -0.0164 -0.4122 -1.3677
 8353TIP3   OH225001   1.037   0.549   1.705 -0.3955 -0.3331  0.0562
 8353TIP3    H125002   1.122   0.542   1.749 -1.5684  0.7218  2.7463
 8353TIP3    H225003   1.029   0.469   1.654  0.2237 -2.9388  3.6294
 8354TIP3   OH225004   7.699   2.401   2.789  0.0247  0.4390  0.1326
 8354TIP3    H125005   7.624   2.355   2.752 -0.5484  0.9057  0.6820
 8354TIP3    H225006   7.771   2.338   2.785  0.4293  0.9577 -3.1975
 8355TIP3   OH225007   3.384   5.640   5.628 -0.4171  0.4686  0.2632
 8355TIP3    H125008   3.381   5.547   5.649 -0.4367  0.0418 -1.4161
 8355TIP3    H225009   3.478   5.660   5.621 -0.4019  0.7020  1.1136
 8356TIP3   OH225010   0.528   6.681   4.637 -0.0574  0.1035 -0.1393
 8356TIP3    H125011   0.611   6.692   4.591  0.7691  0.9274  1.4343
 8356TIP3    H225012   0.539   6.599   4.687  0.0655  0.5121  0.5226
 8357TIP3   OH225013   1.544   3.202   1.697 -0.1752 -0.0737  0.2733
 8357TIP3    H125014   1.491   3.158   1.764  1.0908 -1.7570  0.2335
 8357TIP3    H225015   1.583   3.277   1.743 -1.2131  0.1946  0.7512
 8358TIP3   OH225016   6.128   4.889   3.565 -0.1418  0.9571  0.0901
 8358TIP3    H125017   6.130   4.803   3.523  2.4915 -0.1370  2.2107
 8358TIP3    H225018   6.066   4.879   3.637 -0.3310  1.0648 -0.0557
 8359TIP3   OH225019   1.573   2.124   0.679  0.1635 -0.0386 -0.4023
 8359TIP3    H125020   1.630   2.048   0.672 -1.4431 -1.3154 -0.2061
 8359TIP3    H225021   1.606   2.171   0.756  0.6899 -0.9872 -0.0272
 8360TIP3   OH225022   6.154   0.761   6.045 -0.3085 -0.1780 -0.1830
 8360TIP3    H125023   6.079   0.718   6.003 -0.0388 -1.2196  0.3746
 8360TIP3    H225024   6.224   0.755   5.980 -0.9011  1.5330 -1.0403
 8361TIP3   OH225025   7.464   5.590   4.302  0.1258 -0.0677 -0.2389
 8361TIP3    H125026   7.536   5.647   4.328  0.8913 -1.0580 -0.1557
 8361TIP3    H225027   7.420   5.637   4.232  0.7220  0.6385 -0.1459
 8362TIP3   OH225028   1.678   1.942   5.027  0.5188 -0.6157 -0.4861
 8362TIP3    H125029   1.763   1.986   5.031  0.5621 -0.8234  1.9670
 8362TIP3    H225030   1.700   1.849   5.017  0.6278 -0.7235  0.6266
 8363TIP3   OH225031   4.687   1.233   2.212  0.2482 -0.4624  0.4201
 8363TIP3    H125032   4.739   1.303   2.172 -0.0498  0.3840  1.4574
 8363TIP3    H225033   4.610   1.226   2.155  0.4577 -0.1968  0.0986
 8364TIP3   OH225034   1.451   7.825   2.532  0.2038  0.5383  0.0750
 8364TIP3    H125035   1.442   7.730   2.534  0.5198  0.5150  0.9496
 8364TIP3    H225036   1.463   7.846   2.439 -0.2341 -0.2309 -0.1663
 8365TIP3   OH225037   3.658   4.130   1.748  0.6730 -0.1424 -0.8493
 8365TIP3    H125038   3.605   4.062   1.706 -0.2982 -0.0239  0.1296
 8365TIP3    H225039   3.608   4.210   1.736  0.8636  0.0584 -0.3478
 8366TIP3   OH225040   6.652   6.393   1.919 -0.4411  0.4397 -0.4773
 8366TIP3    H125041   6.705   6.376   1.842  0.2515  0.8290 -0.1014
 8366TIP3    H225042   6.692   6.471   1.959 -2.2439  1.7207 -1.0356
 8367TIP3   OH225043   7.490   4.187   4.059 -0.0371  0.0559 -0.2592
 8367TIP3    H125044   7.570   4.239   4.050  1.0532 -1.4372  0.2853
 8367TIP3    H225045   7.452   4.215   4.142 -0.7699  1.6308 -1.0925
 8368TIP3   OH225046   0.672   7.794   2.409  0.2818 -0.0435 -0.1914
 8368TIP3    H125047   0.646   7.717   2.357 -0.9217 -0.3757  0.8311
 8368TIP3    H225048   0.650   7.869   2.354  2.7646 -0.3952 -1.7859
 8369TIP3   OH225049   0.956   4.089   1.369 -0.3459 -0.1410 -0.2808
 8369TIP3    H125050   0.922   4.103   1.458  2.7761  0.2376  0.9748
 8369TIP3    H225051   0.980   3.996   1.367 -1.8672 -0.5423 -1.3437
 8370TIP3   OH225052   6.245   7.308   3.139 -0.0064  0.1246 -0.0046
 8370TIP3    H125053   6.196   7.384   3.170 -1.3483 -0.8427  0.3359
 8370TIP3    H225054   6.292   7.276   3.216 -0.6611 -0.2917  0.2240
 8371TIP3   OH225055   7.122   5.997   1.050 -0.2488  0.4362 -0.1676
 8371TIP3    H125056   7.117   6.072   0.991 -0.3471  1.4792  1.1190
 8371TIP3    H225057   7.214   5.995   1.078 -0.3883  0.4875  0.3023
 8372TIP3   OH225058   7.556   5.017   4.996 -0.5756  0.5296 -0.2237
 8372TIP3    H125059   7.611   4.962   4.941 -0.1390  0.5040  0.2277
 8372TIP3    H225060   7.561   5.104   4.955  0.1690  0.6305  0.0632
 8373TIP3   OH225061   0.238   3.183   4.307 -0.7169 -0.2743 -0.0372
 8373TIP3    H125062   0.145   3.172   4.326 -0.3025  0.9905  3.4189
 8373TIP3    H225063   0.244   3.271   4.269 -0.9371 -0.3794 -0.3178
 8374TIP3   OH225064   7.761   7.501   3.191  0.0253 -0.6468  0.3507
 8374TIP3    H125065   7.676   7.457   3.192 -0.5304  0.3875 -0.2863
 8374TIP3    H225066   7.769   7.537   3.103  0.7021  0.0863  0.6949
 8375TIP3   OH225067   4.570   2.818   0.482 -0.2054 -0.0295  0.0721
 8375TIP3    H125068   4.508   2.770   0.538  0.0483  0.2366  0.5938
 8375TIP3    H225069   4.517   2.885   0.439 -0.4871 -0.5200 -0.3489
 8376TIP3   OH225070   5.977   6.148   0.550  0.0714 -0.0044  0.6222
 8376TIP3    H125071   5.987   6.242   0.533 -2.0958  0.1004 -0.3240
 8376TIP3    H225072   5.954   6.144   0.643  0.5419  0.3474  0.7623
 8377TIP3   OH225073   7.428   3.868   4.100  0.2710 -0.0072  0.0227
 8377TIP3    H125074   7.447   3.961   4.108 -1.5685  0.4620 -0.4899
 8377TIP3    H225075   7.467   3.843   4.016  2.1738 -0.1394  0.8870
 8378TIP3   OH225076   7.569   6.028   5.589 -0.2161 -0.0142 -0.5165
 8378TIP3    H125077   7.569   5.945   5.636 -1.6084 -0.1128 -0.6488
 8378TIP3    H225078   7.548   6.093   5.657 -2.9939 -0.2382 -1.0314
 8379TIP3   OH225079   2.098   5.163   1.689  0.5603 -0.4629  0.3357
 8379TIP3    H125080   2.024   5.177   1.748  1.1938 -0.6196  1.1907
 8379TIP3    H225081   2.061   5.114   1.616  0.0420 -1.6159  1.3230
 8380TIP3   OH225082   6.462   7.717   4.938  0.0894  0.4138 -0.5325
 8380TIP3    H125083   6.395   7.770   4.895 -0.6048  0.1739  0.2245
 8380TIP3    H225084   6.417   7.636   4.963  0.8251 -0.0238 -0.5866
 8381TIP3   OH225085   0.646   3.195   1.505  0.4311  0.4112  0.5008
 8381TIP3    H125086   0.661   3.163   1.594  0.5878 -0.1316  0.2890
 8381TIP3    H225087   0.637   3.115   1.453 -1.6352  0.7151  0.3411
 8382TIP3   OH225088   5.507   0.950   5.875  0.0458  0.6234 -0.2216
 8382TIP3    H125089   5.472   0.885   5.937  0.1906  0.8698  0.1226
 8382TIP3    H225090   5.430   0.983   5.829  0.0564 -0.4728 -1.0787
 8383TIP3   OH225091   1.473   5.651   4.825 -0.3262  0.2037  0.4780
 8383TIP3    H125092   1.391   5.665   4.778 -1.0389  0.0143  1.6506
 8383TIP3    H225093   1.528   5.726   4.801 -2.0593  2.1674  2.2988
 8384TIP3   OH225094   4.191   0.444   4.138  0.3571  0.4566 -0.1504
 8384TIP3    H125095   4.172   0.350   4.137 -0.0146  0.5333 -0.3450
 8384TIP3    H225096   4.119   0.484   4.089  1.3507  0.6897 -1.4514
 8385TIP3   OH225097   4.341   6.756   0.867  0.6457 -0.5453 -0.2924
 8385TIP3    H125098   4.436   6.758   0.876  0.5798  2.0805  0.9331
 8385TIP3    H225099   4.322   6.821   0.799 -0.2882 -1.2450 -0.7260
 8386TIP3   OH225100   4.673   4.290   1.577 -0.2706  0.6212  0.1631
 8386TIP3    H125101   4.754   4.297   1.526 -0.8483 -0.0163 -0.8799
 8386TIP3    H225102   4.689   4.344   1.654  0.6737  1.5454 -0.6426
 8387TIP3   OH225103   3.044   3.843   0.149  0.1192 -0.0034  0.3381
 8387TIP3    H125104   3.120   3.792   0.176 -0.5082 -0.6353  0.9368
 8387TIP3    H225105   3.049   3.845   0.053  0.1065 -1.2651  0.3043
 8388TIP3   OH225106   3.608   4.147   6.266  0.4405  0.8437  0.4725
 8388TIP3    H125107   3.527   4.194   6.287 -0.9948 -0.9151 -0.7820
 8388TIP3    H225108   3.668   4.170   6.337 -2.0340  0.1353  2.9966
 8389TIP3   OH225109   3.988   0.436   4.726  0.1372  0.2622 -0.4822
 8389TIP3    H125110   3.978   0.448   4.631  0.1611  1.4602 -0.3464
 8389TIP3    H225111   3.995   0.341   4.737 -0.3288  0.0732 -1.6322
 8390TIP3   OH225112   3.681   0.803   4.993  0.0792  0.7948 -0.4241
 8390TIP3    H125113   3.645   0.864   4.929 -0.4946 -0.0974 -0.9639
 8390TIP3    H225114   3.651   0.717   4.965 -1.0706  0.4709  1.6286
 8391TIP3   OH225115   6.009   5.636   4.111 -0.0014 -0.2505  0.1631
 8391TIP3    H125116   5.968   5.657   4.195 -2.2743 -0.9022 -0.7168
 8391TIP3    H225117   6.031   5.543   4.117  0.3436 -0.1658  0.2313
 8392TIP3   OH225118   5.555   6.688   2.910 -0.1020 -0.1004 -0.0603
 8392TIP3    H125119   5.461   6.702   2.921 -0.5219 -2.0932 -0.8506
 8392TIP3    H225120   5.595   6.741   2.980 -1.8558 -0.0712  0.9743
 8393TIP3   OH225121   0.535   5.238   1.692  0.6483 -0.2423 -0.0331
 8393TIP3    H125122   0.463   5.262   1.750 -1.6930  0.4403 -2.9314
 8393TIP3    H225123   0.588   5.317   1.685 -1.0340  0.8406 -1.3844
 8394TIP3   OH225124   1.643   7.694   4.228 -0.1790  0.0436  0.3411
 8394TIP3    H125125   1.695   7.717   4.304 -0.7020  0.2554  0.6395
 8394TIP3    H225126   1.562   7.657   4.264 -0.7801  0.9165 -0.0919
 8395TIP3   OH225127   4.987   5.683   4.510  0.7606 -0.4251 -0.7427
 8395TIP3    H125128   4.988   5.594   4.477 -0.2462 -0.7960  0.1808
 8395TIP3    H225129   4.978   5.738   4.432  4.1965 -0.8930 -1.6528
 8396TIP3   OH225130   5.278   6.244   2.075  0.0581 -0.0767  0.2965
 8396TIP3    H125131   5.210   6.210   2.017  0.5671 -0.8660  0.1363
 8396TIP3    H225132   5.332   6.167   2.095  0.6978  0.4669  0.6922
 8397TIP3   OH225133   4.805   1.323   6.227  0.4171 -0.0590  0.3488
 8397TIP3    H125134   4.891   1.319   6.268  0.2606  0.2156  0.6957
 8397TIP3    H225135   4.759   1.394   6.271 -0.6513 -1.3752  1.4489
 8398TIP3   OH225136   7.637   6.603   5.942 -0.0139  0.0558  0.3099
 8398TIP3    H125137   7.730   6.622   5.928  0.4349 -0.9456  1.6892
 8398TIP3    H225138   7.633   6.569   6.031 -1.7620  0.3599  0.3810
 8399TIP3   OH225139   8.085  -0.002   1.768 -0.0041  0.5555  0.1164
 8399TIP3    H125140   8.084   0.062   1.697 -1.7821  0.4977  0.0417
 8399TIP3    H225141   8.069   0.050   1.847 -0.1515  0.3563  0.2160
 8400TIP3   OH225142   0.239   2.919   1.381  0.3692 -0.0819 -0.7657
 8400TIP3    H125143   0.289   2.838   1.389  0.1214 -0.1457  0.3060
 8400TIP3    H225144   0.151   2.895   1.411  0.7455  0.9951  1.4097
 8401TIP3   OH225145   0.128   5.730   2.905 -0.4053  0.1359 -0.2576
 8401TIP3    H125146   0.051   5.755   2.955 -1.2070  0.4446 -1.5930
 8401TIP3    H225147   0.202   5.764   2.955 -1.1553  0.3087  0.7660
 8402TIP3   OH225148   7.494   0.893   2.136 -0.2258 -0.2128  0.5948
 8402TIP3    H125149   7.420   0.910   2.195 -0.2626 -1.0186  0.7843
 8402TIP3    H225150   7.500   0.798   2.131  0.1736 -0.1565 -0.2145
 8403TIP3   OH225151   2.623   2.193   2.943  0.1874 -0.0010  0.2018
 8403TIP3    H125152   2.580   2.107   2.938 -1.1152  0.6311  0.1512
 8403TIP3    H225153   2.552   2.254   2.960  1.0525  1.1218 -0.1213
 8404TIP3   OH225154   6.842   4.898   5.419 -0.0427 -0.1677  0.0356
 8404TIP3    H125155   6.808   4.817   5.382 -0.3353  0.7172 -1.7395
 8404TIP3    H225156   6.834   4.887   5.514 -1.4284 -1.6239 -0.2214
 8405TIP3   OH225157   1.851   6.746   5.784 -0.3955  0.4037  0.1252
 8405TIP3    H125158   1.869   6.822   5.839 -0.7927  1.2091 -0.8205
 8405TIP3    H225159   1.845   6.782   5.695 -0.5068 -0.7468 -0.3474
 8406TIP3   OH225160   0.146   2.921   2.538 -0.5313  0.0532 -0.3961
 8406TIP3    H125161   0.165   2.853   2.603  0.1799 -0.2504 -0.9132
 8406TIP3    H225162   0.133   3.001   2.590  0.2141 -0.1396  0.1021
 8407TIP3   OH225163   7.938   6.556   3.384 -0.1212 -0.0193  0.2123
 8407TIP3    H125164   7.982   6.474   3.361  0.7881  1.0155 -2.0521
 8407TIP3    H225165   8.008   6.613   3.416 -0.3990  0.5032 -0.0978
 8408TIP3   OH225166   1.156   4.675   6.697 -0.5158  0.0688  0.2685
 8408TIP3    H125167   1.100   4.596   6.696  2.2019 -1.9988 -0.0995
 8408TIP3    H225168   1.184   4.683   6.788 -1.0456  0.8715  0.3730
 8409TIP3   OH225169   2.992   5.391   3.707  0.0860  0.0381  0.7345
 8409TIP3    H125170   2.917   5.332   3.706  0.9974 -1.1679  0.2195
 8409TIP3    H225171   3.034   5.375   3.791 -0.4902  1.0478  1.2145
 8410TIP3   OH225172   7.926   5.046   5.492 -0.2577 -0.2952 -0.4212
 8410TIP3    H125173   7.986   5.059   5.419 -1.2500  2.4899 -0.8429
 8410TIP3    H225174   7.983   5.047   5.570  0.4257  0.8824 -0.9055
 8411TIP3   OH225175   2.058   1.208   6.397  0.1523  0.5185 -0.0459
 8411TIP3    H125176   2.008   1.178   6.321 -0.0007  0.4201  0.0930
 8411TIP3    H225177   1.991   1.228   6.463  0.1697  2.1940 -0.4897
 8412TIP3   OH225178   2.816   5.776   0.901 -0.0821 -0.6495  0.1046
 8412TIP3    H125179   2.797   5.733   0.818 -1.5245  0.7010 -0.3148
 8412TIP3    H225180   2.865   5.855   0.877  1.7958 -1.5569  0.7904
 8413TIP3   OH225181   2.733   0.277   6.122  0.2862  0.0717 -0.4911
 8413TIP3    H125182   2.748   0.197   6.070  1.0602 -1.2901  1.6763
 8413TIP3    H225183   2.638   0.283   6.131  0.1587  0.1079 -1.6747
 8414TIP3   OH225184   2.213   1.950   5.642  0.0568  0.1008  0.0844
 8414TIP3    H125185   2.219   1.855   5.639  2.0503  0.2085 -0.9587
 8414TIP3    H225186   2.120   1.969   5.629 -0.0962 -1.6593 -1.8252
 8415TIP3   OH225187   2.583   2.513   1.327  0.1672 -0.0302  0.5776
 8415TIP3    H125188   2.637   2.589   1.351 -0.4883  0.5593  0.2061
 8415TIP3    H225189   2.496   2.549   1.311  0.2581 -0.5746 -1.4107
 8416TIP3   OH225190   7.142   2.138   0.728  0.7036  0.1433  0.3618
 8416TIP3    H125191   7.130   2.205   0.795  1.2088  2.7101 -1.9496
 8416TIP3    H225192   7.056   2.099   0.718 -0.7413  3.2937 -0.9390
 8417TIP3   OH225193   2.442   6.184   5.761 -0.4939  0.3175  0.0733
 8417TIP3    H125194   2.513   6.130   5.726 -0.3733 -0.1295  0.9735
 8417TIP3    H225195   2.388   6.122   5.812 -0.0031  1.1491  1.6443
 8418TIP3   OH225196   0.472   0.855   6.365  0.2957 -0.0707  0.7003
 8418TIP3    H125197   0.509   0.936   6.330 -0.0757 -0.1729  0.0601
 8418TIP3    H225198   0.459   0.874   6.458  0.3906  0.5385  0.5963
 8419TIP3   OH225199   1.236   2.165   1.797  0.3848 -0.0901  0.2794
 8419TIP3    H125200   1.330   2.178   1.800  0.3789 -0.1445  1.1272
 8419TIP3    H225201   1.207   2.206   1.716  1.5146 -2.6062 -1.5374
 8420TIP3   OH225202   7.550   2.607   4.520  0.0696 -0.7986  0.3632
 8420TIP3    H125203   7.475   2.586   4.464 -1.0217  0.0521  1.4325
 8420TIP3    H225204   7.594   2.523   4.534 -1.6609 -1.6649  1.0445
 8421TIP3   OH225205   0.462   3.514   1.432  0.0911 -0.1463 -0.0991
 8421TIP3    H125206   0.475   3.602   1.466  4.5075 -0.6937  0.1408
 8421TIP3    H225207   0.475   3.456   1.507 -2.8473 -1.1612 -0.2197
 8422TIP3   OH225208   1.529   4.515   3.994  0.3305  0.1678  0.3325
 8422TIP3    H125209   1.594   4.494   4.061  0.2122 -0.3434  0.2951
 8422TIP3    H225210   1.448   4.527   4.043  0.3025  0.0814  0.3066
 8423TIP3   OH225211   7.540   2.931   3.653 -0.4733 -0.3603  0.0572
 8423TIP3    H125212   7.590   2.951   3.574  0.4517 -0.0405  0.7110
 8423TIP3    H225213   7.555   2.838   3.668 -1.4308 -0.6430 -0.6714
 8424TIP3   OH225214   5.780   5.664   1.040  0.5176  0.3561 -0.6746
 8424TIP3    H125215   5.744   5.653   0.952  1.4571 -0.7625 -0.9410
 8424TIP3    H225216   5.791   5.759   1.050 -2.3361  0.7719 -0.6076
 8425TIP3   OH225217   2.840   3.991   2.485  0.3468  0.0502 -0.1942
 8425TIP3    H125218   2.779   3.940   2.539 -0.2678  1.3322  0.3696
 8425TIP3    H225219   2.903   3.927   2.452 -0.8329 -1.1871 -0.1270
 8426TIP3   OH225220   2.196   1.273   1.273 -0.9882 -0.6814  0.0905
 8426TIP3    H125221   2.246   1.248   1.196 -0.6528 -1.0394  0.4229
 8426TIP3    H225222   2.260   1.314   1.331 -1.6000  1.4666 -0.6433
 8427TIP3   OH225223   2.417   7.084   6.401  0.1156 -0.5726  0.2277
 8427TIP3    H125224   2.323   7.095   6.408  0.0024  0.6336 -2.2291
 8427TIP3    H225225   2.430   7.032   6.322  1.5310  1.8995 -1.2956
 8428TIP3   OH225226   4.960   3.800   6.007 -0.7120  0.2928  0.2029
 8428TIP3    H125227   4.924   3.773   5.922 -0.5617  0.9614 -0.0800
 8428TIP3    H225228   5.053   3.778   6.001 -0.6085  0.7712  0.0098
 8429TIP3   OH225229   5.079   5.431   6.060 -0.6827 -0.5530  0.7010
 8429TIP3    H125230   5.106   5.367   5.994 -3.6772  0.6510 -1.9704
 8429TIP3    H225231   5.150   5.494   6.064  0.0889 -1.3122 -0.4587
 8430TIP3   OH225232   2.443   5.935   5.511 -0.3008  0.1650  0.2376
 8430TIP3    H125233   2.380   5.999   5.542 -1.0295 -1.1464  1.5903
 8430TIP3    H225234   2.517   5.942   5.572  0.5330  1.0989 -0.8323
 8431TIP3   OH225235   2.010   4.056   4.696 -0.3662 -0.0824  0.2940
 8431TIP3    H125236   2.093   4.010   4.710 -0.8569 -1.0286  0.1655
 8431TIP3    H225237   1.953   4.022   4.765 -1.1248 -0.6272 -0.5895
 8432TIP3   OH225238   5.319   5.233   0.553 -0.1072  0.2511  0.7005
 8432TIP3    H125239   5.389   5.286   0.515 -1.6372  1.0154 -1.2990
 8432TIP3    H225240   5.346   5.143   0.537 -0.1538  0.5374 -1.3492
 8433TIP3   OH225241   2.022   1.625   3.641  0.3256  0.4173 -0.4008
 8433TIP3    H125242   2.046   1.717   3.646  0.7010  0.4798 -2.5735
 8433TIP3    H225243   2.015   1.606   3.548 -0.2861 -1.6284 -0.0039
 8434TIP3   OH225244   7.912   7.816   4.906 -0.0969  0.2445 -0.2073
 8434TIP3    H125245   7.842   7.803   4.842 -0.9279 -0.7351  0.8492
 8434TIP3    H225246   7.945   7.728   4.923  0.1136  0.4914  0.7037
 8435TIP3   OH225247   0.307   3.266   1.112  0.1177 -0.1576  0.0139
 8435TIP3    H125248   0.380   3.325   1.132  0.1102 -0.2149  0.2125
 8435TIP3    H225249   0.236   3.297   1.167  0.3621 -0.8651  0.7497
 8436TIP3   OH225250   2.775   5.509   6.042 -0.4504  0.1956  0.3209
 8436TIP3    H125251   2.809   5.439   5.987 -0.7516  0.5032 -0.2674
 8436TIP3    H225252   2.685   5.483   6.060 -0.1258 -0.2782  1.3051
 8437TIP3   OH225253   3.272   6.993   5.478 -0.4857 -0.3266 -0.3111
 8437TIP3    H125254   3.320   6.911   5.461 -1.1911 -0.9344  0.5030
 8437TIP3    H225255   3.217   7.005   5.401 -1.8094 -1.7012  0.3441
 8438TIP3   OH225256   3.083   2.180   3.409 -0.0966 -0.5298  0.3697
 8438TIP3    H125257   3.157   2.180   3.470  0.4338  0.6136 -0.2341
 8438TIP3    H225258   3.006   2.174   3.465  0.2867  2.1983  1.3585
 8439TIP3   OH225259   5.132   2.535   2.109 -0.1751 -0.0841  0.1924
 8439TIP3    H125260   5.054   2.576   2.072  0.7774  1.6607 -0.0007
 8439TIP3    H225261   5.101   2.495   2.190 -1.4806 -0.3779 -0.4202
 8440TIP3   OH225262   3.838   6.535   3.202  0.3529 -0.0770  0.4167
 8440TIP3    H125263   3.779   6.528   3.128  0.3819 -0.8302  0.4511
 8440TIP3    H225264   3.921   6.564   3.164  0.3968 -0.5588  0.1363
 8441TIP3   OH225265   2.114   6.666   4.549 -0.1593  0.0303  0.0434
 8441TIP3    H125266   2.110   6.727   4.623 -1.3059  1.0231 -0.7786
 8441TIP3    H225267   2.069   6.588   4.580  0.0201  0.1540  0.6371
 8442TIP3   OH225268   5.095   4.717   0.493 -0.3368 -0.2695  0.3524
 8442TIP3    H125269   5.008   4.744   0.523 -0.6559 -1.8249  0.9400
 8442TIP3    H225270   5.121   4.647   0.553 -0.2013 -2.2451 -1.8551
 8443TIP3   OH225271   1.341   0.296   3.688  0.2350  0.5394 -0.6378
 8443TIP3    H125272   1.276   0.320   3.622 -0.1507 -0.7242 -0.7471
 8443TIP3    H225273   1.301   0.222   3.734  1.2289  0.3193 -0.1216
 8444TIP3   OH225274   3.637   1.725   5.374  0.0468 -0.3359 -0.0266
 8444TIP3    H125275   3.569   1.785   5.404  0.3820  0.7972 -1.3803
 8444TIP3    H225276   3.699   1.720   5.446  0.2640  1.3892 -0.0464
 8445TIP3   OH225277   7.323   3.059   2.400 -0.3864 -0.1514  0.2245
 8445TIP3    H125278   7.368   3.075   2.483 -0.6961  1.6367  0.0823
 8445TIP3    H225279   7.231   3.078   2.417 -0.8183 -1.8042 -0.0228
 8446TIP3   OH225280   0.303   7.550   0.902  0.1636  0.3830  0.3808
 8446TIP3    H125281   0.237   7.495   0.945  1.1555 -0.1177  1.3025
 8446TIP3    H225282   0.365   7.572   0.972  1.5934 -0.1052 -0.6878
 8447TIP3   OH225283   1.852   4.779   4.594  0.0386  0.0982  0.6939
 8447TIP3    H125284   1.792   4.716   4.634 -0.2324  0.6485  1.1782
 8447TIP3    H225285   1.939   4.752   4.623 -0.0943  0.0476  1.0467
 8448TIP3   OH225286   1.193   6.948   6.176  0.0815  0.3518  0.1244
 8448TIP3    H125287   1.158   6.933   6.088  0.3959  1.0528 -0.1261
 8448TIP3    H225288   1.193   6.862   6.217  0.4443 -0.0799 -0.7566
 8449TIP3   OH225289   4.555   5.506   4.032  0.4226 -0.1552 -0.3266
 8449TIP3    H125290   4.522   5.487   3.945 -1.6176  0.4550  0.2516
 8449TIP3    H225291   4.631   5.563   4.018  1.6766 -2.0889 -1.7476
 8450TIP3   OH225292   0.310   1.349   1.761 -0.1104  0.0650  0.5109
 8450TIP3    H125293   0.383   1.288   1.755 -1.2150 -1.5945  2.7020
 8450TIP3    H225294   0.342   1.420   1.817 -0.3734 -1.0763  2.1740
 8451TIP3   OH225295   8.149   1.563   2.121 -0.5308  0.6636  0.5984
 8451TIP3    H125296   8.206   1.640   2.124  0.4578  0.0256 -0.5572
 8451TIP3    H225297   8.061   1.598   2.136  0.1169  1.7088  2.2231
 8452TIP3   OH225298   4.904   7.350   2.185 -0.0715 -0.0306  0.4364
 8452TIP3    H125299   4.824   7.352   2.132 -0.0706 -0.3319  0.4221
 8452TIP3    H225300   4.901   7.431   2.235 -1.3566 -0.8840  1.8497
 8453TIP3   OH225301   2.982   5.764   1.988 -0.1521 -0.1628 -0.2379
 8453TIP3    H125302   2.958   5.688   2.040 -1.7696 -0.2217 -1.0064
 8453TIP3    H225303   3.067   5.792   2.024 -0.2548 -1.3905  1.0534
 8454TIP3   OH225304   4.515   3.077   1.322  0.0015  0.1656  0.1768
 8454TIP3    H125305   4.460   3.114   1.391 -0.7378  0.7442 -0.7059
 8454TIP3    H225306   4.453   3.051   1.253  0.8191  0.7611 -0.8037
 8455TIP3   OH225307   1.845   3.480   2.883  0.0826  0.0707  0.0911
 8455TIP3    H125308   1.916   3.421   2.908  1.1583  1.2993  0.0461
 8455TIP3    H225309   1.886   3.566   2.878 -0.3056  0.2572 -4.3742
 8456TIP3   OH225310   3.554   2.413   2.265 -0.6240 -0.1511 -0.2095
 8456TIP3    H125311   3.574   2.330   2.222  2.5528 -0.1130  0.9280
 8456TIP3    H225312   3.593   2.479   2.208 -1.3120  0.3917 -0.0617
 8457TIP3   OH225313   6.275   1.514   4.344  0.2604 -0.0763  0.5377
 8457TIP3    H125314   6.239   1.507   4.256  0.8532  0.1124  0.2753
 8457TIP3    H225315   6.236   1.593   4.381 -2.6789 -1.9328  1.7320
 8458TIP3   OH225316   7.688   0.346   3.849 -0.1565 -0.0761  0.2925
 8458TIP3    H125317   7.694   0.434   3.811  1.2979 -0.4490 -0.4090
 8458TIP3    H225318   7.703   0.287   3.775 -1.1969 -0.9371  0.7391
 8459TIP3   OH225319   1.143   5.864   2.061 -0.2757 -0.4724 -0.1255
 8459TIP3    H125320   1.211   5.805   2.093 -1.5382 -1.5754  0.6631
 8459TIP3    H225321   1.141   5.936   2.124  0.6668 -0.0150 -0.5956
 8460TIP3   OH225322   4.346   2.325   4.976  0.1649  0.6108  0.1823
 8460TIP3    H125323   4.438   2.308   4.994 -0.1920 -1.3194  0.4665
 8460TIP3    H225324   4.326   2.407   5.021  1.9391  1.5357 -0.6314
 8461TIP3   OH225325   3.732   4.441   5.383 -0.4539 -0.0121  0.2988
 8461TIP3    H125326   3.759   4.530   5.402 -0.7978  0.1674 -0.0527
 8461TIP3    H225327   3.727   4.398   5.469 -0.0957  0.2490  0.4495
 8462TIP3   OH225328   6.592   5.017   0.191  0.0169 -0.2080 -0.4566
 8462TIP3    H125329   6.546   4.941   0.226  1.6497 -0.6040  0.9400
 8462TIP3    H225330   6.591   5.004   0.097  0.1872 -1.9106 -0.2547
 8463TIP3   OH225331   6.325   3.636   6.004  0.0007 -0.0118  0.1675
 8463TIP3    H125332   6.309   3.667   5.914 -0.5058  2.8841  1.1263
 8463TIP3    H225333   6.330   3.541   5.996 -1.5566  0.0131 -2.7022
 8464TIP3   OH225334   0.106   2.505   2.537  0.7116 -0.1699 -0.0764
 8464TIP3    H125335   0.109   2.424   2.486  0.4162 -0.9534  1.0953
 8464TIP3    H225336   0.188   2.506   2.586  0.4621 -0.0653  0.3466
 8465TIP3   OH225337   3.821   2.287   5.833  0.1466 -0.6693  0.4969
 8465TIP3    H125338   3.777   2.204   5.811 -1.3382  0.1244  0.3949
 8465TIP3    H225339   3.855   2.273   5.921 -0.9684 -1.0474  0.8806
 8466TIP3   OH225340   1.342   6.649   5.053  0.0903  0.7714 -0.3651
 8466TIP3    H125341   1.379   6.715   4.995 -0.5695  0.8715 -0.6876
 8466TIP3    H225342   1.254   6.634   5.018  0.1041 -0.0118 -0.0798
 8467TIP3   OH225343   7.782   3.127   2.044  0.0231  0.5093 -0.2709
 8467TIP3    H125344   7.730   3.054   2.077 -1.6174  1.7628  0.0124
 8467TIP3    H225345   7.719   3.187   2.005  1.2080  2.2412  0.3558
 8468TIP3   OH225346   3.898   0.223   0.558  0.2909  0.1959  0.0431
 8468TIP3    H125347   3.870   0.292   0.498  0.6555 -0.0524 -0.4149
 8468TIP3    H225348   3.952   0.165   0.505  1.3724  0.4542  0.8258
 8469TIP3   OH225349   6.797   4.819   3.465 -0.2632 -0.1102 -0.3651
 8469TIP3    H125350   6.754   4.905   3.462 -2.4315 -1.0947  0.5903
 8469TIP3    H225351   6.730   4.760   3.498  2.1648 -1.5929  2.2999
 8470TIP3   OH225352   4.795   5.372   1.610 -0.2981 -0.2438 -0.0230
 8470TIP3    H125353   4.860   5.322   1.560 -0.3315 -1.7220  1.3156
 8470TIP3    H225354   4.800   5.335   1.698  0.1397  2.6296  1.2576
 8471TIP3   OH225355   7.054   4.743   0.454 -0.5401  0.5210  0.3528
 8471TIP3    H125356   7.044   4.767   0.546 -0.0138  0.9178  0.3077
 8471TIP3    H225357   7.145   4.761   0.434 -0.2098 -1.1350  0.1944
 8472TIP3   OH225358   2.198   6.086   5.522 -0.0372 -0.1329 -0.1022
 8472TIP3    H125359   2.188   6.053   5.611  1.1446  1.0533  0.4972
 8472TIP3    H225360   2.182   6.180   5.529  0.8597  0.1052 -0.9896
 8473TIP3   OH225361   3.809   0.720   3.731  0.2449 -0.4130 -0.5892
 8473TIP3    H125362   3.893   0.764   3.715  0.7202 -0.7720  0.7525
 8473TIP3    H225363   3.744   0.783   3.702  0.9700 -0.1719 -1.7650
 8474TIP3   OH225364   0.963   1.282   2.328 -0.1365 -0.1747 -0.0069
 8474TIP3    H125365   0.928   1.371   2.322  1.6443  0.5221 -1.0030
 8474TIP3    H225366   0.886   1.226   2.336 -1.2797  1.4902  1.4148
 8475TIP3   OH225367   0.054   6.733   3.748  0.0598 -0.2960 -0.7416
 8475TIP3    H125368   0.084   6.720   3.658  0.8621 -0.2593 -0.4877
 8475TIP3    H225369   0.080   6.822   3.770  0.0093 -0.3584 -0.4185
 8476TIP3   OH225370   3.266   4.859   6.792  0.3691 -0.4011  0.2179
 8476TIP3    H125371   3.261   4.911   6.711  0.7447  1.3955  1.2988
 8476TIP3    H225372   3.350   4.883   6.831 -1.2946  1.6270  2.9313
 8477TIP3   OH225373   3.386   0.853   3.602 -0.2085  0.3679 -0.9738
 8477TIP3    H125374   3.429   0.782   3.650  0.8771  2.3017  1.0973
 8477TIP3    H225375   3.357   0.914   3.670 -1.8209  1.5731 -2.6286
 8478TIP3   OH225376   1.673   6.383   6.423 -0.1098  0.1428  0.0345
 8478TIP3    H125377   1.676   6.346   6.511 -0.8389 -0.0817 -0.0286
 8478TIP3    H225378   1.649   6.310   6.366  2.1042 -0.1440 -0.6244
 8479TIP3   OH225379   0.854   7.294   1.636  0.1754 -0.5453 -0.2868
 8479TIP3    H125380   0.785   7.272   1.573 -0.3281 -0.4858  0.2367
 8479TIP3    H225381   0.935   7.269   1.592 -0.1645 -0.4530 -0.9828
 8480TIP3   OH225382   6.913   7.378   2.074  0.3898  0.0388 -0.4594
 8480TIP3    H125383   6.837   7.432   2.094 -0.1442 -0.8230 -0.1487
 8480TIP3    H225384   6.915   7.374   1.978 -1.6356 -2.2328 -0.4834
 8481TIP3   OH225385   4.657   6.008   1.277 -0.4009 -0.0948 -0.0728
 8481TIP3    H125386   4.724   6.043   1.218 -0.1138 -1.1268 -0.3948
 8481TIP3    H225387   4.575   6.018   1.229  0.1192 -3.4713 -2.0013
 8482TIP3   OH225388   5.624   3.137   1.136  0.1410 -0.0581 -0.1405
 8482TIP3    H125389   5.666   3.133   1.222  0.5421 -0.5444 -0.3524
 8482TIP3    H225390   5.599   3.046   1.117  1.0233 -0.1405 -0.9985
 8483TIP3   OH225391   5.424   7.326   0.092 -0.2496  0.2505 -0.0542
 8483TIP3    H125392   5.410   7.290   0.005  0.7250 -0.5899  0.1271
 8483TIP3    H225393   5.361   7.279   0.147 -1.4866  1.3930 -0.4117
 8484TIP3   OH225394   3.619   2.844   4.147 -0.4796 -0.5725  0.0127
 8484TIP3    H125395   3.556   2.786   4.105 -1.9562  0.1472  1.1784
 8484TIP3    H225396   3.694   2.845   4.087 -2.3823  0.2221 -2.5380
 8485TIP3   OH225397   4.168   7.132   5.805 -0.2101 -0.4115 -0.5550
 8485TIP3    H125398   4.234   7.085   5.754  1.6882 -0.0326  1.4201
 8485TIP3    H225399   4.217   7.174   5.875 -2.3607  1.3084  0.0397
 8486TIP3   OH225400   3.795   3.123   2.319  0.0996  0.2385 -0.0412
 8486TIP3    H125401   3.820   3.138   2.228  1.4868  1.2649  0.4826
 8486TIP3    H225402   3.706   3.157   2.325 -0.6687 -1.3996 -1.3979
 8487TIP3   OH225403   2.727   5.859   4.896 -0.2703  0.2116  0.3615
 8487TIP3    H125404   2.696   5.819   4.814  0.3836 -0.3859  0.3994
 8487TIP3    H225405   2.818   5.881   4.878 -0.7844  2.3663  0.0961
 8488TIP3   OH225406   4.482   7.139   3.315  0.0512 -0.0464 -0.4354
 8488TIP3    H125407   4.452   7.151   3.405 -1.1553  0.5147 -0.8806
 8488TIP3    H225408   4.577   7.129   3.322 -0.0780 -0.5757  0.9376
 8489TIP3   OH225409   2.000   6.511   2.054  0.0568  0.1030  0.3544
 8489TIP3    H125410   2.079   6.525   2.106  0.3777 -1.0671  0.2108
 8489TIP3    H225411   1.929   6.545   2.108  0.7028  1.7536  0.2184
 8490TIP3   OH225412   2.451   3.994   5.798 -0.4228 -0.2767 -0.3039
 8490TIP3    H125413   2.514   4.040   5.743  1.1746 -1.2535  0.6469
 8490TIP3    H225414   2.416   3.925   5.742 -0.7103  0.2974 -0.8471
 8491TIP3   OH225415   7.871   6.968   5.188  0.0530 -0.0694  0.3178
 8491TIP3    H125416   7.805   7.037   5.178  0.1777 -0.0850 -0.7974
 8491TIP3    H225417   7.879   6.955   5.282 -0.4247  1.0134  0.5222
 8492TIP3   OH225418   6.086   6.639   6.134  0.5142 -0.1492  0.5421
 8492TIP3    H125419   6.026   6.585   6.186  0.2465 -0.3407  0.0402
 8492TIP3    H225420   6.156   6.579   6.110 -1.0403 -1.0489 -2.2079
 8493TIP3   OH225421   5.201   2.088   0.191 -0.0491  0.1632 -0.2382
 8493TIP3    H125422   5.124   2.030   0.194  0.2326 -0.1714  1.4196
 8493TIP3    H225423   5.164   2.176   0.181 -0.5760 -0.1149 -0.8246
 8494TIP3   OH225424   8.272   2.979   0.470  0.4729 -0.4202 -0.5105
 8494TIP3    H125425   8.292   3.016   0.384  1.6303 -0.1488 -0.1417
 8494TIP3    H225426   8.223   2.899   0.451 -1.1716  0.7315 -1.3560
 8495TIP3   OH225427   4.592   3.286   0.212  0.1456 -0.3226  0.4702
 8495TIP3    H125428   4.500   3.309   0.206  0.0098 -1.0443 -0.3227
 8495TIP3    H225429   4.637   3.355   0.163 -0.1663 -1.0715 -0.9246
 8496TIP3   OH225430   6.303   6.015   6.585 -0.7917  0.1218  0.1398
 8496TIP3    H125431   6.396   6.035   6.580 -1.0150  1.1340 -0.1982
 8496TIP3    H225432   6.274   6.010   6.494 -0.9862 -0.6043  0.2390
 8497TIP3   OH225433   3.717   6.069   3.724 -0.3446 -0.0909 -0.2803
 8497TIP3    H125434   3.673   6.009   3.784 -0.3352  1.1133  0.9788
 8497TIP3    H225435   3.705   6.029   3.638 -1.4734 -1.2177  0.3578
 8498TIP3   OH225436   3.758   0.125   6.238 -0.1951 -0.1480  0.1383
 8498TIP3    H125437   3.674   0.101   6.198 -0.8740  0.9663  0.8448
 8498TIP3    H225438   3.797   0.041   6.264 -0.9207 -0.7061 -0.5145
 8499TIP3   OH225439   6.852   1.159   4.881  0.1136  0.4524 -0.1970
 8499TIP3    H125440   6.817   1.220   4.816 -1.1965 -0.0273  0.0298
 8499TIP3    H225441   6.866   1.214   4.959  1.1712  0.9143 -0.6954
 8500TIP3   OH225442   4.057   2.303   2.087 -0.0337  0.5005 -0.5452
 8500TIP3    H125443   4.141   2.257   2.088 -1.7867 -3.0914  1.6547
 8500TIP3    H225444   4.068   2.372   2.153  1.3285  0.4113 -0.6427
 8501TIP3   OH225445   4.004   4.306   1.272 -0.2915  0.3124 -0.1319
 8501TIP3    H125446   3.923   4.269   1.307 -0.8999  0.3727 -1.4206
 8501TIP3    H225447   4.026   4.377   1.332 -1.2626  0.3635  0.1755
 8502TIP3   OH225448   5.862   5.936   6.202  0.2336  0.2464 -0.3061
 8502TIP3    H125449   5.951   5.963   6.224  0.7247 -0.5477 -1.2572
 8502TIP3    H225450   5.807   5.978   6.269  1.3988  0.0479  0.8209
 8503TIP3   OH225451   7.247   2.418   1.302  0.5306  0.1325  0.4571
 8503TIP3    H125452   7.331   2.462   1.290  0.5931 -0.1839 -0.3450
 8503TIP3    H225453   7.185   2.469   1.250  0.0456  0.8496  1.7061
 8504TIP3   OH225454   0.111   3.842   0.923  0.5058 -0.2006 -0.8208
 8504TIP3    H125455   0.072   3.878   1.003  1.1089  1.7125 -1.3504
 8504TIP3    H225456   0.190   3.895   0.909  1.5704 -1.9016 -1.5342
 8505TIP3   OH225457   0.296   4.409   5.362  0.4600  0.0859 -0.3500
 8505TIP3    H125458   0.352   4.433   5.436 -0.5846  0.8429  0.2159
 8505TIP3    H225459   0.281   4.492   5.316  0.6603 -0.2892 -1.0994
 8506TIP3   OH225460   1.823   1.421   2.065 -0.1474 -0.2543  0.2381
 8506TIP3    H125461   1.769   1.416   2.144 -1.1115  0.6293 -0.3482
 8506TIP3    H225462   1.835   1.514   2.049 -0.5558 -0.3991 -1.0414
 8507TIP3   OH225463   5.011   6.202   2.408  0.1182  0.8656 -0.1359
 8507TIP3    H125464   5.050   6.289   2.422  0.7860  0.4307  0.8008
 8507TIP3    H225465   4.934   6.219   2.354  0.3314  2.0234 -0.1075
 8508TIP3   OH225466   2.229   5.303   2.208 -0.1485 -0.1247 -0.2483
 8508TIP3    H125467   2.197   5.241   2.274 -1.9069 -1.0769 -1.9112
 8508TIP3    H225468   2.202   5.265   2.125 -0.0155  2.1889 -1.4038
 8509TIP3   OH225469   6.791   2.108   0.919 -0.0977 -0.5468 -0.0523
 8509TIP3    H125470   6.781   2.041   0.986  2.2312 -1.1593 -0.2182
 8509TIP3    H225471   6.836   2.180   0.964 -0.7992  0.1013 -0.3583
 8510TIP3   OH225472   6.112   6.303   0.818  0.5523  0.0946 -0.5335
 8510TIP3    H125473   6.022   6.274   0.805  0.7800 -0.5352 -0.7489
 8510TIP3    H225474   6.123   6.307   0.913  0.6094 -0.8646 -0.4844
 8511TIP3   OH225475   2.173   7.734   3.492 -0.0440  0.0080 -0.0696
 8511TIP3    H125476   2.242   7.800   3.485 -0.0045 -0.1647 -1.7152
 8511TIP3    H225477   2.097   7.782   3.525  0.9456  0.0965  2.2889
 8512TIP3   OH225478   2.012   0.713   2.414 -0.0154  0.0191  0.9071
 8512TIP3    H125479   1.978   0.801   2.403 -1.2447 -0.4445  0.8730
 8512TIP3    H225480   1.942   0.665   2.458 -0.3455 -1.5574 -1.1949
 8513TIP3   OH225481   3.239   0.507   2.465 -0.4169 -0.1223  0.0906
 8513TIP3    H125482   3.159   0.522   2.515  0.0783 -0.9752  1.1773
 8513TIP3    H225483   3.278   0.429   2.505 -0.1141 -0.9900 -1.7915
 8514TIP3   OH225484   0.257   0.816   1.603 -0.0738  0.4725  0.3342
 8514TIP3    H125485   0.173   0.815   1.649 -0.8865 -1.2414 -1.0547
 8514TIP3    H225486   0.246   0.882   1.536 -1.0111 -0.9006 -0.9351
 8515TIP3   OH225487   0.321   0.564   3.530 -0.1542  0.0185  0.7467
 8515TIP3    H125488   0.367   0.636   3.486  0.3661 -1.7662 -1.9188
 8515TIP3    H225489   0.229   0.579   3.510 -0.2354  0.8553  1.7044
 8516TIP3   OH225490   6.890   6.274   0.301 -1.0111  0.3888 -0.5119
 8516TIP3    H125491   6.926   6.322   0.375 -0.9534  0.5311 -0.6310
 8516TIP3    H225492   6.822   6.218   0.339 -0.4535 -0.1084 -0.2480
 8517TIP3   OH225493   3.610   6.482   4.676  0.2877 -0.0035  0.2565
 8517TIP3    H125494   3.644   6.486   4.765  0.5283  0.5842  0.1433
 8517TIP3    H225495   3.624   6.570   4.641  0.3678 -0.2780 -0.4206
 8518TIP3   OH225496   3.754   4.622   4.744 -0.5432 -0.0830 -0.0386
 8518TIP3    H125497   3.831   4.636   4.689 -0.0085 -0.2116  0.6582
 8518TIP3    H225498   3.693   4.691   4.717 -0.3300 -0.2014 -0.8462
 8519TIP3   OH225499   4.590   5.494   0.150  0.3116  0.6862 -0.4769
 8519TIP3    H125500   4.662   5.463   0.095 -1.3849 -3.8575 -0.5465
 8519TIP3    H225501   4.522   5.520   0.088  0.5173  1.3257 -0.4397
 8520TIP3   OH225502   5.860   2.950   4.124 -0.1067  0.1883  0.2337
 8520TIP3    H125503   5.938   2.980   4.172 -0.5150 -0.7828  1.5678
 8520TIP3    H225504   5.828   2.875   4.175 -1.2609 -0.1448 -0.9289
 8521TIP3   OH225505   6.712   7.115   6.525 -0.2738  0.1990 -0.0683
 8521TIP3    H125506   6.722   7.184   6.460 -1.0883  0.9730  0.6144
 8521TIP3    H225507   6.618   7.101   6.532 -0.1963  0.0889  0.9064
 8522TIP3   OH225508   0.684   0.840   5.031  0.2784 -0.1239  0.1519
 8522TIP3    H125509   0.764   0.894   5.031 -0.0817  0.4541  1.5709
 8522TIP3    H225510   0.634   0.871   5.106 -2.3916  1.1075 -1.9658
 8523TIP3   OH225511   6.577   0.745   5.640  0.5568  0.2989 -0.5396
 8523TIP3    H125512   6.493   0.702   5.622  0.3490  0.1788  0.6705
 8523TIP3    H225513   6.561   0.837   5.616 -0.1944  0.4461  0.4590
 8524TIP3   OH225514   1.948   4.887   2.194  0.1704  0.5126  0.4276
 8524TIP3    H125515   1.997   4.966   2.219  1.5099  0.6255 -2.2278
 8524TIP3    H225516   1.881   4.918   2.133  0.3713 -0.3106 -0.2311
 8525TIP3   OH225517   1.093   0.831   2.730 -0.4824 -0.3930 -0.2589
 8525TIP3    H125518   1.081   0.815   2.637  0.4147 -1.4966 -0.2059
 8525TIP3    H225519   1.085   0.926   2.740 -1.8913 -0.3805 -1.2468
 8526TIP3   OH225520   6.166   6.754   5.751 -0.2502  0.4443 -0.4809
 8526TIP3    H125521   6.198   6.674   5.791  0.9494 -0.0720 -2.3354
 8526TIP3    H225522   6.232   6.820   5.773 -0.2815  0.4804 -0.4944
 8527TIP3   OH225523   5.969   3.238   2.546 -0.4247  0.4608  0.7475
 8527TIP3    H125524   5.873   3.233   2.549 -0.5615 -0.5046 -2.0496
 8527TIP3    H225525   5.987   3.318   2.496  0.1830  0.0763  0.3434
 8528TIP3   OH225526   5.681   5.812   6.526 -0.3062 -0.1173 -0.8792
 8528TIP3    H125527   5.615   5.782   6.465 -0.2772  0.9000 -1.4389
 8528TIP3    H225528   5.637   5.813   6.611 -0.6761 -0.4957 -1.0648
 8529TIP3   OH225529   1.116   4.237   4.732 -0.1245 -0.0821 -0.2535
 8529TIP3    H125530   1.030   4.196   4.729 -0.0911 -0.3383  1.4310
 8529TIP3    H225531   1.178   4.165   4.719 -0.1495  0.1366 -1.6970
 8530TIP3   OH225532   2.650   7.207   1.515  0.0501 -0.1307 -0.5348
 8530TIP3    H125533   2.643   7.111   1.511  2.9767 -0.6107  2.1809
 8530TIP3    H225534   2.707   7.231   1.442 -0.2089 -0.5241 -0.8682
 8531TIP3   OH225535   3.270   5.146   5.731 -0.4730  0.8075  0.3350
 8531TIP3    H125536   3.230   5.072   5.778  0.3919 -1.0949 -1.7225
 8531TIP3    H225537   3.202   5.213   5.729 -1.7141 -0.3581  1.2988
 8532TIP3   OH225538   0.140   1.984   6.749  0.0492 -0.2115 -0.4049
 8532TIP3    H125539   0.080   1.926   6.702 -1.7465  0.6654  0.7251
 8532TIP3    H225540   0.227   1.957   6.719 -0.9115 -0.7904 -2.9353
 8533TIP3   OH225541   1.009   4.163   1.115 -0.5905  0.1189 -0.6180
 8533TIP3    H125542   0.981   4.083   1.071  1.4779 -1.1508  0.2291
 8533TIP3    H225543   1.022   4.137   1.207 -1.4931  1.8534  0.0449
 8534TIP3   OH225544   5.860   3.692   2.211 -0.4781  0.4163  0.1958
 8534TIP3    H125545   5.949   3.723   2.193 -0.1902  0.4232  1.5329
 8534TIP3    H225546   5.806   3.770   2.209 -0.2228  0.6135  0.7005
 8535TIP3   OH225547   7.210   6.440   5.360  0.2890 -0.3747 -0.0526
 8535TIP3    H125548   7.285   6.449   5.301 -0.0632  1.1824 -0.2991
 8535TIP3    H225549   7.141   6.404   5.304  0.7742 -1.6740  0.1405
 8536TIP3   OH225550   3.480   4.540   1.896  0.8050  0.3420  0.2379
 8536TIP3    H125551   3.412   4.474   1.879  0.1713  0.5737  1.7772
 8536TIP3    H225552   3.449   4.618   1.851  1.2647 -0.2030 -1.0907
 8537TIP3   OH225553   5.490   5.431   1.101  0.0173  0.5017  0.0027
 8537TIP3    H125554   5.533   5.367   1.158 -2.7303 -0.6687  0.9244
 8537TIP3    H225555   5.509   5.401   1.012  2.6676  1.1984  0.2467
 8538TIP3   OH225556   4.757   3.487   4.182  0.0069  0.0974 -0.0607
 8538TIP3    H125557   4.765   3.401   4.224 -1.8978 -0.1308 -0.0485
 8538TIP3    H225558   4.832   3.492   4.123  1.1523 -0.7917  1.2522
 8539TIP3   OH225559   5.159   7.617   5.897  0.4896 -0.0927  0.1916
 8539TIP3    H125560   5.167   7.603   5.803 -1.9230  0.3609 -0.1579
 8539TIP3    H225561   5.197   7.539   5.937  3.8569  0.7854 -0.9899
 8540TIP3   OH225562   6.316   0.699   5.586  0.0724 -0.0339  0.7638
 8540TIP3    H125563   6.289   0.787   5.558  0.6208  0.5956  2.0981
 8540TIP3    H225564   6.258   0.640   5.539 -1.3211  1.1163  0.9575
 8541TIP3   OH225565   2.016   6.487   0.074 -0.7532 -0.3847  0.3045
 8541TIP3    H125566   2.087   6.496   0.137 -0.8230 -0.4203  0.3890
 8541TIP3    H225567   2.028   6.559   0.013 -2.0259  1.0530  1.6732
 8542TIP3   OH225568   6.368   4.079   1.246 -0.1971  0.5765 -0.0049
 8542TIP3    H125569   6.298   4.027   1.207  1.2604  0.0017 -2.0254
 8542TIP3    H225570   6.420   4.109   1.172  3.8635 -2.1208  1.3897
 8543TIP3   OH225571   2.138   1.981   4.637  0.5568  0.1244  0.1080
 8543TIP3    H125572   2.059   2.029   4.661  0.9345  0.6205  0.3804
 8543TIP3    H225573   2.184   1.967   4.719  1.2976  0.8364 -0.1609
 8544TIP3   OH225574   1.277   2.086   5.772 -0.3741 -0.1032 -0.0396
 8544TIP3    H125575   1.251   2.111   5.861 -0.4474  0.4172 -0.2062
 8544TIP3    H225576   1.368   2.058   5.781 -1.2773 -3.1722  0.7905
 8545TIP3   OH225577   1.743   0.352   3.187 -0.0878 -0.6242  0.5800
 8545TIP3    H125578   1.838   0.342   3.190  0.0391  0.0826 -0.6909
 8545TIP3    H225579   1.710   0.276   3.235  1.1096 -0.7377  1.2762
 8546TIP3   OH225580   2.962   3.680   5.310  0.0363  0.1515  0.2342
 8546TIP3    H125581   2.923   3.731   5.240  0.7004  1.1644  0.5822
 8546TIP3    H225582   2.994   3.600   5.267  0.7288  0.9027 -0.6910
 8547TIP3   OH225583   5.235   2.097   5.840 -0.0498 -0.1230 -0.0683
 8547TIP3    H125584   5.263   2.157   5.909 -1.4070 -0.0975  0.4956
 8547TIP3    H225585   5.219   2.015   5.886 -0.7429 -0.1699 -0.3878
 8548TIP3   OH225586   2.758   1.921   1.139 -0.3406  0.1596  0.2990
 8548TIP3    H125587   2.809   1.841   1.141 -0.6700 -0.0400  0.9787
 8548TIP3    H225588   2.732   1.936   1.230  0.0453  1.2487  0.2448
 8549TIP3   OH225589   4.726   2.553   5.430 -0.2667 -0.4419  0.1267
 8549TIP3    H125590   4.797   2.527   5.372  0.3398 -0.4680  0.8613
 8549TIP3    H225591   4.771   2.586   5.508 -1.0699 -2.4365  1.4827
 8550TIP3   OH225592   7.177   7.776   3.091 -0.8364 -0.5624 -0.4177
 8550TIP3    H125593   7.245   7.796   3.156 -2.4112 -0.8639  1.4174
 8550TIP3    H225594   7.099   7.758   3.143 -1.9821 -1.6463 -2.3924
 8551TIP3   OH225595   1.885   2.923   1.701  0.4913  0.6344 -0.1154
 8551TIP3    H125596   1.875   2.972   1.619  0.6383  0.8922  0.0197
 8551TIP3    H225597   1.933   2.982   1.759 -2.5157  1.8846  1.3565
 8552TIP3   OH225598   8.089   7.116   2.169  0.1855 -0.4802  0.3824
 8552TIP3    H125599   8.038   7.171   2.227 -1.3275 -0.2766 -1.0753
 8552TIP3    H225600   8.167   7.168   2.147 -1.1673  1.1126 -0.8975
 8553TIP3   OH225601   0.893   5.268   1.371  0.3364 -0.5765  0.0120
 8553TIP3    H125602   0.814   5.217   1.354 -0.8618  0.6838  1.5397
 8553TIP3    H225603   0.962   5.222   1.322 -1.3400 -1.6172 -1.5002
 8554TIP3   OH225604   4.934   5.395   2.424 -0.2521  0.6982 -0.4456
 8554TIP3    H125605   4.994   5.441   2.365  0.4997  0.2156 -0.0742
 8554TIP3    H225606   4.936   5.447   2.505  2.2793 -1.0508  0.7599
 8555TIP3   OH225607   6.666   3.524   0.042 -0.6982  0.5614  0.4595
 8555TIP3    H125608   6.584   3.475   0.056  0.1523 -1.0182  0.1887
 8555TIP3    H225609   6.707   3.527   0.128 -0.1666 -0.3334  0.2501
 8556TIP3   OH225610   5.921   0.697   5.194  0.1032  0.2020 -0.5062
 8556TIP3    H125611   5.847   0.650   5.156 -0.2046 -1.1614  1.5778
 8556TIP3    H225612   5.992   0.633   5.194  0.0600  0.1128  1.1819
 8557TIP3   OH225613   2.829   3.281   2.371 -0.0200  0.0681 -0.2841
 8557TIP3    H125614   2.899   3.320   2.318 -0.7603  0.2160 -1.2007
 8557TIP3    H225615   2.764   3.351   2.379  0.8108  0.6370  2.3483
 8558TIP3   OH225616   0.120   2.507   4.941 -0.1773 -0.0425  0.7537
 8558TIP3    H125617   0.214   2.488   4.946 -0.0716  0.3621  0.3988
 8558TIP3    H225618   0.107   2.537   4.851 -0.7739 -0.7294  0.6002
 8559TIP3   OH225619   8.031   1.852   2.347 -0.2301  0.0384 -0.4525
 8559TIP3    H125620   8.004   1.863   2.256  0.9379 -0.4989 -0.8899
 8559TIP3    H225621   8.107   1.794   2.342 -0.0523  0.1343  0.8555
 8560TIP3   OH225622   3.033   1.948   0.726 -0.3153 -0.5143 -0.2250
 8560TIP3    H125623   2.976   1.879   0.760 -0.3922  0.0184  0.7673
 8560TIP3    H225624   3.121   1.913   0.734 -0.2632 -0.1504  1.2483
 8561TIP3   OH225625   1.287   7.164   1.410 -0.6999  0.3644  0.1161
 8561TIP3    H125626   1.311   7.128   1.324 -1.7977 -0.1817  0.0180
 8561TIP3    H225627   1.363   7.215   1.437 -0.5570  1.0240 -1.4408
 8562TIP3   OH225628   5.179   1.320   1.295 -0.1728 -0.0181  0.2694
 8562TIP3    H125629   5.124   1.309   1.218  2.6562 -0.6854 -1.8208
 8562TIP3    H225630   5.239   1.245   1.294 -0.2166 -0.2408  3.3594
 8563TIP3   OH225631   1.818   6.290   5.413 -0.3389  0.1585 -0.5682
 8563TIP3    H125632   1.747   6.332   5.462  0.3300  1.8506 -0.9761
 8563TIP3    H225633   1.885   6.272   5.479  0.3742  2.0253 -0.7160
 8564TIP3   OH225634   4.147   7.596   5.335  0.4306 -0.3158  0.1364
 8564TIP3    H125635   4.182   7.525   5.281  0.3588  0.7614 -1.4024
 8564TIP3    H225636   4.052   7.588   5.327  0.4233  0.0968 -0.2873
 8565TIP3   OH225637   2.918   4.728   1.074  0.5251  0.3453 -0.2973
 8565TIP3    H125638   2.910   4.645   1.121 -2.7205  0.0939 -1.0731
 8565TIP3    H225639   2.896   4.795   1.139  1.9774  0.5417  0.0207
 8566TIP3   OH225640   4.586   0.205   4.876  0.8223 -0.0809  0.2771
 8566TIP3    H125641   4.677   0.193   4.905  0.4241 -1.0462  1.2254
 8566TIP3    H225642   4.549   0.268   4.938  1.0295  0.8954 -0.5633
 8567TIP3   OH225643   4.555   7.772   1.296  0.2036 -0.5122 -0.2403
 8567TIP3    H125644   4.575   7.682   1.323 -0.1021  0.2479  3.0014
 8567TIP3    H225645   4.459   7.775   1.292  0.2390 -0.7140 -2.1376
 8568TIP3   OH225646   7.237   5.669   4.601 -0.1276  0.6146 -0.8160
 8568TIP3    H125647   7.204   5.590   4.559  0.5242 -0.4518  0.6369
 8568TIP3    H225648   7.212   5.740   4.541 -1.9361 -0.5190 -1.4710
 8569TIP3   OH225649   2.321   1.764   5.205  0.0131 -0.4274  0.0712
 8569TIP3    H125650   2.322   1.816   5.285 -0.8521  1.1969 -0.9291
 8569TIP3    H225651   2.239   1.716   5.209 -0.5047  0.4079 -0.2805
 8570TIP3   OH225652   4.188   3.259   3.005 -0.3074 -0.2820 -0.8258
 8570TIP3    H125653   4.201   3.308   3.086  1.0258  0.0401 -1.2088
 8570TIP3    H225654   4.177   3.326   2.937  0.9363 -0.4885 -1.2592
 8571TIP3   OH225655   5.060   5.812   1.507  0.0696 -0.3066  0.2539
 8571TIP3    H125656   5.049   5.727   1.464  1.9199 -1.8976  2.6699
 8571TIP3    H225657   4.980   5.861   1.484 -0.7360 -2.3820 -1.7777
 8572TIP3   OH225658   0.487   2.234   4.699  0.6229 -0.1091 -0.3535
 8572TIP3    H125659   0.405   2.191   4.722  1.0227 -0.8896 -0.3364
 8572TIP3    H225660   0.487   2.238   4.604 -0.1209  1.2948 -0.3175
 8573TIP3   OH225661   7.317   0.640   0.923  0.3129  0.3476  0.6093
 8573TIP3    H125662   7.352   0.723   0.890 -1.8413  0.8127 -0.6299
 8573TIP3    H225663   7.237   0.664   0.969  1.4566 -0.6975  3.3640
 8574TIP3   OH225664   1.960   4.186   6.381  0.1834  0.6718 -0.0609
 8574TIP3    H125665   1.979   4.156   6.470  3.7025  0.7623 -0.6391
 8574TIP3    H225666   1.996   4.117   6.325 -0.7887  1.2498 -1.4538
 8575TIP3   OH225667   6.204   3.349   2.337 -0.1934  0.1388 -0.3758
 8575TIP3    H125668   6.228   3.294   2.412  1.6669 -2.4108 -2.6073
 8575TIP3    H225669   6.182   3.286   2.268  1.7828  2.1260 -3.0331
 8576TIP3   OH225670   6.904   4.965   0.017 -0.0115  0.0599 -0.1027
 8576TIP3    H125671   6.808   4.960   0.009 -0.2185  0.5925  1.6119
 8576TIP3    H225672   6.933   4.874   0.020 -0.9208 -0.2557  3.3109
 8577TIP3   OH225673   6.471   0.007   2.323 -0.1937 -0.2891 -0.0850
 8577TIP3    H125674   6.464   0.085   2.268 -1.8410  0.9212  1.6828
 8577TIP3    H225675   6.522  -0.055   2.271  0.7714  1.7713 -1.7723
 8578TIP3   OH225676   5.008   4.282   0.438 -0.0962  0.2494 -0.4596
 8578TIP3    H125677   5.015   4.359   0.495 -1.0381  0.9683 -1.2913
 8578TIP3    H225678   4.929   4.297   0.386  0.5294 -0.5648 -1.6933
 8579TIP3   OH225679   3.336   0.761   1.882  0.8733  0.5447 -0.1455
 8579TIP3    H125680   3.350   0.847   1.921  1.0491  0.4533 -0.0031
 8579TIP3    H225681   3.269   0.775   1.815 -0.0433  0.5624  0.7342
 8580TIP3   OH225682   1.364   7.791   3.916 -0.4633  0.4276 -0.5079
 8580TIP3    H125683   1.450   7.794   3.873 -0.3189 -0.7497 -0.3506
 8580TIP3    H225684   1.366   7.863   3.979  0.8928 -0.2849  0.3215
 8581TIP3   OH225685   2.419   3.390   0.419  0.0830 -0.1188 -0.0389
 8581TIP3    H125686   2.465   3.328   0.475  2.1424  0.6009 -0.8411
 8581TIP3    H225687   2.431   3.474   0.462  0.6643  0.2642 -0.9322
 8582TIP3   OH225688   7.976   4.953   0.902 -0.0274  0.4484  0.1424
 8582TIP3    H125689   8.019   4.889   0.846  1.2198  0.1513  1.3925
 8582TIP3    H225690   7.889   4.916   0.917  0.3561 -0.5000  0.0935
 8583TIP3   OH225691   7.982   5.991   5.446 -0.5632 -0.0732  0.5210
 8583TIP3    H125692   8.001   5.937   5.370  0.8485  1.1068 -0.0097
 8583TIP3    H225693   7.951   5.929   5.512  0.6809 -1.4915 -0.1591
 8584TIP3   OH225694   2.235   5.066   0.121 -0.1914 -0.3955 -0.2638
 8584TIP3    H125695   2.192   5.040   0.039  1.3443  0.1734 -1.2941
 8584TIP3    H225696   2.251   5.160   0.110 -0.4285 -0.2049  0.9294
 8585TIP3   OH225697   5.310   4.939   0.716 -0.4079 -0.5556  0.4897
 8585TIP3    H125698   5.397   4.958   0.752 -0.5386 -1.1510  1.1389
 8585TIP3    H225699   5.261   5.021   0.726 -1.0738 -1.2247  3.5577
 8586TIP3   OH225700   5.491   3.546   5.124 -0.8226  0.2055  0.0438
 8586TIP3    H125701   5.423   3.602   5.162 -0.5049  0.5223  0.1505
 8586TIP3    H225702   5.520   3.490   5.196 -1.2001 -0.1638 -0.0836
 8587TIP3   OH225703   0.700   4.710   1.495  0.5247 -0.8968 -0.4553
 8587TIP3    H125704   0.683   4.635   1.552 -1.0955 -1.6049 -1.7810
 8587TIP3    H225705   0.623   4.766   1.505  2.0510  1.0792  1.1233
 8588TIP3   OH225706   4.039   4.994   3.627  0.1694  0.4052  0.2393
 8588TIP3    H125707   4.100   4.956   3.564 -0.8338 -1.3408  0.2780
 8588TIP3    H225708   3.952   4.973   3.594 -0.4099  1.1524  1.2054
 8589TIP3   OH225709   1.576   7.282   3.684  0.2911 -0.1886 -0.3855
 8589TIP3    H125710   1.567   7.334   3.603  3.3244  0.2749 -0.5526
 8589TIP3    H225711   1.539   7.197   3.662  0.0547  0.2705 -1.9078
 8590TIP3   OH225712   7.559   0.381   5.872 -0.2642 -0.0596 -0.0069
 8590TIP3    H125713   7.489   0.327   5.837 -1.5443  1.5247  0.0036
 8590TIP3    H225714   7.628   0.378   5.806 -1.2744  0.1726 -1.1027
 8591TIP3   OH225715   4.958   7.750   1.308  0.1424 -0.2253  0.4174
 8591TIP3    H125716   4.935   7.839   1.284  0.4909 -0.7936 -2.4938
 8591TIP3    H225717   5.034   7.729   1.253 -0.3635 -2.5273  0.4581
 8592TIP3   OH225718   3.248   0.548   1.103  0.1177  0.0373 -0.7435
 8592TIP3    H125719   3.273   0.462   1.137 -0.0796 -0.2786 -1.3838
 8592TIP3    H225720   3.155   0.539   1.082 -0.0176  0.5536 -0.3703
 8593TIP3   OH225721   5.138   2.485   6.061 -0.3560 -0.3235  0.3577
 8593TIP3    H125722   5.058   2.537   6.054 -0.6922 -0.7615  0.8752
 8593TIP3    H225723   5.170   2.503   6.150  0.2671  0.0565  0.0618
 8594TIP3   OH225724   1.650   5.703   5.524 -0.1719  0.3238 -0.5651
 8594TIP3    H125725   1.713   5.666   5.462 -0.1154 -1.1563  0.3199
 8594TIP3    H225726   1.680   5.793   5.538  1.5437 -0.2300 -0.4415
 8595TIP3   OH225727   3.827   2.964   4.292 -0.0968  0.3500  0.4685
 8595TIP3    H125728   3.804   3.034   4.353 -1.4130 -1.0349  1.6885
 8595TIP3    H225729   3.761   2.896   4.309  0.4691 -0.7376 -1.4135
 8596TIP3   OH225730   0.615   0.349   2.902  0.4228 -0.4405  0.4068
 8596TIP3    H125731   0.618   0.293   2.980 -1.4474 -0.3909  0.5510
 8596TIP3    H225732   0.523   0.351   2.877  1.0307 -1.1187 -2.3156
 8597TIP3   OH225733   8.183   4.454   6.571  0.2081 -0.7181  0.0831
 8597TIP3    H125734   8.238   4.533   6.569 -0.0628 -0.5434 -1.9369
 8597TIP3    H225735   8.112   4.476   6.632  0.2668  0.5099 -0.2642
 8598TIP3   OH225736   1.979   4.904   0.765  0.3241  0.2179  0.4775
 8598TIP3    H125737   1.946   4.917   0.854  0.0697  0.4579  0.3489
 8598TIP3    H225738   2.052   4.966   0.757 -0.5795  1.2679  0.0294
 8599TIP3   OH225739   4.519   4.368   6.183 -0.0816 -0.3341 -0.0508
 8599TIP3    H125740   4.467   4.372   6.103 -2.7332  0.0242  1.5650
 8599TIP3    H225741   4.583   4.438   6.174 -1.5946  0.9850 -1.0730
 8600TIP3   OH225742   4.490   0.682   1.585 -0.0311 -0.5335  0.1162
 8600TIP3    H125743   4.514   0.663   1.676 -2.9649 -2.1555  0.7102
 8600TIP3    H225744   4.449   0.768   1.588 -0.7028 -0.8539  0.5077
 8601TIP3   OH225745   3.080   2.412   6.019  0.1694  0.2573  0.2718
 8601TIP3    H125746   3.139   2.375   6.086  0.8104  0.4711 -0.1666
 8601TIP3    H225747   3.036   2.335   5.982 -0.3966  0.1571  1.1190
 8602TIP3   OH225748   1.153   1.096   4.867 -0.0654 -0.8160  0.2984
 8602TIP3    H125749   1.087   1.077   4.800  1.1623 -0.7524 -0.9583
 8602TIP3    H225750   1.152   1.019   4.924 -1.0120 -0.9328  0.1427
 8603TIP3   OH225751   2.550   3.817   2.963  0.6750 -0.3548  0.4283
 8603TIP3    H125752   2.482   3.796   2.898  0.8836  1.9640 -0.6324
 8603TIP3    H225753   2.572   3.732   3.003 -1.2301 -1.4887 -0.7717
 8604TIP3   OH225754   1.230   2.472   5.946  0.2942  0.6240  0.4933
 8604TIP3    H125755   1.258   2.563   5.939 -1.1313  1.0380 -0.0635
 8604TIP3    H225756   1.310   2.424   5.970  1.0638  2.0031  0.7656
 8605TIP3   OH225757   2.835   7.250   0.163  0.0669 -0.0009 -0.2476
 8605TIP3    H125758   2.907   7.187   0.158  0.4472  0.4856 -1.4522
 8605TIP3    H225759   2.844   7.292   0.248  0.2708 -1.0354  0.2449
 8606TIP3   OH225760   4.627   2.344   2.453 -0.3084  0.1218 -0.2410
 8606TIP3    H125761   4.648   2.377   2.540  0.4577  0.8446 -0.6919
 8606TIP3    H225762   4.655   2.253   2.454 -1.2901 -0.1962  0.6053
 8607TIP3   OH225763   7.835   1.989   3.799  0.2088 -0.2167 -0.3763
 8607TIP3    H125764   7.749   2.024   3.824  0.4963  1.2267 -1.2818
 8607TIP3    H225765   7.856   1.926   3.868 -1.0002  0.3470  0.5523
 8608TIP3   OH225766   6.925   5.288   2.767  0.2385 -0.1732  0.0349
 8608TIP3    H125767   6.892   5.198   2.772 -3.4462  1.0057 -0.2553
 8608TIP3    H225768   6.899   5.327   2.851  0.7001  0.9634 -0.3405
 8609TIP3   OH225769   1.441   2.606   2.795 -0.1811 -0.0557 -0.2495
 8609TIP3    H125770   1.373   2.658   2.752 -1.1641 -0.8831  0.2428
 8609TIP3    H225771   1.428   2.622   2.888 -0.0636 -0.6378 -0.1242
 8610TIP3   OH225772   5.287   4.069   4.303  0.3187 -0.1765  0.2662
 8610TIP3    H125773   5.372   4.036   4.272  0.2021 -3.0727  2.5504
 8610TIP3    H225774   5.308   4.118   4.382 -0.0503  0.0958  0.1982
 8611TIP3   OH225775   6.011   4.852   3.271 -0.1464  0.2151 -0.1965
 8611TIP3    H125776   5.992   4.761   3.296 -0.2248 -0.1298 -1.4288
 8611TIP3    H225777   6.084   4.844   3.209  0.2455  1.0548  0.1425
 8612TIP3   OH225778   2.726   0.767   0.126 -0.1954 -0.6005  0.0113
 8612TIP3    H125779   2.633   0.787   0.123  0.0465  0.5093 -3.0183
 8612TIP3    H225780   2.731   0.674   0.105 -0.6292 -0.7908  0.7239
 8613TIP3   OH225781   1.428   6.944   6.008 -0.4321 -0.4209 -0.1412
 8613TIP3    H125782   1.452   7.014   6.069 -1.2950 -1.0731  0.9807
 8613TIP3    H225783   1.339   6.964   5.981 -1.0433 -1.5578  0.9295
 8614TIP3   OH225784   6.598   1.673   3.780 -0.2200  0.1092  0.1676
 8614TIP3    H125785   6.577   1.689   3.872  1.1462 -0.9697  0.7050
 8614TIP3    H225786   6.629   1.758   3.748  1.0026  0.0968  1.2255
 8615TIP3   OH225787   7.409   4.269   0.691 -0.0761 -0.3785 -0.7625
 8615TIP3    H125788   7.482   4.322   0.723 -0.5707  0.9861 -1.7747
 8615TIP3    H225789   7.347   4.266   0.764  0.3838 -0.3600 -0.3719
 8616TIP3   OH225790   7.770   0.245   4.341 -0.1353  0.6649  0.2426
 8616TIP3    H125791   7.835   0.210   4.402  0.0326 -0.7866 -0.7212
 8616TIP3    H225792   7.821   0.275   4.266 -0.5483 -0.5228 -0.5398
 8617TIP3   OH225793   6.172   4.660   6.723  0.3697 -0.1249  0.1689
 8617TIP3    H125794   6.265   4.639   6.716  0.1853 -0.9272  0.0412
 8617TIP3    H225795   6.164   4.748   6.687  1.0613 -0.0928  0.0873
 8618TIP3   OH225796   2.138   6.738   3.216 -0.0306  0.0435 -0.0977
 8618TIP3    H125797   2.106   6.803   3.279  0.7867 -0.7827  1.2121
 8618TIP3    H225798   2.232   6.730   3.235 -0.0436 -1.2318 -0.4803
 8619TIP3   OH225799   3.307   1.424   0.728  0.3186  0.4160 -0.1617
 8619TIP3    H125800   3.374   1.477   0.684  0.1754 -0.1882 -1.1345
 8619TIP3    H225801   3.314   1.449   0.820 -0.3754  2.8482 -0.6968
 8620TIP3   OH225802   0.526   0.012   4.197  0.0140 -0.2928 -0.1730
 8620TIP3    H125803   0.575  -0.003   4.278 -0.5496  1.2795  0.4906
 8620TIP3    H225804   0.571   0.085   4.154 -1.6872  1.2037  0.4587
 8621TIP3   OH225805   4.012   2.422   5.120  0.0193 -0.6292 -0.5378
 8621TIP3    H125806   4.025   2.499   5.175 -1.4141 -0.2176 -0.7306
 8621TIP3    H225807   3.960   2.454   5.047 -1.7253 -2.0120  0.0297
 8622TIP3   OH225808   5.901   7.241   6.208  0.1609 -0.4757 -0.2358
 8622TIP3    H125809   5.809   7.266   6.209 -0.1399 -1.4730  1.4015
 8622TIP3    H225810   5.902   7.150   6.241  1.7505 -0.2996  0.3121
 8623TIP3   OH225811   2.605   5.753   4.665  0.6238  0.1130  0.4192
 8623TIP3    H125812   2.633   5.758   4.574 -0.5869  1.9180  0.0786
 8623TIP3    H225813   2.580   5.662   4.679 -0.4635  0.0793 -1.4800
 8624TIP3   OH225814   4.968   1.765   3.652  0.3206 -0.0497 -0.1580
 8624TIP3    H125815   5.028   1.833   3.622  1.2334 -1.3319 -1.3591
 8624TIP3    H225816   4.996   1.685   3.606 -0.7604 -1.2326  1.1241
 8625TIP3   OH225817   3.570   1.845   3.413  0.6517  0.4769  0.1961
 8625TIP3    H125818   3.592   1.752   3.408 -0.8191  0.0359  1.2085
 8625TIP3    H225819   3.528   1.855   3.498  1.3283  2.2140  0.3780
 8626TIP3   OH225820   1.954   7.508   4.383  0.0485 -0.0306  0.0712
 8626TIP3    H125821   1.875   7.487   4.333 -0.0745  2.0313 -0.7222
 8626TIP3    H225822   1.930   7.586   4.433  1.2266 -0.0739  0.7355
 8627TIP3   OH225823   0.770   7.323   4.821 -0.3044 -0.3132 -0.1258
 8627TIP3    H125824   0.802   7.257   4.883  0.9814 -1.2656 -1.7153
 8627TIP3    H225825   0.675   7.320   4.831 -0.2584 -2.1210  0.1749
 8628TIP3   OH225826   0.017   1.615   6.675  0.1842 -0.2654  0.5045
 8628TIP3    H125827   0.058   1.530   6.661  0.5446 -0.0461  0.1982
 8628TIP3    H225828   0.029   1.662   6.592 -0.4304 -0.0884  0.5084
 8629TIP3   OH225829   6.465   4.226   1.982  0.7546  0.0250 -0.1422
 8629TIP3    H125830   6.502   4.312   1.997  0.0460  0.3772 -0.3719
 8629TIP3    H225831   6.372   4.235   2.004  0.5279 -0.4941 -0.8363
 8630TIP3   OH225832   1.820   3.043   0.239  0.4165  0.4650 -0.0947
 8630TIP3    H125833   1.878   2.969   0.222  0.1451  0.5773 -1.5625
 8630TIP3    H225834   1.732   3.010   0.223  0.3697  1.4269 -2.1333
 8631TIP3   OH225835   3.499   5.446   2.549  0.1963  0.0455 -0.5302
 8631TIP3    H125836   3.504   5.351   2.534  0.5016 -0.1672  0.8017
 8631TIP3    H225837   3.410   5.470   2.522  1.2251  0.0942 -4.4383
 8632TIP3   OH225838   2.743   6.709   5.452 -0.0372 -0.3189 -0.5376
 8632TIP3    H125839   2.664   6.706   5.506 -2.1195  1.3483 -3.2202
 8632TIP3    H225840   2.790   6.786   5.484 -0.0644 -0.6450  0.3227
 8633TIP3   OH225841   8.301   0.629   1.317  0.2236  0.1874 -0.1730
 8633TIP3    H125842   8.356   0.557   1.349  1.0065  0.9842  0.2891
 8633TIP3    H225843   8.212   0.593   1.320  0.6577 -0.9970 -0.6038
 8634TIP3   OH225844   4.397   5.378   3.430  0.0895 -0.4823  0.4998
 8634TIP3    H125845   4.373   5.302   3.484  1.7297 -0.9767  0.6115
 8634TIP3    H225846   4.491   5.388   3.445 -0.3068  2.5080  1.6662
 8635TIP3   OH225847   4.305   0.983   2.309  0.0326 -0.6090  0.4579
 8635TIP3    H125848   4.361   1.052   2.345 -0.9973  0.6609 -0.2943
 8635TIP3    H225849   4.355   0.903   2.322  1.8855  0.4271  0.1123
 8636TIP3   OH225850   4.380   1.875   1.088  0.4457 -0.1721 -0.0957
 8636TIP3    H125851   4.320   1.944   1.059 -0.0132 -0.5541 -0.0665
 8636TIP3    H225852   4.410   1.905   1.174  1.3616  0.6763 -0.6908
 8637TIP3   OH225853   5.257   0.552   4.611 -0.0232 -0.0958  0.0203
 8637TIP3    H125854   5.258   0.648   4.618  1.1189 -0.1168  0.2521
 8637TIP3    H225855   5.308   0.522   4.686 -0.9747 -0.9234  0.3521
 8638TIP3   OH225856   1.133   0.038   3.898  0.0223  0.2197  0.2663
 8638TIP3    H125857   1.046   0.052   3.937  1.4302 -1.0043  4.4144
 8638TIP3    H225858   1.193   0.081   3.959  2.5368 -1.5865 -0.7901
 8639TIP3   OH225859   5.674   6.928   0.749 -0.4054  0.0282  0.6615
 8639TIP3    H125860   5.701   6.843   0.786  0.3433 -0.7823 -1.6090
 8639TIP3    H225861   5.756   6.968   0.719 -0.9568  0.7866  0.1484
 8640TIP3   OH225862   4.959   3.282   1.107  0.1106 -1.0020  0.1707
 8640TIP3    H125863   4.935   3.198   1.145 -0.2215 -1.2602 -0.6062
 8640TIP3    H225864   4.887   3.305   1.050  0.1030 -0.0822  0.5235
 8641TIP3   OH225865   4.573   4.117   2.353 -0.5416 -0.3458  0.4161
 8641TIP3    H125866   4.548   4.168   2.276 -1.2866  0.0872  0.9183
 8641TIP3    H225867   4.560   4.026   2.327  2.6252 -0.4822 -1.1326
 8642TIP3   OH225868   2.099   5.479   1.056  0.2033 -0.3244 -0.7894
 8642TIP3    H125869   2.110   5.574   1.049 -0.5951 -0.1413  0.1324
 8642TIP3    H225870   2.032   5.468   1.124  1.8045 -1.6155  0.6616
 8643TIP3   OH225871   6.439   3.183   4.543  0.2509 -0.1145  0.4029
 8643TIP3    H125872   6.441   3.205   4.636  0.5690  1.3652  0.0789
 8643TIP3    H225873   6.372   3.115   4.535  0.9137 -0.9757  1.8374
 8644TIP3   OH225874   3.190   3.267   1.671  0.2957 -0.4436  0.4960
 8644TIP3    H125875   3.108   3.294   1.631 -0.4265 -0.9480  1.5624
 8644TIP3    H225876   3.165   3.235   1.758  1.6815 -0.1570  1.0358
 8645TIP3   OH225877   0.489   6.416   1.697 -0.1643  0.0010  0.0527
 8645TIP3    H125878   0.584   6.408   1.683 -0.2249  1.9519 -2.2375
 8645TIP3    H225879   0.481   6.489   1.758 -0.1456  1.7414 -1.8993
 8646TIP3   OH225880   0.854   3.525   4.042 -0.1324 -0.0787 -0.3355
 8646TIP3    H125881   0.807   3.514   4.125  0.4504  0.1312  0.0282
 8646TIP3    H225882   0.785   3.535   3.976 -0.5952  1.0246  0.2927
 8647TIP3   OH225883   5.937   7.543   0.960 -0.2455 -0.2751  0.1789
 8647TIP3    H125884   5.882   7.556   0.883  0.2202  0.7016  0.0094
 8647TIP3    H225885   6.026   7.557   0.930 -0.0676  0.2749  0.9292
 8648TIP3   OH225886   4.533   6.129   0.840 -0.6618 -0.8765 -0.1569
 8648TIP3    H125887   4.498   6.083   0.763 -2.0322  0.3032 -0.2727
 8648TIP3    H225888   4.476   6.204   0.851  0.2066 -0.4030  1.3613
 8649TIP3   OH225889   5.167   2.406   2.925 -0.5612 -0.0535 -0.0420
 8649TIP3    H125890   5.073   2.420   2.939 -0.8001 -0.4657 -1.1381
 8649TIP3    H225891   5.203   2.494   2.917 -0.3730  0.2619  2.9852
 8650TIP3   OH225892   7.449   6.173   2.964  0.1066 -0.4959 -0.2325
 8650TIP3    H125893   7.521   6.161   2.902  0.4069 -2.0548  0.3886
 8650TIP3    H225894   7.462   6.106   3.031 -0.0683  1.2657  1.6949
 8651TIP3   OH225895   0.350   6.097   1.051 -0.3382 -0.1069 -0.5108
 8651TIP3    H125896   0.287   6.088   1.122  0.0369 -0.2165 -0.1825
 8651TIP3    H225897   0.306   6.150   0.985 -0.3767  0.7495  0.1909
 8652TIP3   OH225898   1.159   7.065   2.742 -0.0945 -0.2362 -0.4908
 8652TIP3    H125899   1.069   7.070   2.710 -0.9612  0.3208  1.8117
 8652TIP3    H225900   1.213   7.068   2.663 -2.0546  0.5024 -1.8788
 8653TIP3   OH225901   4.428   6.529   2.673 -0.0226 -0.3943 -0.6354
 8653TIP3    H125902   4.474   6.458   2.717 -0.1128  0.0526  0.1922
 8653TIP3    H225903   4.338   6.523   2.705 -0.1010 -0.0881 -0.7950
 8654TIP3   OH225904   4.289   7.267   3.142 -0.1242  0.2328  0.1588
 8654TIP3    H125905   4.212   7.276   3.197  0.4336 -0.7911  1.1408
 8654TIP3    H225906   4.362   7.256   3.203  0.7445  0.6483 -0.7548
 8655TIP3   OH225907   1.474   5.814   0.992 -0.3562 -0.0398 -0.1445
 8655TIP3    H125908   1.513   5.851   0.913  0.7204  0.1491  0.4431
 8655TIP3    H225909   1.507   5.870   1.063 -0.8666 -0.5220  0.4843
 8656TIP3   OH225910   6.056   4.573   4.595 -0.0657  0.0143  0.1333
 8656TIP3    H125911   6.021   4.627   4.524  1.7742 -0.3112 -1.1027
 8656TIP3    H225912   6.070   4.487   4.554  2.5846  0.2575  0.3514
 8657TIP3   OH225913   7.249   5.056   5.989  0.6110 -0.1828 -0.4901
 8657TIP3    H125914   7.155   5.040   5.994  0.5691  0.0832 -0.3848
 8657TIP3    H225915   7.282   5.034   6.076  0.6663 -0.3957 -0.5640
 8658TIP3   OH225916   5.303   1.904   3.771  0.0313  0.6064  0.7003
 8658TIP3    H125917   5.389   1.878   3.804 -0.6344  0.3325  2.3053
 8658TIP3    H225918   5.316   1.915   3.676  1.9641  1.1769  0.9821
 8659TIP3   OH225919   0.336   3.998   0.959  0.2683 -0.3834 -0.2341
 8659TIP3    H125920   0.408   3.972   0.901 -0.1058 -1.0740 -0.4038
 8659TIP3    H225921   0.340   4.093   0.961 -0.9815 -0.1442 -3.1244
 8660TIP3   OH225922   4.775   4.295   1.047 -0.0157  0.1541  0.5730
 8660TIP3    H125923   4.779   4.245   1.129  0.1858 -1.3353 -0.3077
 8660TIP3    H225924   4.740   4.233   0.983  1.1715  0.8420 -0.8028
 8661TIP3   OH225925   4.170   5.491   4.813  0.2784 -0.2285 -0.1101
 8661TIP3    H125926   4.128   5.522   4.893  0.2965  0.1271 -0.2334
 8661TIP3    H225927   4.258   5.465   4.840  0.6248  0.8304 -0.1856
 8662TIP3   OH225928   7.893   4.497   2.206 -0.5185 -0.1918 -0.0044
 8662TIP3    H125929   7.905   4.587   2.177 -0.6764  0.0287  0.6186
 8662TIP3    H225930   7.902   4.500   2.301  1.2303 -1.0921 -0.0833
 8663TIP3   OH225931   1.920   3.985   0.313 -0.0417  0.2328  0.0702
 8663TIP3    H125932   1.939   3.960   0.222  0.7995  0.5408  0.1499
 8663TIP3    H225933   1.832   4.022   0.309 -0.4617 -0.7755 -0.4152
 8664TIP3   OH225934   8.218   7.433   3.601  0.5308 -0.8548  0.4174
 8664TIP3    H125935   8.196   7.361   3.661  0.2886  0.4198  1.9253
 8664TIP3    H225936   8.135   7.479   3.587  0.8834 -0.2161  0.3736
 8665TIP3   OH225937   5.558   5.425   6.144 -0.6332  0.0729  0.3673
 8665TIP3    H125938   5.603   5.433   6.228 -0.5917 -0.1463  0.3665
 8665TIP3    H225939   5.602   5.352   6.101 -0.0261  0.7783 -0.2367
 8666TIP3   OH225940   3.349   5.161   1.830 -0.0514 -0.7701 -0.2197
 8666TIP3    H125941   3.354   5.154   1.735 -0.2168 -0.1023 -0.2801
 8666TIP3    H225942   3.343   5.070   1.860  2.9106 -1.1852 -0.6482
 8667TIP3   OH225943   2.834   4.825   6.061 -0.4401 -0.4047  0.2380
 8667TIP3    H125944   2.833   4.739   6.102 -0.8014 -1.0310 -1.0315
 8667TIP3    H225945   2.889   4.878   6.118 -0.0004 -1.5361  0.9068
 8668TIP3   OH225946   6.443   0.365   1.920 -0.2456  0.0598 -0.3077
 8668TIP3    H125947   6.471   0.274   1.933  0.9120  0.7467  3.4802
 8668TIP3    H225948   6.473   0.388   1.832  2.8763 -2.1297  0.0365
 8669TIP3   OH225949   7.412   5.440   0.845 -0.5034 -0.0310  0.2651
 8669TIP3    H125950   7.441   5.363   0.894 -1.2964  0.0607  0.8987
 8669TIP3    H225951   7.316   5.434   0.846 -0.5618  0.8118  0.0825
 8670TIP3   OH225952   0.727   3.336   5.075  0.1374  0.5216 -0.0892
 8670TIP3    H125953   0.652   3.280   5.055  0.4056 -0.1853  0.8153
 8670TIP3    H225954   0.758   3.367   4.990  0.2415 -1.0580 -0.6540
 8671TIP3   OH225955   7.874   2.040   1.521 -0.5087 -0.4638  0.2335
 8671TIP3    H125956   7.936   2.092   1.470 -0.9356 -0.6655 -0.5091
 8671TIP3    H225957   7.849   2.097   1.594  0.3356 -0.2810  0.3872
 8672TIP3   OH225958   0.586   2.347   5.642  0.1009 -0.2739 -0.1049
 8672TIP3    H125959   0.535   2.268   5.621  0.7691 -0.5554 -0.7123
 8672TIP3    H225960   0.539   2.417   5.598 -0.5987 -0.2877  0.5826
 8673TIP3   OH225961   0.174   3.927   3.776 -0.4441  0.0968  0.3471
 8673TIP3    H125962   0.220   3.853   3.735  0.4898  0.6024  0.4416
 8673TIP3    H225963   0.084   3.897   3.786  0.1803 -1.5360  1.6074
 8674TIP3   OH225964   2.825   4.049   4.524 -0.1694  0.0456  0.0505
 8674TIP3    H125965   2.754   3.989   4.502 -1.5253  1.7668 -0.4050
 8674TIP3    H225966   2.797   4.091   4.605 -1.5289  3.4199 -1.9865
 8675TIP3   OH225967   5.736   0.799   4.876  0.5284 -0.5382  1.0936
 8675TIP3    H125968   5.806   0.852   4.839  0.4135 -1.4871 -0.5789
 8675TIP3    H225969   5.751   0.803   4.971  1.9686  0.4407  0.8608
 8676TIP3   OH225970   4.500   6.311   6.323 -0.1260 -0.2397 -0.1475
 8676TIP3    H125971   4.429   6.362   6.282  0.1015 -0.2124 -0.5096
 8676TIP3    H225972   4.457   6.265   6.395 -0.2573  0.7661  0.4352
 8677TIP3   OH225973   4.218   5.447   0.820  0.1498  0.4336 -0.0678
 8677TIP3    H125974   4.270   5.455   0.740  0.9374  0.4151  0.4320
 8677TIP3    H225975   4.220   5.535   0.858 -1.0945  0.7110 -0.5772
 8678TIP3   OH225976   0.978   1.329   3.472  0.3386  0.3057  0.2987
 8678TIP3    H125977   1.000   1.365   3.386 -0.5163 -2.4931 -1.2123
 8678TIP3    H225978   1.062   1.316   3.515  0.7704  1.8745 -0.0110
 8679TIP3   OH225979   7.959   5.837   2.756 -0.3237 -0.3213 -0.0305
 8679TIP3    H125980   7.874   5.845   2.798 -1.1262 -1.9234 -1.2514
 8679TIP3    H225981   7.939   5.832   2.662  1.0368 -1.5016 -0.2945
 8680TIP3   OH225982   5.358   5.618   2.219  0.2480  0.4620 -0.0806
 8680TIP3    H125983   5.368   5.680   2.146  2.3151 -0.3690 -0.5669
 8680TIP3    H225984   5.335   5.535   2.177 -0.0983  0.3302  0.3658
 8681TIP3   OH225985   0.245   6.384   6.659 -0.6255  0.0985  0.0408
 8681TIP3    H125986   0.178   6.443   6.695 -0.0766  0.8452 -0.1469
 8681TIP3    H225987   0.298   6.440   6.602  0.7153 -0.2750  0.8798
 8682TIP3   OH225988   0.825   3.521   6.139 -0.1855  0.4944 -0.1128
 8682TIP3    H125989   0.729   3.511   6.141 -0.4370  2.5565  0.0351
 8682TIP3    H225990   0.856   3.445   6.090 -1.7274 -1.2246  1.4068
 8683TIP3   OH225991   1.927   3.872   5.396 -0.0188  0.2063 -0.2689
 8683TIP3    H125992   1.854   3.821   5.430 -0.1972 -0.5592 -1.7000
 8683TIP3    H225993   1.984   3.808   5.354  1.6632  0.7506  1.0692
 8684TIP3   OH225994   6.666   4.544   3.532  0.3890  0.2249 -0.5731
 8684TIP3    H125995   6.621   4.566   3.451 -0.2295  0.9561 -0.0321
 8684TIP3    H225996   6.739   4.489   3.503  0.9895  1.5739 -1.7804
 8685TIP3   OH225997   3.087   0.205   1.984  0.8707  0.5634  0.8540
 8685TIP3    H125998   3.093   0.121   1.939 -0.2350  0.1315  1.4759
 8685TIP3    H225999   3.158   0.257   1.946 -1.1343  0.9481 -2.8980
 8686TIP3   OH226000   1.898   4.034   4.094  0.2317  0.0681  0.0766
 8686TIP3    H126001   1.816   4.083   4.094  1.1681  1.8587  2.5904
 8686TIP3    H226002   1.958   4.088   4.145  2.1884 -2.4441  0.6310
 8687TIP3   OH226003   6.719   3.340   1.506  0.5662 -0.4406 -0.4553
 8687TIP3    H126004   6.752   3.282   1.437 -0.8477  1.0303 -2.5296
 8687TIP3    H226005   6.645   3.386   1.464  1.7845  3.0919  0.8772
 8688TIP3   OH226006   4.468   0.554   3.536  0.6641 -0.2682 -0.0958
 8688TIP3    H126007   4.393   0.499   3.559  0.3171  0.3987  0.4135
 8688TIP3    H226008   4.433   0.619   3.475  1.1236 -0.7419 -0.8757
 8689TIP3   OH226009   6.180   6.129   3.484 -0.1358  0.2167 -0.1519
 8689TIP3    H126010   6.263   6.106   3.442  0.9700 -2.0435  2.9406
 8689TIP3    H226011   6.128   6.050   3.479 -1.0789  0.7912  0.3130
 8690TIP3   OH226012   3.496   5.891   4.837 -0.4353  0.3974  0.2224
 8690TIP3    H126013   3.502   5.985   4.820  1.5784  0.6710  1.9478
 8690TIP3    H226014   3.462   5.885   4.927 -2.8912 -0.6602 -0.6997
 8691TIP3   OH226015   0.763   7.669   2.894 -0.3436  0.4709 -0.1687
 8691TIP3    H126016   0.690   7.716   2.935 -2.6266 -2.3071 -0.7927
 8691TIP3    H226017   0.758   7.694   2.802 -0.8907 -0.1511 -0.3126
 8692TIP3   OH226018   4.062   4.931   6.618 -0.4075 -0.5655  0.1943
 8692TIP3    H126019   4.014   4.937   6.700  1.5768  1.4864  1.3161
 8692TIP3    H226020   4.016   4.990   6.558  0.6499  1.4808  1.2961
 8693TIP3   OH226021   1.594   4.428   0.195 -0.2510  0.0730  0.0410
 8693TIP3    H126022   1.550   4.488   0.135 -0.5301  0.0549  0.2217
 8693TIP3    H226023   1.543   4.435   0.276 -1.1988 -1.4822 -0.3705
 8694TIP3   OH226024   7.133   3.952   3.943 -0.0538  0.5098 -0.1903
 8694TIP3    H126025   7.115   4.046   3.935 -0.7270  0.5269  1.1473
 8694TIP3    H226026   7.227   3.944   3.927 -0.2836  1.1569 -2.0353
 8695TIP3   OH226027   4.490   6.398   3.495  0.0166 -0.0153 -0.5384
 8695TIP3    H126028   4.457   6.308   3.498  0.6571 -0.2233  1.1592
 8695TIP3    H226029   4.421   6.450   3.534 -0.3823  0.2612 -1.5833
 8696TIP3   OH226030   2.495   7.245   0.075  0.2023  0.2636 -0.2471
 8696TIP3    H126031   2.438   7.236  -0.002 -0.6721  0.7103  0.3303
 8696TIP3    H226032   2.555   7.171   0.068  0.1235  0.2849 -1.3499
 8697TIP3   OH226033   7.998   4.240   6.386 -0.0246 -0.4954  0.0157
 8697TIP3    H126034   8.052   4.174   6.431  0.1887 -1.8675 -2.1181
 8697TIP3    H226035   8.061   4.296   6.340 -0.3034 -0.1441  0.0554
 8698TIP3   OH226036   0.381   2.200   1.323  0.1629  0.1066 -0.2493
 8698TIP3    H126037   0.447   2.140   1.289  1.0872  0.7040  0.4276
 8698TIP3    H226038   0.345   2.155   1.399  0.9076  0.4010  0.3018
 8699TIP3   OH226039   3.494   4.279   2.679  0.2970  0.1241 -0.5542
 8699TIP3    H126040   3.430   4.340   2.714  2.1729  1.3359  0.9850
 8699TIP3    H226041   3.485   4.285   2.584 -1.6920  0.3819 -0.3861
 8700TIP3   OH226042   5.770   3.189   4.498  0.7539  0.7392 -0.8289
 8700TIP3    H126043   5.865   3.200   4.486  0.9507  1.2111  0.8182
 8700TIP3    H226044   5.759   3.185   4.593 -0.9982  1.8191 -0.9476
 8701TIP3   OH226045   7.063   2.943   3.206 -0.1113 -0.0697  0.0689
 8701TIP3    H126046   7.061   2.860   3.254  0.1605  0.6507  1.3592
 8701TIP3    H226047   7.018   2.924   3.124  3.0074 -2.4839 -1.2967
 8702TIP3   OH226048   3.388   3.087   1.639  0.1207 -0.0178 -0.0331
 8702TIP3    H126049   3.421   3.080   1.550 -0.0795 -2.0146 -0.0014
 8702TIP3    H226050   3.317   3.151   1.634  0.5437  0.3823 -1.1481
 8703TIP3   OH226051   0.438   5.054   5.158 -0.4176  0.1152  0.6078
 8703TIP3    H126052   0.442   5.039   5.064 -1.8338  1.3074  0.3258
 8703TIP3    H226053   0.465   4.971   5.197  0.1133 -0.4164 -0.8392
 8704TIP3   OH226054   5.952   5.371   0.959 -0.3016 -0.4364  0.4128
 8704TIP3    H126055   5.960   5.443   1.021  0.4312  0.0538 -0.2266
 8704TIP3    H226056   6.005   5.301   0.996  0.4831  0.0047  0.1475
 8705TIP3   OH226057   0.107   3.727   3.397  0.6182 -0.4198  0.2594
 8705TIP3    H126058   0.105   3.814   3.436  2.7212 -0.2624  0.1053
 8705TIP3    H226059   0.033   3.681   3.437 -0.6671  1.4763  0.1722
 8706TIP3   OH226060   6.995   4.066   4.171 -1.1428  0.4166 -0.1660
 8706TIP3    H126061   6.998   3.997   4.104  0.1625 -0.0041  0.2893
 8706TIP3    H226062   7.042   4.028   4.246 -0.9499  1.5741  0.3081
 8707TIP3   OH226063   6.125   1.235   2.886 -0.1202 -0.1022 -0.2045
 8707TIP3    H126064   6.078   1.195   2.813  0.9057  1.7549 -1.9894
 8707TIP3    H226065   6.059   1.281   2.936 -0.5930  0.2316 -1.1165
 8708TIP3   OH226066   1.847   0.222   0.558  0.2128  0.0006 -0.7970
 8708TIP3    H126067   1.876   0.169   0.484 -1.9764 -2.2217 -0.2214
 8708TIP3    H226068   1.752   0.229   0.545 -0.3020 -0.8306  1.9671
 8709TIP3   OH226069   7.172   5.766   0.885 -0.3958  0.2254  0.3279
 8709TIP3    H126070   7.111   5.806   0.947 -0.5998  0.3399  0.0551
 8709TIP3    H226071   7.209   5.692   0.933 -1.8438 -0.7518  0.0244
 8710TIP3   OH226072   4.538   4.969   6.011  0.0195 -0.0853  0.4402
 8710TIP3    H126073   4.580   4.968   5.925 -0.4916  1.6864  0.1172
 8710TIP3    H226074   4.445   4.963   5.992 -0.0983  0.3752  0.8592
 8711TIP3   OH226075   5.535   4.401   3.645  0.0460 -0.4743  0.3542
 8711TIP3    H126076   5.482   4.481   3.646 -0.6903 -0.9261 -0.7856
 8711TIP3    H226077   5.549   4.381   3.737 -0.6413  0.3928  0.6648
 8712TIP3   OH226078   0.448   7.294   1.738 -0.3380 -0.1503  0.2696
 8712TIP3    H126079   0.497   7.333   1.666  1.2093 -0.7197  0.9769
 8712TIP3    H226080   0.373   7.252   1.696  0.4832 -0.3884 -1.0019
 8713TIP3   OH226081   5.641   6.083   2.107  0.3106 -0.0271 -0.4011
 8713TIP3    H126082   5.564   6.043   2.066 -0.1190 -0.0774  0.4166
 8713TIP3    H226083   5.638   6.051   2.198  0.4264  1.2067  0.0511
 8714TIP3   OH226084   7.591   3.820   3.001  0.1813 -0.4222  0.0949
 8714TIP3    H126085   7.519   3.878   2.978 -0.5132 -0.4268  2.1089
 8714TIP3    H226086   7.549   3.740   3.032  1.0397 -0.5787  0.9167
 8715TIP3   OH226087   6.633   3.386   3.471 -0.5290 -0.3491  0.5803
 8715TIP3    H126088   6.714   3.412   3.514 -0.1965 -1.1384  0.4325
 8715TIP3    H226089   6.635   3.432   3.387 -1.6275  1.9659  1.7104
 8716TIP3   OH226090   1.713   2.646   3.569 -0.0152 -0.1058  0.7775
 8716TIP3    H126091   1.673   2.730   3.594 -0.4549 -0.1911  0.3836
 8716TIP3    H226092   1.650   2.580   3.597 -0.0196 -0.2592  0.4097
 8717TIP3   OH226093   7.906   6.151   4.372  0.3566  0.5323 -0.2963
 8717TIP3    H126094   7.999   6.145   4.348  0.5873  0.5638  0.5499
 8717TIP3    H226095   7.905   6.134   4.466 -0.5474  0.1266 -0.3688
 8718TIP3   OH226096   3.177   3.382   2.506 -0.2239 -0.1694  0.0435
 8718TIP3    H126097   3.245   3.389   2.572  0.8440 -2.8211 -0.6624
 8718TIP3    H226098   3.095   3.372   2.555  0.3516 -0.5539  0.9305
 8719TIP3   OH226099   2.135   5.101   5.164 -0.3799 -0.4039 -0.2728
 8719TIP3    H126100   2.151   5.006   5.164 -0.3309 -0.4547  2.0241
 8719TIP3    H226101   2.042   5.110   5.183 -0.6502  0.0432 -1.6540
 8720TIP3   OH226102   4.849   4.086   6.153  0.4296  0.1821  0.3100
 8720TIP3    H126103   4.893   4.168   6.176  0.4930  0.5180 -0.9275
 8720TIP3    H226104   4.838   4.090   6.058  0.6311 -1.3434  0.1865
 8721TIP3   OH226105   3.382   6.167   4.347 -0.2528  0.1513 -0.0152
 8721TIP3    H126106   3.451   6.232   4.358 -0.9578  1.1358 -1.1980
 8721TIP3    H226107   3.330   6.199   4.273 -1.9739 -0.5621  0.8321
 8722TIP3   OH226108   3.992   6.302   2.681  0.2464 -0.6747  0.0661
 8722TIP3    H126109   3.943   6.221   2.699 -0.1620 -0.4739 -0.1572
 8722TIP3    H226110   3.932   6.372   2.705 -0.5355 -0.3619 -2.5694
 8723TIP3   OH226111   0.565   1.778   2.218  0.3158 -0.1689 -1.0064
 8723TIP3    H126112   0.634   1.818   2.271  0.5853 -0.6027 -1.0287
 8723TIP3    H226113   0.490   1.771   2.278  0.8469 -1.3354 -0.4613
 8724TIP3   OH226114   5.090   3.188   2.015  0.4633 -0.5993 -0.1087
 8724TIP3    H126115   5.089   3.271   1.967  1.9922 -0.3632  0.1986
 8724TIP3    H226116   5.081   3.213   2.107  1.7765 -0.6603  0.0643
 8725TIP3   OH226117   1.549   0.901   6.667  0.1719 -0.0534  0.4372
 8725TIP3    H126118   1.531   0.823   6.718  0.0553 -0.6892 -0.5521
 8725TIP3    H226119   1.475   0.909   6.607  0.6543  0.2607 -0.1323
 8726TIP3   OH226120   0.373   3.152   0.857 -0.0905  0.1431 -0.8386
 8726TIP3    H126121   0.466   3.141   0.837 -0.1112 -0.1856 -0.7539
 8726TIP3    H226122   0.372   3.198   0.941 -0.0025 -0.0387 -0.7366
 8727TIP3   OH226123   3.486   5.952   5.096  0.5872  0.1702 -0.2437
 8727TIP3    H126124   3.546   5.889   5.137 -0.1150 -1.1433 -1.1817
 8727TIP3    H226125   3.400   5.932   5.133  0.0700 -0.5525 -1.7869
 8728TIP3   OH226126   1.016   3.736   3.954  0.0376 -0.1139  0.5207
 8728TIP3    H126127   0.975   3.651   3.967  1.6249 -1.4112 -2.1060
 8728TIP3    H226128   0.944   3.799   3.958 -1.8361 -1.9865 -1.3949
 8729TIP3   OH226129   5.740   3.297   6.523 -0.0058 -0.5576 -0.2243
 8729TIP3    H126130   5.747   3.390   6.500 -1.4559 -0.4025 -0.1354
 8729TIP3    H226131   5.647   3.283   6.538  0.3963 -1.6021  1.5759
 8730TIP3   OH226132   0.429   5.516   0.090 -0.0427  0.0741 -0.3882
 8730TIP3    H126133   0.399   5.586   0.148  0.6955  1.5023 -1.6295
 8730TIP3    H226134   0.351   5.465   0.070 -0.7443  0.9656  0.0077
 8731TIP3   OH226135   0.164   0.782   4.392  0.0572  0.0713 -0.5139
 8731TIP3    H126136   0.134   0.870   4.414  0.3627 -0.0494  0.4476
 8731TIP3    H226137   0.184   0.742   4.477 -0.7898 -1.1823 -0.8877
 8732TIP3   OH226138   8.145   6.671   1.846 -0.2347 -0.3816 -0.0549
 8732TIP3    H126139   8.110   6.634   1.765 -0.2746  0.5173 -0.4645
 8732TIP3    H226140   8.087   6.744   1.866 -0.7422 -1.1177  1.2727
 8733TIP3   OH226141   2.714   6.650   3.929 -0.3399  0.0641  0.0950
 8733TIP3    H126142   2.807   6.635   3.912 -0.5679 -1.4091  0.0228
 8733TIP3    H226143   2.694   6.733   3.885  0.6681 -0.1994 -0.8959
 8734TIP3   OH226144   2.770   4.937   2.842 -0.0482 -0.3475  0.1528
 8734TIP3    H126145   2.694   4.995   2.842  0.2434  0.0915 -1.5283
 8734TIP3    H226146   2.837   4.984   2.890 -0.5616 -0.3878  0.9384
 8735TIP3   OH226147   7.375   3.460   6.403 -0.1916 -0.3385  0.3948
 8735TIP3    H126148   7.316   3.407   6.349 -1.0340  2.9583 -2.2521
 8735TIP3    H226149   7.463   3.428   6.380 -0.6740 -0.9491 -0.6962
 8736TIP3   OH226150   7.163   4.343   4.772  0.5277 -0.2105  0.2563
 8736TIP3    H126151   7.182   4.254   4.741 -0.6438 -1.0919  1.8758
 8736TIP3    H226152   7.228   4.360   4.839  0.1135 -0.2782  0.6802
 8737TIP3   OH226153   7.876   5.877   2.191 -0.3001  0.3547  0.2964
 8737TIP3    H126154   7.849   5.968   2.175 -1.3152  0.3570  1.7736
 8737TIP3    H226155   7.822   5.825   2.131 -0.3265  0.6841  0.0350
 8738TIP3   OH226156   1.441   4.934   2.321 -0.7537 -0.2437  0.0323
 8738TIP3    H126157   1.505   4.926   2.250 -0.9322 -0.7147 -0.0838
 8738TIP3    H226158   1.481   4.890   2.395 -0.6225  0.1341  0.1858
 8739TIP3   OH226159   5.449   2.386   0.792  0.0833  0.2381 -0.1129
 8739TIP3    H126160   5.376   2.409   0.850 -0.9963  1.6415 -1.8953
 8739TIP3    H226161   5.512   2.456   0.803  0.1131  0.2303 -0.2284
 8740TIP3   OH226162   8.221   1.002   6.635  0.4685 -0.1913  0.0896
 8740TIP3    H126163   8.132   1.035   6.622 -0.5821 -1.5220  3.0323
 8740TIP3    H226164   8.265   1.018   6.551 -2.6208  0.1504 -1.6263
 8741TIP3   OH226165   2.994   0.792   0.209  0.4855 -0.3021  0.3850
 8741TIP3    H126166   2.978   0.824   0.298  1.7001 -1.0826  0.9134
 8741TIP3    H226167   2.909   0.801   0.165 -0.7028 -1.7260  2.2066
 8742TIP3   OH226168   3.170   0.541   6.542 -0.6964  0.3567 -0.2650
 8742TIP3    H126169   3.093   0.580   6.583 -0.6381 -0.4885  0.6844
 8742TIP3    H226170   3.194   0.468   6.600  0.8194  0.6039 -0.5352
 8743TIP3   OH226171   6.384   0.899   2.185 -0.1046 -0.9411  0.3469
 8743TIP3    H126172   6.339   0.960   2.127 -2.2706 -2.6716  0.0805
 8743TIP3    H226173   6.362   0.930   2.273  1.5052  0.4850  0.3084
 8744TIP3   OH226174   0.518   3.437   6.591  0.5334  0.8949 -0.2918
 8744TIP3    H126175   0.609   3.434   6.562  0.6987  1.3590  0.1671
 8744TIP3    H226176   0.477   3.362   6.548  1.1761  0.5690 -0.3538
 8745TIP3   OH226177   7.115   7.625   2.493 -0.0069  0.1219  0.2763
 8745TIP3    H126178   7.088   7.533   2.493 -0.4861  0.2037 -2.1507
 8745TIP3    H226179   7.088   7.657   2.579 -1.4805 -1.5548  0.5035
 8746TIP3   OH226180   3.646   4.937   3.899  0.1387 -0.1578  0.5145
 8746TIP3    H126181   3.736   4.924   3.926  0.4423 -0.0850 -0.4199
 8746TIP3    H226182   3.652   4.998   3.826 -0.3715 -2.3780 -1.5040
 8747TIP3   OH226183   1.999   6.446   4.636 -0.3645  0.2691 -1.0135
 8747TIP3    H126184   1.916   6.404   4.612 -0.6506 -0.7161  1.4318
 8747TIP3    H226185   2.060   6.374   4.647  0.1426  0.7875 -0.3760
 8748TIP3   OH226186   0.983   5.614   1.635 -0.1515 -0.0633  0.3555
 8748TIP3    H126187   1.007   5.527   1.667 -0.1750 -0.1303  0.1937
 8748TIP3    H226188   1.039   5.628   1.558 -0.4407 -0.1128  0.1322
 8749TIP3   OH226189   3.545   2.086   4.978  0.0679  0.6309 -0.2793
 8749TIP3    H126190   3.640   2.096   4.972  0.5002 -2.5033 -0.6169
 8749TIP3    H226191   3.513   2.096   4.888  0.7811 -2.6527 -1.0467
 8750TIP3   OH226192   4.019   3.004   2.915  0.3881 -0.0271 -0.1194
 8750TIP3    H126193   4.067   2.984   2.835 -2.1491  0.8942 -1.9871
 8750TIP3    H226194   4.050   3.090   2.941  2.3339 -0.9578  0.8528
 8751TIP3   OH226195   2.086   4.319   0.815  0.3361  0.1739  0.6760
 8751TIP3    H126196   2.020   4.300   0.748  1.0501 -0.6202  0.1703
 8751TIP3    H226197   2.126   4.401   0.786  0.2042  0.1705  0.4750
 8752TIP3   OH226198   8.083   7.571   3.957  0.0208 -0.1314 -0.4248
 8752TIP3    H126199   8.144   7.500   3.976 -0.0187  0.4138  2.1368
 8752TIP3    H226200   7.998   7.541   3.989  0.0482  1.0881  0.9117
 8753TIP3   OH226201   7.717   0.063   4.664 -0.0953 -0.3294  0.2063
 8753TIP3    H126202   7.773  -0.014   4.674 -1.2415 -0.9799  2.2232
 8753TIP3    H226203   7.772   0.137   4.689  0.9586 -0.4466 -1.5732
 8754TIP3   OH226204   1.431   5.223   1.204  0.0212  0.0360 -0.1927
 8754TIP3    H126205   1.461   5.304   1.244  3.4032 -0.7016 -0.9442
 8754TIP3    H226206   1.336   5.234   1.197 -0.1154  2.3672  3.0098
 8755TIP3   OH226207   3.009   3.570   6.332 -0.1832 -0.1009  0.1763
 8755TIP3    H126208   2.922   3.554   6.370 -0.2355 -0.0546  0.0770
 8755TIP3    H226209   2.997   3.649   6.278 -0.6107 -1.2513 -1.5060
 8756TIP3   OH226210   3.836   6.220   1.094 -0.4022  0.0798  0.4624
 8756TIP3    H126211   3.809   6.252   1.181  1.5384  1.3327  0.6994
 8756TIP3    H226212   3.918   6.173   1.111 -0.5273 -0.5332 -0.5756
 8757TIP3   OH226213   4.087   3.408   2.760 -0.3887 -0.2143  0.8116
 8757TIP3    H126214   4.032   3.480   2.791  0.5901  0.5919  0.7420
 8757TIP3    H226215   4.025   3.338   2.738 -1.3617  0.6005  0.8764
 8758TIP3   OH226216   8.251   7.333   1.838 -0.2266  0.6337 -0.5078
 8758TIP3    H126217   8.203   7.370   1.764  1.8413  0.3538 -2.0866
 8758TIP3    H226218   8.266   7.241   1.815 -0.9394  0.0769  1.0503
 8759TIP3   OH226219   3.032   2.091   3.742 -0.0533 -0.1274  0.1296
 8759TIP3    H126220   3.083   2.066   3.820  2.1590  0.0504 -1.1922
 8759TIP3    H226221   3.027   2.011   3.690  1.2157  0.4594 -0.9657
 8760TIP3   OH226222   1.523   4.293   2.550  0.3786  0.2733  0.5262
 8760TIP3    H126223   1.482   4.322   2.631  0.2149  1.3310  0.0745
 8760TIP3    H226224   1.606   4.340   2.545  1.3348 -1.2729  1.0444
 8761TIP3   OH226225   6.279   6.887   6.033 -0.5863  0.7893  0.6684
 8761TIP3    H126226   6.225   6.808   6.032  0.7969 -0.2451 -1.5115
 8761TIP3    H226227   6.365   6.857   6.061 -0.3829  1.8170  1.1772
 8762TIP3   OH226228   3.293   1.449   4.800  0.3478 -0.4474 -0.3897
 8762TIP3    H126229   3.335   1.412   4.878  1.2724  0.8063 -0.2578
 8762TIP3    H226230   3.354   1.431   4.729 -0.3696 -1.3522 -0.7875
 8763TIP3   OH226231   6.179   3.062   4.552 -0.3546 -0.0875 -0.7372
 8763TIP3    H126232   6.110   3.126   4.533 -0.2953  0.5123  0.8872
 8763TIP3    H226233   6.169   3.043   4.646  2.1337  0.5922 -0.2465
 8764TIP3   OH226234   2.116   0.950   1.737  0.2553  0.2858  0.4174
 8764TIP3    H126235   2.150   1.010   1.803  0.9552 -0.9661  1.2187
 8764TIP3    H226236   2.029   0.985   1.716  0.5002  1.3716  1.1184
 8765TIP3   OH226237   3.266   3.508   2.939 -0.1861 -0.3576  0.4755
 8765TIP3    H126238   3.285   3.449   3.012 -2.5908 -0.5048  1.0696
 8765TIP3    H226239   3.221   3.454   2.875 -1.1543  0.5200  0.3998
 8766TIP3   OH226240   4.231   3.365   5.888 -0.0849  0.2702  0.4353
 8766TIP3    H126241   4.206   3.457   5.882  0.1049  0.2864 -0.1054
 8766TIP3    H226242   4.151   3.317   5.866  0.4411  0.3234 -1.8074
 8767TIP3   OH226243   3.887   3.524   1.659 -0.5643  0.4139 -0.1614
 8767TIP3    H126244   3.872   3.618   1.668 -0.2475  0.5672 -1.1737
 8767TIP3    H226245   3.802   3.486   1.639 -0.4741  0.6568 -1.0313
 8768TIP3   OH226246   3.240   7.526   6.032 -0.0558 -0.1042 -0.3831
 8768TIP3    H126247   3.168   7.515   6.095  0.8190  1.1721  0.9163
 8768TIP3    H226248   3.268   7.437   6.011 -1.0225 -0.5775  0.2681
 8769TIP3   OH226249   0.746   2.768   1.767 -0.0343 -0.0589 -0.0807
 8769TIP3    H126250   0.830   2.759   1.812  0.5090 -0.1667 -1.0897
 8769TIP3    H226251   0.761   2.729   1.681 -0.7436  1.0389 -0.7245
 8770TIP3   OH226252   0.128   3.255   4.761 -0.9255  0.5387  0.0800
 8770TIP3    H126253   0.120   3.196   4.686 -0.4201  0.4750  0.0699
 8770TIP3    H226254   0.044   3.248   4.807 -1.2575  0.6242 -0.5119
 8771TIP3   OH226255   2.285   1.055   2.672 -0.1863 -0.9249 -0.5165
 8771TIP3    H126256   2.352   1.003   2.715 -0.2675 -1.3396 -0.8782
 8771TIP3    H226257   2.326   1.084   2.590  1.8079  4.0107  1.8419
 8772TIP3   OH226258   3.714   2.425   3.528 -0.8946 -0.6812  0.2316
 8772TIP3    H126259   3.643   2.488   3.521  0.0290  0.5188  1.2324
 8772TIP3    H226260   3.691   2.371   3.604 -0.3773  0.1986  1.0240
 8773TIP3   OH226261   6.065   1.822   6.032 -0.7108  0.0264 -0.3327
 8773TIP3    H126262   6.137   1.886   6.024 -0.6851  0.2598  1.4221
 8773TIP3    H226263   6.100   1.742   5.992  1.1401 -0.3026  1.7595
 8774TIP3   OH226264   4.877   4.923   3.886 -0.2503 -0.1693 -0.6543
 8774TIP3    H126265   4.958   4.966   3.859  0.0486 -0.2007  0.1742
 8774TIP3    H226266   4.862   4.857   3.818  0.2511  0.0368 -0.9758
 8775TIP3   OH226267   4.641   2.615   1.035  0.0294  0.2131  0.5682
 8775TIP3    H126268   4.646   2.595   1.128  1.0717  0.4552  0.5793
 8775TIP3    H226269   4.692   2.546   0.992 -0.3084  0.1903  0.1928
 8776TIP3   OH226270   7.494   7.836   3.548 -0.2210  0.0230  0.6352
 8776TIP3    H126271   7.415   7.793   3.582 -0.6879  0.3291 -0.0485
 8776TIP3    H226272   7.537   7.770   3.494  0.9922 -0.7649  2.4565
 8777TIP3   OH226273   6.709   0.850   6.501  0.3710 -0.2848 -0.6651
 8777TIP3    H126274   6.749   0.902   6.431  2.4442 -1.1770 -0.2150
 8777TIP3    H226275   6.668   0.777   6.457 -1.2631  0.8896 -1.1783
 8778TIP3   OH226276   2.496   6.254   3.135  0.5003 -0.2145  0.6434
 8778TIP3    H126277   2.572   6.196   3.123  0.0622 -0.5897 -0.5126
 8778TIP3    H226278   2.525   6.339   3.100  0.0346 -0.6660 -0.9338
 8779TIP3   OH226279   7.495   7.561   3.936 -0.6977  0.0804  0.2729
 8779TIP3    H126280   7.452   7.645   3.949 -1.3974 -0.1382 -0.5643
 8779TIP3    H226281   7.587   7.578   3.954 -0.8435  1.0091  0.1650
 8780TIP3   OH226282   6.707   2.263   6.602 -0.0819 -0.8498 -0.0621
 8780TIP3    H126283   6.732   2.171   6.615  1.4015 -0.1594  2.7927
 8780TIP3    H226284   6.769   2.296   6.538  0.1982 -1.5197 -0.1482
 8781TIP3   OH226285   8.144   6.902   0.488 -0.1966  0.2086  0.0639
 8781TIP3    H126286   8.096   6.839   0.541  0.6644 -1.3199 -0.8985
 8781TIP3    H226287   8.166   6.973   0.549 -0.5933 -0.7340  1.3553
 8782TIP3   OH226288   8.123   1.662   1.465 -0.5548  0.1815 -0.0228
 8782TIP3    H126289   8.209   1.620   1.474 -1.6960 -2.2393  0.4070
 8782TIP3    H226290   8.130   1.741   1.517  1.2478 -0.2440  0.4676
 8783TIP3   OH226291   6.729   1.353   5.912 -0.2777 -0.0495  0.4664
 8783TIP3    H126292   6.727   1.262   5.940 -0.1575 -0.1515  0.1545
 8783TIP3    H226293   6.771   1.351   5.825  0.2083  0.3628  0.6826
 8784TIP3   OH226294   4.872   3.645   0.946 -0.0461  0.0522 -0.7072
 8784TIP3    H126295   4.777   3.635   0.959  0.2415  0.3528  2.1637
 8784TIP3    H226296   4.890   3.594   0.867 -2.4471 -0.8094 -0.7992
 8785TIP3   OH226297   1.241   1.289   0.784 -0.4415 -0.1424 -0.0467
 8785TIP3    H126298   1.263   1.247   0.700 -0.3283 -0.1267 -0.0250
 8785TIP3    H226299   1.154   1.326   0.769 -0.2376  0.2393 -0.3005
 8786TIP3   OH226300   1.580   7.346   5.734 -0.4502 -0.0297  0.0220
 8786TIP3    H126301   1.619   7.301   5.808  0.6336  1.2701  0.2753
 8786TIP3    H226302   1.498   7.381   5.767 -0.0132  0.4661  0.5893
 8787TIP3   OH226303   4.831   6.267   1.280  0.2250 -0.8825 -0.0069
 8787TIP3    H126304   4.743   6.286   1.311  1.0855  1.3373  1.2452
 8787TIP3    H226305   4.842   6.324   1.204  0.3551 -1.6987 -0.6162
 8788TIP3   OH226306   0.587   4.239   0.919 -0.4171  0.0032 -0.6762
 8788TIP3    H126307   0.510   4.274   0.964 -0.4263  0.0272 -0.7111
 8788TIP3    H226308   0.638   4.316   0.896  1.0959 -0.1003  1.9577
 8789TIP3   OH226309   2.721   1.581   5.695  0.3335  0.1388 -0.0715
 8789TIP3    H126310   2.679   1.499   5.718  1.2418 -0.8857 -1.8394
 8789TIP3    H226311   2.662   1.622   5.631  0.1138  0.6536  0.4491
 8790TIP3   OH226312   0.065   5.992   1.716 -0.0123 -0.0252 -0.1446
 8790TIP3    H126313  -0.006   6.042   1.676  0.2798 -0.3083 -1.0325
 8790TIP3    H226314   0.138   6.000   1.655  0.6375  0.0121  0.6151
 8791TIP3   OH226315   2.806   5.009   2.513 -0.5219  0.0642  0.0177
 8791TIP3    H126316   2.793   4.928   2.562  0.2981  0.1250  0.3432
 8791TIP3    H226317   2.764   4.992   2.428  0.8670 -1.2465 -0.4560
 8792TIP3   OH226318   1.584   1.630   0.090  0.0452  0.0286  0.1625
 8792TIP3    H126319   1.542   1.604   0.172  0.5349 -1.6949 -0.0958
 8792TIP3    H226320   1.672   1.593   0.095 -0.3225 -1.2015 -1.6568
 8793TIP3   OH226321   2.140   1.087   2.385 -0.1086  0.1430 -0.1665
 8793TIP3    H126322   2.176   1.146   2.318 -0.9026  0.4622 -0.3280
 8793TIP3    H226323   2.045   1.090   2.370 -0.1847 -0.8957  0.0591
 8794TIP3   OH226324   7.053   3.295   1.096  0.0400  0.5637  0.1621
 8794TIP3    H126325   6.962   3.325   1.088 -0.5666 -1.3989 -1.2805
 8794TIP3    H226326   7.105   3.366   1.059 -1.0752  0.9950 -0.6392
 8795TIP3   OH226327   1.617   7.577   5.546 -0.2301  0.0223  0.3603
 8795TIP3    H126328   1.651   7.500   5.593 -0.3924 -0.9267 -1.0245
 8795TIP3    H226329   1.541   7.604   5.598 -0.3125 -0.8962  0.7517
 8796TIP3   OH226330   3.417   2.271   0.342 -0.1423  0.4467  0.6848
 8796TIP3    H126331   3.349   2.208   0.317 -0.0683  0.7582 -0.3480
 8796TIP3    H226332   3.378   2.323   0.412 -1.5381  1.5723 -0.8453
 8797TIP3   OH226333   3.576   2.791   6.531  0.5474  0.1470 -0.3027
 8797TIP3    H126334   3.637   2.861   6.510 -0.2246  1.5129  1.6814
 8797TIP3    H226335   3.498   2.811   6.479  1.7741 -1.7995 -3.1144
 8798TIP3   OH226336   6.338   7.060   2.305  0.4266 -0.4244  0.2714
 8798TIP3    H126337   6.301   7.138   2.264  0.0886  0.5143  2.2583
 8798TIP3    H226338   6.274   6.991   2.286 -1.2620  0.6562  1.6422
 8799TIP3   OH226339   0.246   7.351   0.438 -0.2426  0.4216  0.0372
 8799TIP3    H126340   0.276   7.386   0.522  0.6998 -0.5799  0.1348
 8799TIP3    H226341   0.326   7.321   0.394 -0.7759  0.4877 -1.0205
 8800TIP3   OH226342   0.020   7.475   0.555 -0.1240  0.0686  0.4258
 8800TIP3    H126343   0.089   7.446   0.494 -0.4110 -0.2070  0.2289
 8800TIP3    H226344   0.054   7.451   0.641  1.3565  2.5789  0.6158
 8801TIP3   OH226345   3.423   2.448   3.095 -0.0234 -0.2346 -0.2059
 8801TIP3    H126346   3.477   2.446   3.174  1.4295  0.1501 -1.1361
 8801TIP3    H226347   3.402   2.540   3.082 -0.8289 -0.3696  0.0841
 8802TIP3   OH226348   1.829   4.845   2.963 -0.0858  0.2967  0.6120
 8802TIP3    H126349   1.917   4.877   2.980 -0.5860  0.6590  2.8552
 8802TIP3    H226350   1.817   4.854   2.868  1.8110  1.4173  0.4496
 8803TIP3   OH226351   4.403   1.033   0.983 -0.2120 -0.5856  0.1092
 8803TIP3    H126352   4.336   0.967   1.001 -0.9733  0.2306  0.3732
 8803TIP3    H226353   4.482   0.999   1.024 -0.5236 -1.4556  0.0008
 8804TIP3   OH226354   3.089   1.323   2.741  0.1006 -0.2989 -0.3450
 8804TIP3    H126355   3.017   1.318   2.678 -0.1833  1.2855 -0.1695
 8804TIP3    H226356   3.160   1.274   2.700 -0.0605  0.7503 -1.9411
 8805TIP3   OH226357   6.917   5.560   2.045 -0.0704 -0.5603  0.1693
 8805TIP3    H126358   6.876   5.537   2.128 -2.6771  3.3570  0.2057
 8805TIP3    H226359   6.968   5.639   2.065  0.7043 -0.5555 -1.6549
 8806TIP3   OH226360   7.506   2.589   3.369 -0.2815  0.5073 -0.0266
 8806TIP3    H126361   7.574   2.654   3.352 -0.1377 -0.2173 -2.7555
 8806TIP3    H226362   7.447   2.631   3.433  1.6356  1.8947  0.9105
 8807TIP3   OH226363   3.624   4.434   1.223  0.1536  0.1618 -0.5763
 8807TIP3    H126364   3.680   4.507   1.197 -0.5393  0.7850 -0.3535
 8807TIP3    H226365   3.671   4.356   1.192  0.5127  0.7364 -1.5513
 8808TIP3   OH226366   5.215   4.365   1.301  0.4110  0.3033 -0.0077
 8808TIP3    H126367   5.203   4.287   1.354  0.4189  0.3413  0.0494
 8808TIP3    H226368   5.130   4.410   1.305  0.0759 -0.2178 -0.8729
 8809TIP3   OH226369   0.973   7.481   0.565  0.4541  0.0271 -0.0737
 8809TIP3    H126370   1.028   7.470   0.487  1.3389  0.6441  0.4526
 8809TIP3    H226371   0.984   7.573   0.590 -2.0685  0.6462 -0.8657
 8810TIP3   OH226372   5.561   4.560   5.596  0.1342  0.1424 -0.3042
 8810TIP3    H126373   5.521   4.565   5.682 -2.0302 -1.7368 -1.0997
 8810TIP3    H226374   5.581   4.651   5.573  2.5066  0.5969  2.8323
 8811TIP3   OH226375   3.703   2.268   0.753  0.9839  0.4435 -0.1428
 8811TIP3    H126376   3.733   2.208   0.684  3.1449  1.2388  0.0503
 8811TIP3    H226377   3.618   2.299   0.722  0.7422 -1.1675 -1.2065
 8812TIP3   OH226378   1.685   3.375   5.859  0.1383 -0.3923 -0.3486
 8812TIP3    H126379   1.613   3.431   5.887  0.1142 -0.1308 -0.9368
 8812TIP3    H226380   1.755   3.393   5.923 -0.1116 -0.2185 -0.1217
 8813TIP3   OH226381   5.892   7.219   5.695  0.2826 -0.3854  0.4042
 8813TIP3    H126382   5.853   7.231   5.609 -0.3593  1.2514  0.8669
 8813TIP3    H226383   5.820   7.186   5.750  0.3642 -0.2869  0.5729
 8814TIP3   OH226384   0.757   3.541   5.816  0.5296  0.1246 -0.9320
 8814TIP3    H126385   0.822   3.480   5.851  1.6241  1.1425 -1.1247
 8814TIP3    H226386   0.678   3.525   5.868  1.9501  1.2772  1.7540
 8815TIP3   OH226387   1.196   0.593   5.595  0.0204 -0.3984 -0.1025
 8815TIP3    H126388   1.138   0.517   5.599  0.3356 -0.6293  0.0787
 8815TIP3    H226389   1.269   0.571   5.653 -0.2614  0.3529  0.5597
 8816TIP3   OH226390   7.327   4.544   2.467  0.1885 -0.0527 -0.6271
 8816TIP3    H126391   7.307   4.581   2.382 -0.1684  2.0740  0.3308
 8816TIP3    H226392   7.413   4.579   2.489  0.3660 -0.7398 -0.1896
 8817TIP3   OH226393   0.409   3.850   3.516  0.3444  0.3357  0.6516
 8817TIP3    H126394   0.360   3.812   3.590  1.3073  1.4213  1.8980
 8817TIP3    H226395   0.438   3.774   3.466 -1.2031 -0.3959  0.7861
 8818TIP3   OH226396   3.147   2.451   3.527  0.0570 -0.4673 -0.3446
 8818TIP3    H126397   3.219   2.398   3.492  0.6777  0.7803 -1.0193
 8818TIP3    H226398   3.161   2.538   3.489 -0.9354  0.1839  0.7370
 8819TIP3   OH226399   3.733   7.033   1.739 -0.2771  0.4546  0.4352
 8819TIP3    H126400   3.682   7.043   1.820 -0.6587  1.1271  0.1223
 8819TIP3    H226401   3.672   7.057   1.669  0.7849  2.4679  0.1278
 8820TIP3   OH226402   3.967   3.915   1.433 -0.3370  0.2190 -0.1989
 8820TIP3    H126403   3.908   3.953   1.367 -3.3845 -0.3913  1.9336
 8820TIP3    H226404   3.961   3.975   1.507  0.0954 -0.9752  0.8244
 8821TIP3   OH226405   2.193   1.845   5.995 -0.5178 -0.2989  0.0694
 8821TIP3    H126406   2.215   1.820   6.085  1.3712  2.1068  0.3653
 8821TIP3    H226407   2.277   1.851   5.950 -1.2625  0.5797 -1.2808
 8822TIP3   OH226408   5.678   0.161   6.485  0.3133 -0.1888 -0.2391
 8822TIP3    H126409   5.655   0.252   6.467  0.9662 -0.1623 -1.0199
 8822TIP3    H226410   5.598   0.112   6.468 -0.0623  0.2442  0.2615
 8823TIP3   OH226411   8.066   2.298   4.800  0.4932 -0.4992 -0.2631
 8823TIP3    H126412   8.058   2.388   4.833  0.3989 -0.2593 -0.9167
 8823TIP3    H226413   8.068   2.244   4.878 -3.3180 -0.2602  0.2107
 8824TIP3   OH226414   5.827   0.392   4.013 -0.3738 -0.5741 -0.4516
 8824TIP3    H126415   5.767   0.448   3.965 -1.0733 -0.3325  0.6578
 8824TIP3    H226416   5.775   0.314   4.034 -0.4801 -0.1501  0.9488
 8825TIP3   OH226417   1.750   0.023   2.519 -0.6009 -0.3253 -0.1995
 8825TIP3    H126418   1.717  -0.067   2.512 -1.2516  0.0426 -3.0478
 8825TIP3    H226419   1.705   0.059   2.596 -1.6114 -1.9145  0.0021
 8826TIP3   OH226420   2.413   3.455   1.060 -0.2132 -0.1285  0.3465
 8826TIP3    H126421   2.485   3.516   1.071  0.0836 -0.5262  0.6574
 8826TIP3    H226422   2.366   3.486   0.983 -0.3041  0.7243  0.7282
 8827TIP3   OH226423   1.277   7.811   4.254  0.0072 -0.3866 -0.6408
 8827TIP3    H126424   1.231   7.784   4.333 -0.3588  1.5249 -0.1382
 8827TIP3    H226425   1.212   7.864   4.206  0.9629  0.4977 -0.9958
 8828TIP3   OH226426   6.115   6.697   1.041 -0.2851 -0.5030 -0.5363
 8828TIP3    H126427   6.192   6.677   1.094  0.0327 -3.2224 -1.8550
 8828TIP3    H226428   6.149   6.706   0.952 -1.1560  1.2187 -0.7360
 8829TIP3   OH226429   4.385   6.374   0.854  0.1542 -0.5383 -0.7421
 8829TIP3    H126430   4.446   6.414   0.792 -0.1760  0.5969 -0.3513
 8829TIP3    H226431   4.367   6.443   0.919 -0.1298 -1.4379  0.1682
 8830TIP3   OH226432   0.338   5.712   5.612  0.2437  0.1945 -0.1209
 8830TIP3    H126433   0.328   5.617   5.607  1.0086  0.1747 -1.7629
 8830TIP3    H226434   0.252   5.744   5.640 -1.5039 -0.7028 -3.7974
 8831TIP3   OH226435   7.625   3.591   5.491 -0.1133  0.5510 -0.7228
 8831TIP3    H126436   7.712   3.626   5.469  0.2066  1.4129  1.6349
 8831TIP3    H226437   7.568   3.668   5.488 -0.1485  0.6112  0.7852
 8832TIP3   OH226438   2.022   6.992   0.226  0.0671 -0.4590 -0.1286
 8832TIP3    H126439   2.013   6.983   0.131 -1.1223 -0.2151 -0.0539
 8832TIP3    H226440   1.968   6.922   0.262  0.2390 -0.3372  0.3814
 8833TIP3   OH226441   1.059   1.150   2.983  0.1977  0.2593  0.1008
 8833TIP3    H126442   1.115   1.166   2.907  0.9264 -0.8941  0.3638
 8833TIP3    H226443   0.994   1.087   2.951  0.6606 -0.4252  0.4858
 8834TIP3   OH226444   1.590   2.608   4.396  0.2630  0.0891 -0.0068
 8834TIP3    H126445   1.557   2.681   4.344 -1.7440  0.2035  1.3105
 8834TIP3    H226446   1.524   2.540   4.385  1.9014 -1.4295 -0.8914
 8835TIP3   OH226447   4.384   6.180   0.509  0.0813 -0.1482 -0.1763
 8835TIP3    H126448   4.449   6.236   0.465  0.6105 -0.5796  0.0390
 8835TIP3    H226449   4.422   6.092   0.504 -0.7528 -0.4899 -0.5289
 8836TIP3   OH226450   3.364   3.459   5.769 -0.0287  0.1580 -0.5979
 8836TIP3    H126451   3.441   3.454   5.712 -0.3196 -1.1766 -0.8938
 8836TIP3    H226452   3.392   3.512   5.843  0.6753  1.0502 -1.4723
 8837TIP3   OH226453   4.293   3.735   5.810  0.4472  0.7076 -0.4347
 8837TIP3    H126454   4.321   3.819   5.848 -2.7160  1.7478 -0.1309
 8837TIP3    H226455   4.219   3.708   5.864  0.8772 -1.9147 -1.0537
 8838TIP3   OH226456   7.316   3.851   6.580 -0.1277 -0.1486 -0.0901
 8838TIP3    H126457   7.288   3.929   6.628 -0.0365 -2.0310  3.4008
 8838TIP3    H226458   7.238   3.794   6.580  0.5056 -1.0379 -0.3055
 8839TIP3   OH226459   0.357   1.322   0.787  0.2590 -0.4760  0.4690
 8839TIP3    H126460   0.376   1.406   0.827 -0.9715 -0.1785  0.4593
 8839TIP3    H226461   0.432   1.306   0.729 -1.5131  2.9047 -3.2420
 8840TIP3   OH226462   1.271   0.145   1.579  0.0950 -0.2231 -0.3582
 8840TIP3    H126463   1.355   0.185   1.600 -0.4866  0.2124  1.3431
 8840TIP3    H226464   1.265   0.148   1.483  1.1647  1.5114 -0.4080
 8841TIP3   OH226465   0.129   7.039   1.117 -0.3786 -0.2399 -0.9014
 8841TIP3    H126466   0.222   7.026   1.135 -0.2209  0.6882 -0.9998
 8841TIP3    H226467   0.086   6.965   1.160  0.2679  0.1171  0.4259
 8842TIP3   OH226468   6.189   3.701   0.827  0.5261  0.4624 -0.3112
 8842TIP3    H126469   6.117   3.637   0.830  0.5901  0.3860 -0.4302
 8842TIP3    H226470   6.249   3.666   0.762  0.6021  0.6018 -0.3149
 8843TIP3   OH226471   4.799   5.558   3.718  0.5139  0.5116  0.5378
 8843TIP3    H126472   4.749   5.560   3.636  0.8912  0.3779  0.2999
 8843TIP3    H226473   4.747   5.610   3.779 -1.5689 -2.2456  1.2758
 8844TIP3   OH226474   0.674   6.543   2.396  0.5513  0.1695 -0.0276
 8844TIP3    H126475   0.720   6.516   2.316 -0.0745 -0.3352 -0.2255
 8844TIP3    H226476   0.584   6.557   2.369 -0.4400 -3.0659  1.1072
 8845TIP3   OH226477   7.512   3.608   3.198 -0.3000 -0.0055  0.2593
 8845TIP3    H126478   7.481   3.683   3.247 -1.1517 -0.7444  0.8974
 8845TIP3    H226479   7.530   3.541   3.264 -0.1651 -0.5716 -0.3309
 8846TIP3   OH226480   0.183   7.078   2.727  0.2238 -0.2105  0.3656
 8846TIP3    H126481   0.101   7.046   2.763  0.1921  0.1488  0.6196
 8846TIP3    H226482   0.250   7.021   2.765  0.1819  0.1110  0.9258
 8847TIP3   OH226483   0.385   0.915   3.375  0.2214 -0.0667  0.4673
 8847TIP3    H126484   0.304   0.901   3.425 -0.1724 -2.2190 -0.6661
 8847TIP3    H226485   0.447   0.852   3.412  0.7021  0.0727 -0.1021
 8848TIP3   OH226486   5.653   7.040   0.118  0.6749 -0.1366 -0.6443
 8848TIP3    H126487   5.670   6.950   0.088 -1.4437 -1.1939  1.0138
 8848TIP3    H226488   5.566   7.060   0.084  1.3508  1.5702 -1.4725
 8849TIP3   OH226489   7.683   4.625   0.624  0.4171  0.2922  0.5744
 8849TIP3    H126490   7.649   4.666   0.544 -1.7106  0.8735  1.7187
 8849TIP3    H226491   7.757   4.680   0.650 -0.8110  1.9479  0.6846
 8850TIP3   OH226492   0.397   2.620   3.967 -0.1641 -0.4621 -0.1878
 8850TIP3    H126493   0.473   2.567   3.943 -0.1865 -0.6493  0.1407
 8850TIP3    H226494   0.427   2.670   4.043 -0.0567  0.2000 -0.6575
 8851TIP3   OH226495   7.121   6.981   6.564 -0.1264 -0.3755 -0.3439
 8851TIP3    H126496   7.103   6.887   6.554 -2.1683 -0.2484  1.2570
 8851TIP3    H226497   7.189   7.000   6.500 -1.1322 -2.5119 -2.1822
 8852TIP3   OH226498   1.684   1.553   2.812  0.0649  0.2006 -0.2568
 8852TIP3    H126499   1.591   1.567   2.833 -0.4460 -0.4709 -1.9026
 8852TIP3    H226500   1.688   1.557   2.717  1.7605  0.2717 -0.2144
 8853TIP3   OH226501   0.924   0.654   4.850  0.3794  0.9308 -0.3026
 8853TIP3    H126502   0.876   0.697   4.780  0.7365 -1.6046 -2.2465
 8853TIP3    H226503   1.004   0.706   4.860  0.6314  1.0150 -2.2842
 8854TIP3   OH226504   7.910   0.289   1.784  0.0004  0.2240 -0.1922
 8854TIP3    H126505   7.829   0.313   1.828  0.1467  0.5922 -0.1135
 8854TIP3    H226506   7.954   0.373   1.768 -0.3557  0.1710 -1.6322
 8855TIP3   OH226507   1.929   2.516   0.101 -0.3922  0.1050  0.0628
 8855TIP3    H126508   1.876   2.464   0.162 -0.7291 -0.3872 -0.6293
 8855TIP3    H226509   1.913   2.475   0.016  1.4368 -0.3165 -0.1160
 8856TIP3   OH226510   6.873   0.222   0.887 -0.7382  0.6642 -0.2365
 8856TIP3    H126511   6.894   0.290   0.951  0.3431 -1.5223  1.8752
 8856TIP3    H226512   6.954   0.210   0.836 -0.3214 -0.2328  0.6048
 8857TIP3   OH226513   4.353   5.967   5.451 -0.8064  0.3540  0.4285
 8857TIP3    H126514   4.400   6.049   5.460 -1.0494  0.5735 -0.2563
 8857TIP3    H226515   4.421   5.899   5.455 -0.1832  0.7206 -2.1195
 8858TIP3   OH226516   1.467   1.048   6.247 -0.1252 -0.3395  0.0914
 8858TIP3    H126517   1.426   1.092   6.321 -1.0985 -0.3229 -0.4514
 8858TIP3    H226518   1.517   0.976   6.287 -0.1789  0.0115  0.8015
 8859TIP3   OH226519   7.433   3.964   1.357  0.7109  0.5100  0.0374
 8859TIP3    H126520   7.385   3.898   1.407 -0.0910  0.3508 -0.9039
 8859TIP3    H226521   7.395   3.959   1.269 -1.2694  3.9771  0.5168
 8860TIP3   OH226522   0.460   4.699   2.124  0.4248 -0.6090 -0.3512
 8860TIP3    H126523   0.394   4.743   2.178 -0.4030 -1.6463 -0.4695
 8860TIP3    H226524   0.466   4.752   2.044  1.7311  0.9964  0.7481
 8861TIP3   OH226525   2.897   0.136   2.179 -0.3240  0.0368 -0.4126
 8861TIP3    H126526   2.902   0.227   2.209 -0.9156  0.6371 -2.0012
 8861TIP3    H226527   2.980   0.120   2.134  0.1817 -0.5478  0.7046
 8862TIP3   OH226528   7.525   5.363   2.992 -0.5957 -0.6314 -0.2522
 8862TIP3    H126529   7.486   5.322   3.069  0.3940 -0.4612  0.3634
 8862TIP3    H226530   7.619   5.348   3.002 -0.4722 -0.8612 -1.5831
 8863TIP3   OH226531   4.401   5.219   2.513 -0.1562  0.5014 -0.4888
 8863TIP3    H126532   4.450   5.142   2.484  1.0302  1.4815 -1.2091
 8863TIP3    H226533   4.377   5.200   2.603 -0.3501 -0.9242 -0.8135
 8864TIP3   OH226534   4.730   1.014   3.026 -0.3607  0.1897  0.5655
 8864TIP3    H126535   4.678   0.955   2.972  1.4632 -0.8386 -0.1471
 8864TIP3    H226536   4.714   1.101   2.989 -0.4106 -0.2956 -0.5873
 8865TIP3   OH226537   2.456   2.967   5.704  0.2315  0.1795 -0.0079
 8865TIP3    H126538   2.497   2.995   5.785 -0.1301  2.7062 -0.6005
 8865TIP3    H226539   2.362   2.979   5.719  0.1242  0.0679 -0.5645
 8866TIP3   OH226540   2.781   7.723   3.996 -0.5813  0.0460  0.2682
 8866TIP3    H126541   2.817   7.665   3.929  1.9632 -0.5301  1.9688
 8866TIP3    H226542   2.821   7.808   3.977 -0.9179  0.1998  0.2558
 8867TIP3   OH226543   7.507   5.096   0.053 -0.1597 -0.0397 -0.5693
 8867TIP3    H126544   7.500   5.100  -0.043  0.0411  1.8489 -0.5437
 8867TIP3    H226545   7.421   5.124   0.084 -0.1202 -0.3363 -0.1820
 8868TIP3   OH226546   6.895   3.190   2.259  0.4344  0.1907 -0.1713
 8868TIP3    H126547   6.946   3.148   2.190 -0.3606 -1.7520  0.3634
 8868TIP3    H226548   6.926   3.149   2.340  0.3144  1.3618  0.4878
 8869TIP3   OH226549   3.370   2.677   3.203 -0.7617 -0.1314  0.0227
 8869TIP3    H126550   3.386   2.747   3.141 -1.2119  0.4303  0.5306
 8869TIP3    H226551   3.318   2.717   3.273  1.0294 -0.3553  1.5514
 8870TIP3   OH226552   7.751   2.234   5.053  0.2689 -0.0939 -0.1391
 8870TIP3    H126553   7.838   2.214   5.019  0.3492  1.1397 -0.7087
 8870TIP3    H226554   7.728   2.317   5.012 -0.9010 -0.0716  0.5274
 8871TIP3   OH226555   3.035   5.987   1.174 -0.0352  0.1867 -0.0476
 8871TIP3    H126556   3.057   5.977   1.082 -0.7958  1.7444 -0.4184
 8871TIP3    H226557   2.942   6.008   1.175  0.2509  1.5790  0.9612
 8872TIP3   OH226558   5.303   6.887   3.132 -0.5151 -0.6220  0.0289
 8872TIP3    H126559   5.222   6.936   3.117  0.0302 -0.2328 -1.8377
 8872TIP3    H226560   5.303   6.819   3.065  0.5216 -0.8698  0.2651
 8873TIP3   OH226561   6.262   2.566   6.247  0.2036  0.5344  0.2547
 8873TIP3    H126562   6.250   2.520   6.330 -1.3419 -0.2099 -0.3394
 8873TIP3    H226563   6.355   2.557   6.227  0.4678  0.1493  1.5643
 8874TIP3   OH226564   0.152   3.776   6.400  0.0844  0.4595 -0.1235
 8874TIP3    H126565   0.199   3.716   6.340  0.2190  1.2806 -0.8551
 8874TIP3    H226566   0.065   3.737   6.409 -0.0103  0.4376 -1.0326
 8875TIP3   OH226567   6.011   3.490   3.827  0.3113  0.2357  0.3467
 8875TIP3    H126568   5.940   3.537   3.871 -0.0219 -0.8178  0.9868
 8875TIP3    H226569   6.070   3.559   3.796 -0.6271  1.1019  0.4268
 8876TIP3   OH226570   0.692   4.972   4.651 -0.1722  0.2031 -0.6683
 8876TIP3    H126571   0.728   4.926   4.727 -2.7056 -0.4640  0.2254
 8876TIP3    H226572   0.616   5.020   4.685 -1.7488 -0.5677 -2.8231
 8877TIP3   OH226573   1.239   1.632   0.869  0.1864  0.3828 -0.0269
 8877TIP3    H126574   1.159   1.650   0.918  0.1384  0.4891 -0.1457
 8877TIP3    H226575   1.250   1.537   0.876  0.3494  0.4384  0.4521
 8878TIP3   OH226576   2.622   2.061   5.901 -0.4522 -0.1128  0.0627
 8878TIP3    H126577   2.605   2.052   5.807  0.4981  0.6034 -0.1895
 8878TIP3    H226578   2.712   2.031   5.913 -0.9792 -1.4389  0.9754
 8879TIP3   OH226579   6.326   4.344   6.425 -0.1952  0.7186 -0.5349
 8879TIP3    H126580   6.240   4.318   6.457  0.4356  1.1133  1.5927
 8879TIP3    H226581   6.311   4.428   6.381 -0.7300  1.4400  0.9499
 8880TIP3   OH226582   1.456   3.824   4.829 -0.5089 -0.4121 -0.0389
 8880TIP3    H126583   1.481   3.848   4.919  0.0314  0.3436 -0.3806
 8880TIP3    H226584   1.490   3.736   4.817 -1.0515 -0.7281  0.6786
 8881TIP3   OH226585   3.584   3.332   2.743  0.0631 -0.1112  0.0238
 8881TIP3    H126586   3.577   3.247   2.700 -2.6856  0.0755 -0.0334
 8881TIP3    H226587   3.555   3.315   2.833  0.4277  0.5853  0.2755
 8882TIP3   OH226588   4.771   6.711   0.271 -0.1153 -0.0480  0.6590
 8882TIP3    H126589   4.864   6.699   0.254 -0.2891 -0.5624  0.0317
 8882TIP3    H226590   4.746   6.636   0.325 -0.4063 -0.5595 -0.1575
 8883TIP3   OH226591   0.748   7.606   5.216  0.2286 -0.1044  0.0733
 8883TIP3    H126592   0.719   7.579   5.129  0.4465 -0.5085  0.1273
 8883TIP3    H226593   0.735   7.529   5.271  1.3887 -0.2863  0.1073
 8884TIP3   OH226594   5.386   2.711   0.709  0.4484  0.0499  0.0269
 8884TIP3    H126595   5.318   2.742   0.650  1.0768  1.6026  0.0443
 8884TIP3    H226596   5.379   2.769   0.785  0.4577 -1.1156  0.9296
 8885TIP3   OH226597   4.679   5.585   3.211  0.1729 -0.1670 -0.2715
 8885TIP3    H126598   4.643   5.513   3.159  0.0825 -0.8842  0.7517
 8885TIP3    H226599   4.605   5.618   3.261  0.7805 -1.3348  1.4784
 8886TIP3   OH226600   4.779   1.286   5.196  0.1865 -0.0219  0.1302
 8886TIP3    H126601   4.747   1.346   5.128 -0.9817  0.7733  1.3364
 8886TIP3    H226602   4.856   1.244   5.157 -1.6530 -1.2226 -2.5382
 8887TIP3   OH226603   3.508   3.059   3.568 -0.1068 -0.4128 -0.5527
 8887TIP3    H126604   3.576   3.110   3.524  1.5085 -1.8298  0.2108
 8887TIP3    H226605   3.553   3.017   3.641 -1.8792 -1.1641  0.1559
 8888TIP3   OH226606   7.500   1.962   3.910 -0.3973  0.3211 -0.6772
 8888TIP3    H126607   7.534   1.982   3.998 -1.8292 -1.4149  0.3377
 8888TIP3    H226608   7.425   2.021   3.900 -2.0104 -1.3938  0.5462
 8889TIP3   OH226609   5.745   2.149   2.452  0.6830 -0.2135  0.1008
 8889TIP3    H126610   5.768   2.103   2.371 -0.5301  2.2691 -1.8159
 8889TIP3    H226611   5.821   2.206   2.469 -0.4126  1.8210 -1.4009
 8890TIP3   OH226612   0.391   4.255   6.391  0.5744  0.1774 -0.3518
 8890TIP3    H126613   0.436   4.245   6.307  1.2422  0.0102  0.0123
 8890TIP3    H226614   0.360   4.167   6.411  1.1107  0.0491 -0.0538
 8891TIP3   OH226615   2.781   5.747   5.802 -0.1368 -0.0726  0.2619
 8891TIP3    H126616   2.754   5.788   5.884  0.3522  2.3596 -0.7023
 8891TIP3    H226617   2.709   5.689   5.779 -0.7851  0.0653  1.8184
 8892TIP3   OH226618   2.871   2.097   2.830 -0.2042 -0.0882 -0.0402
 8892TIP3    H126619   2.894   2.007   2.853  1.0561  0.4384  0.8577
 8892TIP3    H226620   2.798   2.118   2.888  2.9622  1.2455  3.9646
 8893TIP3   OH226621   6.912   6.156   1.787 -0.8344  0.4118  0.4948
 8893TIP3    H126622   6.922   6.138   1.693  1.8962 -0.4577  0.8493
 8893TIP3    H226623   6.916   6.252   1.792  0.1298  0.4384 -0.2408
 8894TIP3   OH226624   3.251   2.544   4.068  0.1318 -0.2278  0.6944
 8894TIP3    H126625   3.160   2.554   4.039  0.3032 -0.2958  0.1354
 8894TIP3    H226626   3.274   2.455   4.044 -0.0036 -0.5834  1.8311
 8895TIP3   OH226627   7.672   6.591   3.764  0.2124  0.2629 -0.3179
 8895TIP3    H126628   7.702   6.517   3.710  1.4335 -0.0485  0.7524
 8895TIP3    H226629   7.751   6.626   3.804 -0.7497 -0.3388  2.3028
 8896TIP3   OH226630   0.590   4.583   5.448  0.0482 -0.3210  0.8159
 8896TIP3    H126631   0.627   4.615   5.365 -0.4829  1.1915  1.1356
 8896TIP3    H226632   0.643   4.506   5.469  0.9175 -0.0813 -0.3658
 8897TIP3   OH226633   0.737   4.670   0.104  0.1821 -0.5370 -0.3879
 8897TIP3    H126634   0.681   4.718   0.043  0.9875  0.7574 -0.1556
 8897TIP3    H226635   0.697   4.684   0.190 -0.7425 -2.0503 -0.5335
 8898TIP3   OH226636   3.625   0.599   2.307 -0.0934  0.6010  0.0660
 8898TIP3    H126637   3.710   0.628   2.273 -0.7598  1.7915 -0.6226
 8898TIP3    H226638   3.563   0.665   2.277 -1.1845  0.0534  1.0517
 8899TIP3   OH226639   2.057   3.669   0.229 -0.6573 -0.3947  0.5365
 8899TIP3    H126640   2.128   3.706   0.282  0.9404 -1.1959 -0.9441
 8899TIP3    H226641   2.040   3.736   0.163  0.8268 -1.3802 -0.9081
 8900TIP3   OH226642   7.926   7.513   5.713  0.2184 -0.1322 -0.2041
 8900TIP3    H126643   8.007   7.516   5.764  0.3388 -1.1625 -0.3160
 8900TIP3    H226644   7.879   7.436   5.746 -0.8514  0.5890  0.0394
 8901TIP3   OH226645   4.429   5.045   3.998  0.3026  0.0244  0.4609
 8901TIP3    H126646   4.443   5.041   3.904 -1.4134 -0.4046  0.1825
 8901TIP3    H226647   4.406   4.955   4.022 -1.2994  0.5236  0.9005
 8902TIP3   OH226648   4.145   4.311   1.646  0.4768 -0.4098  0.2186
 8902TIP3    H126649   4.097   4.386   1.680  0.8523 -0.5240  1.0251
 8902TIP3    H226650   4.233   4.344   1.629  1.1662 -1.0530  2.2617
 8903TIP3   OH226651   6.834   5.502   4.694 -0.5270 -0.2265  0.2702
 8903TIP3    H126652   6.840   5.476   4.786 -0.4625 -0.9424  0.0679
 8903TIP3    H226653   6.869   5.591   4.692  0.6615 -0.6567  0.7491
 8904TIP3   OH226654   2.654   6.791   6.125 -0.9443  0.4077  0.6906
 8904TIP3    H126655   2.676   6.882   6.143  0.8076  0.8240 -2.7192
 8904TIP3    H226656   2.720   6.740   6.173  0.7784  1.1935 -0.7595
 8905TIP3   OH226657   3.309   5.994   3.990 -0.1313  0.2399 -0.2510
 8905TIP3    H126658   3.308   5.961   4.081 -0.3445  1.4103  0.1836
 8905TIP3    H226659   3.320   6.088   3.999  0.0934  0.3377 -1.4679
 8906TIP3   OH226660   5.099   2.506   4.108 -0.2620  0.1908  0.0737
 8906TIP3    H126661   5.051   2.423   4.109  0.9283 -0.5077  0.5886
 8906TIP3    H226662   5.191   2.481   4.107  0.1325  1.5019  0.9043
 8907TIP3   OH226663   2.287   2.484   0.407 -0.3799  0.5518  0.3520
 8907TIP3    H126664   2.378   2.459   0.426 -1.1529 -0.5305  3.2473
 8907TIP3    H226665   2.237   2.403   0.417 -1.8518  1.4384  0.5389
 8908TIP3   OH226666   7.505   3.857   3.811 -0.1642 -0.6764 -0.0683
 8908TIP3    H126667   7.477   3.789   3.750 -1.8717 -1.2854  1.2994
 8908TIP3    H226668   7.431   3.918   3.814  0.3905 -0.0130  0.4855
 8909TIP3   OH226669   5.837   0.720   4.212  0.3614  0.0788 -0.1660
 8909TIP3    H126670   5.907   0.714   4.148 -0.8626 -1.8585 -1.4153
 8909TIP3    H226671   5.780   0.790   4.180 -1.4487 -2.3094 -2.5994
 8910TIP3   OH226672   1.241   1.130   1.030  0.5483 -0.6074  0.6727
 8910TIP3    H126673   1.154   1.094   1.014  1.2183 -1.8130 -0.4463
 8910TIP3    H226674   1.257   1.188   0.956  0.4984  0.0267  1.1511
 8911TIP3   OH226675   0.421   7.661   0.518 -0.4016  0.3075 -0.3903
 8911TIP3    H126676   0.438   7.584   0.572 -0.4085  0.0092 -0.8082
 8911TIP3    H226677   0.325   7.669   0.518 -0.4041  0.2766 -0.4017
 8912TIP3   OH226678   6.637   4.785   3.185 -0.2722 -0.7050 -0.2504
 8912TIP3    H126679   6.696   4.710   3.180 -0.7965 -1.2107  0.8509
 8912TIP3    H226680   6.689   4.855   3.224 -0.0954 -0.8120 -0.2934
 8913TIP3   OH226681   1.964   4.908   3.716  0.0883 -0.1931  0.3211
 8913TIP3    H126682   1.975   4.950   3.631 -0.0412  0.3280  0.5562
 8913TIP3    H226683   2.029   4.838   3.717  0.2717 -0.0335 -0.1015
 8914TIP3   OH226684   4.632   6.728   3.777  0.3775 -0.5751  0.8761
 8914TIP3    H126685   4.703   6.665   3.761  1.7855  1.1573  0.0126
 8914TIP3    H226686   4.558   6.673   3.803  1.9740 -2.4738  1.7156
 8915TIP3   OH226687   5.804   1.952   4.967 -0.0145  0.0392 -0.1751
 8915TIP3    H126688   5.894   1.918   4.964  0.6109  1.6394 -0.8950
 8915TIP3    H226689   5.753   1.890   4.915  1.1704  0.3970 -1.8518
 8916TIP3   OH226690   0.647   0.368   3.761  0.3528 -0.3719  0.3752
 8916TIP3    H126691   0.699   0.288   3.762 -2.2942 -2.2712 -1.1705
 8916TIP3    H226692   0.561   0.341   3.727 -2.2414  2.1994  4.0514
 8917TIP3   OH226693   0.054   1.023   4.496  0.2197  0.4086 -0.2116
 8917TIP3    H126694   0.124   1.080   4.463  0.0160  1.2680  0.7654
 8917TIP3    H226695  -0.026   1.061   4.461  0.1246  0.3893 -0.0177
 8918TIP3   OH226696   5.686   1.646   6.650  0.8472 -0.0590 -0.1325
 8918TIP3    H126697   5.711   1.570   6.703  0.2340  0.4476  0.9251
 8918TIP3    H226698   5.603   1.621   6.608  0.0846  0.3638  1.0493
 8919TIP3   OH226699   7.753   4.329   4.961  0.2363  0.2848 -0.4664
 8919TIP3    H126700   7.749   4.407   5.016 -1.3467 -0.0860 -0.0055
 8919TIP3    H226701   7.716   4.357   4.877  0.6758  0.3016 -0.6571
 8920TIP3   OH226702   4.370   0.132   4.401  0.1337 -0.5554  0.2005
 8920TIP3    H126703   4.392   0.170   4.316  0.6370 -2.5288 -0.5959
 8920TIP3    H226704   4.412   0.190   4.465 -2.8163  2.8060 -0.6024
 8921TIP3   OH226705   2.309   3.820   3.208 -0.0584 -0.2671  0.0950
 8921TIP3    H126706   2.221   3.810   3.244  0.0929 -1.5479  0.1448
 8921TIP3    H226707   2.355   3.874   3.272 -0.5795 -0.2342  0.4503
 8922TIP3   OH226708   3.565   0.549   4.927  0.1503  0.6004  0.0482
 8922TIP3    H126709   3.510   0.470   4.932 -0.0291  0.7426  0.3241
 8922TIP3    H226710   3.508   0.616   4.890  0.1231  0.7611  0.3796
 8923TIP3   OH226711   0.993   1.537   4.165  0.9648 -0.3733 -0.5829
 8923TIP3    H126712   1.018   1.494   4.247 -2.1641 -1.7622 -0.1951
 8923TIP3    H226713   1.024   1.627   4.174 -0.6329 -0.0110  2.9378
 8924TIP3   OH226714   7.472   5.163   3.594 -0.0782 -1.0717 -0.2061
 8924TIP3    H126715   7.548   5.221   3.594  0.0369 -1.1182 -2.9084
 8924TIP3    H226716   7.434   5.174   3.682  2.0181  0.2634  0.6160
 8925TIP3   OH226717   6.406   7.772   5.240  0.0399 -0.2033  0.1384
 8925TIP3    H126718   6.413   7.853   5.189 -2.5863  0.9849  1.4621
 8925TIP3    H226719   6.477   7.777   5.304  1.1851 -0.0080 -1.1037
 8926TIP3   OH226720   3.571   2.573   0.197  0.4230 -0.3724  0.6198
 8926TIP3    H126721   3.580   2.592   0.291 -0.3670  0.3994  0.5499
 8926TIP3    H226722   3.497   2.626   0.169  0.1838 -1.1629 -0.2944
 8927TIP3   OH226723   2.770   7.640   3.414  0.3390  0.6102 -0.6491
 8927TIP3    H126724   2.705   7.618   3.480  1.1053 -0.6485 -0.2803
 8927TIP3    H226725   2.795   7.731   3.435 -0.4949  0.7271 -0.1336
 8928TIP3   OH226726   3.707   2.289   5.394  1.1067 -0.1967  0.3073
 8928TIP3    H126727   3.781   2.244   5.434  1.8082  0.4930 -0.1699
 8928TIP3    H226728   3.723   2.382   5.413  2.1212  0.3133 -2.4941
 8929TIP3   OH226729   6.603   1.215   5.090 -0.2519  0.2347  0.5342
 8929TIP3    H126730   6.630   1.306   5.097  0.7281  0.1652 -1.7177
 8929TIP3    H226731   6.571   1.205   5.001 -2.0586 -1.2281  1.2594
 8930TIP3   OH226732   0.597   1.326   0.037  0.3274 -0.1475  0.3073
 8930TIP3    H126733   0.555   1.283   0.112 -1.8805 -1.1276 -1.3760
 8930TIP3    H226734   0.588   1.264  -0.035  1.0572  1.3397 -1.1438
 8931TIP3   OH226735   3.768   2.276   5.116 -0.0696  0.2011 -0.0518
 8931TIP3    H126736   3.848   2.311   5.157 -0.0945 -0.1294  0.2860
 8931TIP3    H226737   3.726   2.225   5.186 -0.9889  1.0156  0.0165
 8932TIP3   OH226738   7.527   1.293   6.100  0.5247 -0.2499 -0.6809
 8932TIP3    H126739   7.567   1.221   6.150  2.1717  0.4624 -0.8896
 8932TIP3    H226740   7.489   1.350   6.167  0.2144 -0.7297 -0.4426
 8933TIP3   OH226741   2.419   2.789   6.738  0.0684 -0.5164 -0.7246
 8933TIP3    H126742   2.506   2.773   6.700  0.3539 -1.2387  0.2036
 8933TIP3    H226743   2.364   2.720   6.700  0.5567 -1.8013  0.7837
 8934TIP3   OH226744   2.165   3.277   3.179 -0.9371 -0.3202  0.4557
 8934TIP3    H126745   2.147   3.369   3.198 -0.9819 -0.6562  2.2491
 8934TIP3    H226746   2.166   3.271   3.084 -1.0912  1.5007  0.3142
 8935TIP3   OH226747   8.185   4.331   3.655  0.4377 -0.6302 -0.0698
 8935TIP3    H126748   8.111   4.275   3.679 -1.8502  1.6575 -1.2243
 8935TIP3    H226749   8.257   4.271   3.640 -1.2302 -3.0340  0.8953
 8936TIP3   OH226750   7.291   2.419   2.750 -0.3177 -0.2841  0.5179
 8936TIP3    H126751   7.330   2.383   2.830  0.1888 -1.2822 -0.1480
 8936TIP3    H226752   7.200   2.389   2.751 -0.3650 -0.1300  0.8163
 8937TIP3   OH226753   0.928   1.482   1.631  0.2957 -0.1963 -0.4748
 8937TIP3    H126754   0.869   1.545   1.673  0.9750 -0.2312  0.5853
 8937TIP3    H226755   0.974   1.533   1.564  0.7523  0.4248  0.2903
 8938TIP3   OH226756   1.713   7.383   1.412 -0.2714 -0.3852 -0.0089
 8938TIP3    H126757   1.759   7.373   1.496  0.3565 -0.9868 -0.4152
 8938TIP3    H226758   1.622   7.359   1.432 -0.4554  0.9361  0.8325
 8939TIP3   OH226759   3.806   7.343   1.639  0.3414  0.0418  0.2569
 8939TIP3    H126760   3.870   7.274   1.654 -0.0137 -0.1773  0.7641
 8939TIP3    H226761   3.727   7.314   1.685  0.6911  1.5540  1.8920
 8940TIP3   OH226762   1.892   4.643   2.061  0.2789  0.3641  0.1661
 8940TIP3    H126763   1.931   4.721   2.101 -0.1022  0.8114 -0.3026
 8940TIP3    H226764   1.956   4.615   1.996 -0.7007  1.9247 -1.5955
 8941TIP3   OH226765   5.111   3.811   2.169  0.3625 -0.0450  0.0598
 8941TIP3    H126766   5.174   3.822   2.097  0.0418  0.3030 -0.1759
 8941TIP3    H226767   5.094   3.717   2.172 -0.5169  0.0462 -1.1112
 8942TIP3   OH226768   3.163   5.346   3.937 -0.2613  0.0875  0.5118
 8942TIP3    H126769   3.220   5.402   3.990  0.6236 -0.5568  0.2680
 8942TIP3    H226770   3.220   5.275   3.907 -0.9110  0.0386 -0.6903
 8943TIP3   OH226771   1.833   2.981   3.362 -0.1401 -0.0430  0.2710
 8943TIP3    H126772   1.826   2.894   3.322  1.2856  0.1756 -0.5131
 8943TIP3    H226773   1.919   2.981   3.405  0.2419  1.2379 -0.4403
 8944TIP3   OH226774   7.213   0.715   5.020  0.0024 -0.3016  0.5376
 8944TIP3    H126775   7.277   0.699   4.950 -1.0668 -0.0257 -0.5357
 8944TIP3    H226776   7.245   0.795   5.064  2.4419 -2.1771  2.5096
 8945TIP3   OH226777   0.156   7.491   2.018  0.1235 -0.1253 -0.6098
 8945TIP3    H126778   0.191   7.576   1.993  0.1896  0.2196  0.6274
 8945TIP3    H226779   0.108   7.461   1.940 -0.4565  1.3347 -0.8384
 8946TIP3   OH226780   0.083   2.866   6.581 -0.1463  0.2897 -0.0032
 8946TIP3    H126781  -0.010   2.858   6.601 -0.3843  0.2093 -1.0506
 8946TIP3    H226782   0.100   2.792   6.522  0.4898  0.5310 -0.1245
 8947TIP3   OH226783   2.223   2.384   0.774  0.2553  0.5007  0.1011
 8947TIP3    H126784   2.221   2.319   0.704  0.1849  0.7522 -0.1319
 8947TIP3    H226785   2.286   2.349   0.837  1.4466  0.9747 -0.7854
 8948TIP3   OH226786   4.459   6.470   4.504  0.5034 -0.4914 -0.0267
 8948TIP3    H126787   4.484   6.537   4.440  0.3609 -1.8194 -1.5100
 8948TIP3    H226788   4.542   6.431   4.531  0.5019 -0.4316  0.0686
 8949TIP3   OH226789   5.176   1.421   1.868  0.1279  0.1211  0.1666
 8949TIP3    H126790   5.260   1.387   1.836  1.5072  0.6412  2.9394
 8949TIP3    H226791   5.186   1.516   1.864  0.0670  0.1915  1.3643
 8950TIP3   OH226792   7.640   7.680   6.521 -0.8492  0.5081  0.2486
 8950TIP3    H126793   7.688   7.692   6.603 -1.2882  0.9582  0.4448
 8950TIP3    H226794   7.576   7.612   6.541 -1.0812  0.7509  0.3371
 8951TIP3   OH226795   7.435   0.472   0.444 -0.0246  0.2366 -0.2274
 8951TIP3    H126796   7.517   0.512   0.415  0.7205 -2.0041 -1.3756
 8951TIP3    H226797   7.374   0.546   0.450  2.1377  2.0605  1.1523
 8952TIP3   OH226798   6.273   6.661   6.541  0.2756 -0.0480 -0.0640
 8952TIP3    H126799   6.218   6.636   6.615  0.8886 -2.3855 -0.3315
 8952TIP3    H226800   6.359   6.678   6.579  0.2272  0.1859 -0.0597
 8953TIP3   OH226801   1.689   5.930   4.390 -0.4950  0.1568 -0.0159
 8953TIP3    H126802   1.626   5.950   4.321  1.6902  0.4398 -2.0320
 8953TIP3    H226803   1.732   6.013   4.409  0.4077 -0.3306  0.1297
 8954TIP3   OH226804   1.949   6.586   6.173 -0.4028  0.1945  0.6127
 8954TIP3    H126805   2.037   6.621   6.185 -0.0583 -0.7274  0.8385
 8954TIP3    H226806   1.955   6.532   6.094 -0.7012 -0.0898  0.7812
 8955TIP3   OH226807   1.931   1.427   3.819  0.2863 -0.4008 -0.3438
 8955TIP3    H126808   1.989   1.503   3.823  0.9824 -0.7729 -2.3037
 8955TIP3    H226809   1.924   1.408   3.725  0.1139 -2.7260  0.0946
 8956TIP3   OH226810   3.412   6.434   2.275 -0.2630 -0.1613  0.1273
 8956TIP3    H126811   3.336   6.474   2.316  0.6165  2.2301 -0.4133
 8956TIP3    H226812   3.486   6.490   2.300  0.8764 -0.7709 -1.6166
 8957TIP3   OH226813   0.613   4.111   0.263  0.8018  0.0312 -0.0014
 8957TIP3    H126814   0.687   4.061   0.298  0.0773 -1.0328  0.0615
 8957TIP3    H226815   0.639   4.203   0.272  1.5914 -0.2889  1.1975
 8958TIP3   OH226816   7.540   0.126   1.261  0.0020 -0.1639 -0.3813
 8958TIP3    H126817   7.486   0.046   1.261 -1.8353  1.0018  0.6822
 8958TIP3    H226818   7.477   0.197   1.277  1.7907  1.3513  0.2341
 8959TIP3   OH226819   1.494   2.409   3.373 -0.2896 -0.1867 -0.1082
 8959TIP3    H126820   1.473   2.321   3.341 -0.3151 -0.3956  0.4739
 8959TIP3    H226821   1.446   2.416   3.456  0.5049  0.0011  0.3439
 8960TIP3   OH226822   8.049   4.402   4.941  0.3318  0.0790 -0.6139
 8960TIP3    H126823   8.134   4.358   4.935 -1.2345 -3.5793  0.6845
 8960TIP3    H226824   7.992   4.351   4.884 -1.1484  2.1544 -1.0798
 8961TIP3   OH226825   8.278   4.527   2.372 -0.2328 -0.2328  0.0270
 8961TIP3    H126826   8.223   4.482   2.436 -0.2354 -0.4569 -0.1300
 8961TIP3    H226827   8.360   4.478   2.372  0.4755  0.8813  1.2254
 8962TIP3   OH226828   5.344   5.112   2.396 -0.1866  0.2066 -0.1118
 8962TIP3    H126829   5.410   5.055   2.357 -1.0649 -0.1433 -1.1413
 8962TIP3    H226830   5.292   5.144   2.322 -0.4345  1.4323  0.5568
 8963TIP3   OH226831   8.143   1.538   4.747  0.1786 -0.3840 -0.0835
 8963TIP3    H126832   8.157   1.594   4.670 -0.2528 -1.0465 -0.6618
 8963TIP3    H226833   8.136   1.449   4.711  0.4371 -0.7636  0.7732
 8964TIP3   OH226834   5.035   6.747   0.159  0.1634 -0.2420  0.2570
 8964TIP3    H126835   4.959   6.717   0.108 -1.2094  1.2989  1.2971
 8964TIP3    H226836   5.108   6.744   0.097 -1.2753  0.7871 -1.6154
 8965TIP3   OH226837   1.526   1.341   3.377 -0.6019  0.4116 -0.0676
 8965TIP3    H126838   1.609   1.294   3.374 -0.3452  0.8622 -2.3839
 8965TIP3    H226839   1.530   1.393   3.457  1.1449  0.0822  0.0976
 8966TIP3   OH226840   1.149   1.323   2.518  0.4894 -0.1866 -0.3314
 8966TIP3    H126841   1.084   1.384   2.551 -0.0788  2.0771 -4.7592
 8966TIP3    H226842   1.105   1.277   2.446  2.6310 -1.5228 -0.9097
 8967TIP3   OH226843   3.394   4.273   6.372  0.1229 -0.9034 -0.2759
 8967TIP3    H126844   3.314   4.229   6.402  1.1877 -2.3661  0.5741
 8967TIP3    H226845   3.404   4.348   6.430  0.1894 -1.6187  0.6573
 8968TIP3   OH226846   7.367   4.089   3.831  0.3205 -0.1516  0.1911
 8968TIP3    H126847   7.299   4.139   3.786  0.3840 -0.6413 -0.4535
 8968TIP3    H226848   7.400   4.149   3.898  0.4450  0.7050 -0.6225
 8969TIP3   OH226849   6.030   0.043   1.413 -0.7400  0.1889 -0.3013
 8969TIP3    H126850   6.073   0.128   1.399 -1.3447  0.9534  1.9291
 8969TIP3    H226851   5.944   0.065   1.447 -0.8868 -1.3098  0.3810
 8970TIP3   OH226852   5.571   3.056   4.362  0.0752 -0.9632  0.0545
 8970TIP3    H126853   5.515   3.053   4.440  0.2424  0.3705  0.2561
 8970TIP3    H226854   5.645   3.112   4.388 -0.3706  0.3370 -1.3433
 8971TIP3   OH226855   8.260   7.517   0.074 -0.1165  0.2756  0.0341
 8971TIP3    H126856   8.342   7.543   0.116 -0.0386  0.8738 -0.4646
 8971TIP3    H226857   8.268   7.549  -0.016 -1.3580  1.3917  0.2873
 8972TIP3   OH226858   7.316   5.604   1.068 -0.5863 -0.1766 -0.5444
 8972TIP3    H126859   7.337   5.513   1.090  2.3754  0.7125  0.8782
 8972TIP3    H226860   7.238   5.623   1.120 -0.0944 -1.3593  0.7023
 8973TIP3   OH226861   7.680   0.596   0.322 -0.4835 -0.2661  0.1858
 8973TIP3    H126862   7.677   0.678   0.273 -1.3464  0.6217  1.6719
 8973TIP3    H226863   7.748   0.545   0.278 -0.2296  1.0517 -1.0366
 8974TIP3   OH226864   1.839   7.845   3.493  0.0290  0.3420  1.1584
 8974TIP3    H126865   1.800   7.758   3.497  0.5562 -0.0171 -0.6760
 8974TIP3    H226866   1.866   7.863   3.583  1.2084 -1.9991  1.3653
 8975TIP3   OH226867   4.523   5.951   6.463 -0.1627  0.8121  0.4780
 8975TIP3    H126868   4.466   5.926   6.390 -1.0632  0.0922  1.4100
 8975TIP3    H226869   4.471   6.010   6.517  0.0585  0.3669  1.1934
 8976TIP3   OH226870   4.694   5.753   6.538  0.1511 -0.8191  0.3529
 8976TIP3    H126871   4.697   5.773   6.631  0.6054  0.2589  0.1164
 8976TIP3    H226872   4.645   5.825   6.499  1.9255 -0.0372 -0.5346
 8977TIP3   OH226873   6.200   5.701   3.424 -0.1996 -0.9229  0.3848
 8977TIP3    H126874   6.282   5.652   3.434  0.3847 -0.0074  0.1806
 8977TIP3    H226875   6.215   5.784   3.470  1.0397  1.6405 -4.0211
 8978TIP3   OH226876   4.075   4.598   6.447  0.1975 -0.3803 -0.4737
 8978TIP3    H126877   4.130   4.528   6.412 -0.6286 -0.2095 -2.2542
 8978TIP3    H226878   4.055   4.652   6.370 -1.0510  0.4986  0.4473
 8979TIP3   OH226879   0.517   1.853   5.107  0.1049 -0.0035 -0.2745
 8979TIP3    H126880   0.603   1.835   5.146 -0.0946  1.4372  0.9130
 8979TIP3    H226881   0.501   1.779   5.049  1.6334 -0.8768  0.3650
 8980TIP3   OH226882   1.318   1.633   5.960  0.5749  0.7754 -0.0112
 8980TIP3    H126883   1.269   1.608   6.039  0.0189  1.0107 -0.2769
 8980TIP3    H226884   1.304   1.560   5.900  0.8391  0.6846  0.0374
 8981TIP3   OH226885   2.244   3.899   4.503  0.8180 -0.0267 -0.0651
 8981TIP3    H126886   2.161   3.916   4.460  1.5796  0.5870 -1.3534
 8981TIP3    H226887   2.231   3.817   4.550  0.0006 -0.8480 -1.6591
 8982TIP3   OH226888   5.515   3.839   2.283  0.2470  0.0985  0.4073
 8982TIP3    H126889   5.525   3.912   2.222  0.6372 -0.3591 -0.0915
 8982TIP3    H226890   5.578   3.858   2.353 -0.4801  0.8234  0.8811
 8983TIP3   OH226891   7.190   7.371   2.078  0.0879 -0.2812 -0.4599
 8983TIP3    H126892   7.102   7.333   2.074  0.3966 -1.3684  1.4413
 8983TIP3    H226893   7.177   7.459   2.115 -0.1622 -0.7838  0.7051
 8984TIP3   OH226894   3.922   3.101   1.611  0.6081 -0.2239 -1.3670
 8984TIP3    H126895   3.966   3.084   1.695 -1.3006 -0.7867 -0.4052
 8984TIP3    H226896   3.980   3.162   1.565  1.1436  1.0926  0.8923
 8985TIP3   OH226897   6.098   5.585   5.097 -0.5350 -0.1343 -0.4716
 8985TIP3    H126898   6.112   5.663   5.149 -1.2672  0.3859 -1.0407
 8985TIP3    H226899   6.115   5.512   5.157  3.1766  0.3696 -0.6749
 8986TIP3   OH226900   2.489   6.198   5.393  0.4112  0.9689 -0.0548
 8986TIP3    H126901   2.400   6.175   5.419  1.0003 -0.1780  1.0288
 8986TIP3    H226902   2.478   6.251   5.314 -1.1986  0.2516 -0.3461
 8987TIP3   OH226903   7.556   0.039   2.116 -0.2944 -0.0372 -0.1257
 8987TIP3    H126904   7.530  -0.035   2.061 -0.0054 -1.1443  1.1585
 8987TIP3    H226905   7.632   0.077   2.071 -1.6443  0.7620 -1.8349
 8988TIP3   OH226906   2.082   1.569   0.839  0.1805  0.6377  0.1740
 8988TIP3    H126907   2.153   1.516   0.801  0.3043  1.6159 -1.0124
 8988TIP3    H226908   2.124   1.651   0.862 -0.4011  0.9154  0.2510
 8989TIP3   OH226909   4.064   5.606   2.422  0.2633  0.1080 -0.1298
 8989TIP3    H126910   4.113   5.649   2.352 -1.0156  3.0501  0.6003
 8989TIP3    H226911   3.982   5.578   2.381  0.7497 -0.9325 -0.4215
 8990TIP3   OH226912   6.218   7.147   6.001  0.3678 -0.7113  0.4224
 8990TIP3    H126913   6.300   7.196   6.007 -0.0455 -0.1296  1.5664
 8990TIP3    H226914   6.245   7.056   5.985  1.2144 -0.4889  0.5660
 8991TIP3   OH226915   2.636   0.792   0.987 -0.4745  1.3294 -0.0083
 8991TIP3    H126916   2.580   0.856   1.031 -0.2708  1.0242  0.7044
 8991TIP3    H226917   2.643   0.824   0.897 -0.9803  1.9052  0.1536
 8992TIP3   OH226918   3.529   2.927   5.589  0.2375  0.1257  0.1514
 8992TIP3    H126919   3.564   2.988   5.524 -0.8960 -1.1175 -1.7300
 8992TIP3    H226920   3.606   2.885   5.626  0.9201  0.7163 -0.5393
 8993TIP3   OH226921   0.075   2.811   2.067 -1.0217  0.2603 -0.2272
 8993TIP3    H126922  -0.006   2.766   2.090 -0.5340 -0.1272  0.7803
 8993TIP3    H226923   0.137   2.741   2.047 -1.3141  0.5690 -2.4407
 8994TIP3   OH226924   3.584   7.073   4.152  0.0569 -0.2164  0.4313
 8994TIP3    H126925   3.638   6.997   4.128  0.8506  0.5313 -0.1979
 8994TIP3    H226926   3.647   7.143   4.169 -0.6979  0.5878 -0.0092
 8995TIP3   OH226927   4.621   4.469   5.638 -0.0314 -0.1794  0.2242
 8995TIP3    H126928   4.646   4.443   5.726 -0.4433 -0.8509  0.1511
 8995TIP3    H226929   4.684   4.537   5.614  0.2491 -0.1832  0.9294
 8996TIP3   OH226930   4.578   3.616   4.378  0.0442 -0.0680 -0.2209
 8996TIP3    H126931   4.544   3.529   4.356  0.7055 -0.4510  0.2489
 8996TIP3    H226932   4.659   3.624   4.328 -0.1190  0.3693 -0.4246
 8997TIP3   OH226933   6.610  -0.027   1.575 -0.3328 -0.0925 -0.0285
 8997TIP3    H126934   6.553   0.043   1.606 -0.0968  0.1094 -0.0422
 8997TIP3    H226935   6.636   0.001   1.487 -0.5144 -0.3672 -0.1724
 8998TIP3   OH226936   6.532   1.847   2.858  0.4329  0.3387 -0.6542
 8998TIP3    H126937   6.616   1.877   2.894 -0.1296  0.7963  0.3252
 8998TIP3    H226938   6.516   1.904   2.783 -0.1546  1.9204  0.6083
 8999TIP3   OH226939   0.386   1.757   1.287  0.3192 -0.2383  0.6897
 8999TIP3    H126940   0.385   1.711   1.371  0.1930  0.0700  0.8597
 8999TIP3    H226941   0.297   1.746   1.253  0.0709  0.4983  1.0762
 9000TIP3   OH226942   2.126   5.298   3.644 -0.0287  0.5406 -0.2067
 9000TIP3    H126943   2.168   5.229   3.594 -0.4890 -0.1968  0.4019
 9000TIP3    H226944   2.083   5.353   3.578  0.0659  0.0577 -0.6745
 9001TIP3   OH226945   0.558   0.185   1.531  0.2320  0.4511  0.8576
 9001TIP3    H126946   0.618   0.201   1.604  2.6071 -2.7861 -0.1352
 9001TIP3    H226947   0.595   0.109   1.487 -1.7717  1.4928 -3.0351
 9002TIP3   OH226948   8.094   4.512   5.618  0.6070  0.0290 -0.1160
 9002TIP3    H126949   8.018   4.545   5.570  0.6398  0.9000  0.4253
 9002TIP3    H226950   8.058   4.450   5.681  0.4502 -0.2696 -0.4927
 9003TIP3   OH226951   5.194   1.474   0.773  0.1289 -0.1048  0.0935
 9003TIP3    H126952   5.201   1.409   0.703 -0.6374 -0.8017  0.6414
 9003TIP3    H226953   5.261   1.539   0.753 -0.7178  0.2308 -1.8291
 9004TIP3   OH226954   2.167   3.245   3.769 -0.4093  0.5891 -0.0600
 9004TIP3    H126955   2.073   3.228   3.774 -0.5013  1.0369 -0.2430
 9004TIP3    H226956   2.179   3.287   3.684  0.3438 -1.8639 -1.2740
 9005TIP3   OH226957   6.148   2.808   2.105 -0.0217  0.6018  0.5876
 9005TIP3    H126958   6.070   2.843   2.061 -1.2102 -0.0676  2.0663
 9005TIP3    H226959   6.131   2.714   2.113  1.7852  0.1161 -0.6515
 9006TIP3   OH226960   0.526   2.622   4.578 -0.3058 -0.1901  0.0030
 9006TIP3    H126961   0.587   2.633   4.652 -0.7204  0.9133  0.2074
 9006TIP3    H226962   0.569   2.559   4.520  1.6483  1.4972 -0.4846
 9007TIP3   OH226963   6.461   0.386   3.276 -0.2045 -0.0055  0.1098
 9007TIP3    H126964   6.509   0.452   3.325  0.3657  1.0086 -1.7150
 9007TIP3    H226965   6.369   0.412   3.283  0.1532  2.6343 -2.6720
 9008TIP3   OH226966   4.400   0.707   3.078  0.3914 -0.1783 -0.4274
 9008TIP3    H126967   4.462   0.695   3.006 -1.1602 -0.2500 -1.8057
 9008TIP3    H226968   4.381   0.801   3.079  0.4178 -0.1750 -0.1053
 9009TIP3   OH226969   0.073   3.749   1.342 -0.6353  0.3213 -0.1289
 9009TIP3    H126970   0.068   3.684   1.272  0.8716 -0.1210  0.1388
 9009TIP3    H226971   0.015   3.717   1.410  0.9976 -1.4334  0.5106
 9010TIP3   OH226972   7.503   2.495   1.291 -0.0087  0.5540  0.2676
 9010TIP3    H126973   7.549   2.497   1.208  0.0363 -0.6934  0.2410
 9010TIP3    H226974   7.541   2.421   1.338 -0.9576  0.4109  0.8487
 9011TIP3   OH226975   5.411   1.857   1.749  0.4925  0.1008  0.2207
 9011TIP3    H126976   5.375   1.850   1.660  1.6139  1.0283 -0.3294
 9011TIP3    H226977   5.438   1.948   1.757  0.8823 -0.1016  1.3369
 9012TIP3   OH226978   6.694   7.761   6.021 -0.1739  0.4193 -0.6689
 9012TIP3    H126979   6.633   7.757   5.947 -0.3307 -1.5068 -0.4659
 9012TIP3    H226980   6.739   7.845   6.010  0.8200 -0.3757 -3.7752
 9013TIP3   OH226981   4.263   7.082   5.465  0.0456 -0.4957  0.2015
 9013TIP3    H126982   4.279   7.051   5.554  1.2959  1.0572  0.5624
 9013TIP3    H226983   4.206   7.015   5.427  0.8611 -2.0886  1.5962
 9014TIP3   OH226984   7.270   4.845   0.299 -0.5509  0.0435 -0.0336
 9014TIP3    H126985   7.329   4.900   0.351 -0.4437  0.7170 -0.8467
 9014TIP3    H226986   7.323   4.818   0.223 -0.7467 -0.8114  0.1155
 9015TIP3   OH226987   7.111   4.221   3.832 -0.5117  0.2198  0.0183
 9015TIP3    H126988   7.026   4.250   3.801  1.2015  2.5045 -3.0915
 9015TIP3    H226989   7.163   4.301   3.839  2.0490 -1.2734 -0.6035
 9016TIP3   OH226990   0.711   5.219   5.918  0.1243  0.2469 -0.5759
 9016TIP3    H126991   0.747   5.152   5.977  0.9227  1.0055 -0.1817
 9016TIP3    H226992   0.774   5.291   5.922 -1.5946  1.7839  0.3986
 9017TIP3   OH226993   7.204   1.498   6.178 -0.5051 -0.2160  0.2270
 9017TIP3    H126994   7.235   1.430   6.237 -1.8300 -2.1353 -1.1552
 9017TIP3    H226995   7.132   1.540   6.225 -0.1059 -0.2053  0.8341
 9018TIP3   OH226996   1.343   5.511   0.381  0.4520  0.6329 -0.0162
 9018TIP3    H126997   1.366   5.431   0.429  0.4166  0.1854 -0.7266
 9018TIP3    H226998   1.250   5.501   0.360  0.3930  0.9637  0.0724
 9019TIP3   OH226999   8.048   2.226   1.162  0.1121  0.1747 -0.2488
 9019TIP3    H127000   7.991   2.249   1.088  0.1324  0.8355 -0.0623
 9019TIP3    H227001   8.103   2.155   1.128  0.9035  1.2166 -1.2481
 9020TIP3   OH227002   1.374   6.004   4.604 -0.2705 -0.0049 -0.2071
 9020TIP3    H127003   1.343   5.914   4.607 -0.2774  0.0247  0.7794
 9020TIP3    H227004   1.428   6.014   4.682 -0.2207  0.8302 -0.3347
 9021TIP3   OH227005   2.416   0.653   3.485 -0.1612  0.0053 -0.2837
 9021TIP3    H127006   2.338   0.704   3.462  0.0489  0.3324 -0.2817
 9021TIP3    H227007   2.401   0.567   3.446 -0.7870 -0.1206  0.2098
 9022TIP3   OH227008   1.913   6.875   1.428 -0.3637 -0.5677  0.3537
 9022TIP3    H127009   1.861   6.841   1.501 -1.5280  1.0214  0.3268
 9022TIP3    H227010   1.891   6.968   1.425  0.1403 -0.4724 -1.6296
 9023TIP3   OH227011   7.519   3.518   5.021  0.2774 -0.0645  0.7543
 9023TIP3    H127012   7.467   3.559   5.090 -0.0494  0.4183  0.2294
 9023TIP3    H227013   7.606   3.558   5.030 -0.6539  2.8746 -1.3972
 9024TIP3   OH227014   2.660   3.666   4.116 -0.5096  0.5839 -0.0837
 9024TIP3    H127015   2.596   3.691   4.049  0.1779  0.3392 -0.8513
 9024TIP3    H227016   2.666   3.571   4.109 -1.1493  0.4528  1.0060
 9025TIP3   OH227017   3.284   1.812   0.724 -0.3008 -0.3774  0.5709
 9025TIP3    H127018   3.250   1.742   0.669  0.9418 -0.1353 -0.5580
 9025TIP3    H227019   3.334   1.867   0.664 -1.5315  1.6970  1.3508
 9026TIP3   OH227020   0.425   3.807   4.385  0.3759  0.1910  0.0279
 9026TIP3    H127021   0.365   3.737   4.359  0.4153  0.4069 -0.6658
 9026TIP3    H227022   0.494   3.763   4.434 -0.1401 -0.1123  0.4897
 9027TIP3   OH227023   2.399   2.543   6.259  0.7719  0.1551  0.1906
 9027TIP3    H127024   2.428   2.519   6.171  0.7444  0.0927  0.1986
 9027TIP3    H227025   2.479   2.538   6.312  1.4416  2.9542 -0.3689
 9028TIP3   OH227026   8.297   1.119   0.237  0.4973 -0.6635 -0.2116
 9028TIP3    H127027   8.235   1.167   0.292  1.4828  0.2619  0.1305
 9028TIP3    H227028   8.372   1.178   0.227  1.3158 -1.7229 -0.6468
 9029TIP3   OH227029   0.247   4.513   2.069  0.4045  0.2396  0.0027
 9029TIP3    H127030   0.317   4.578   2.061  0.8045 -0.1265  0.4316
 9029TIP3    H227031   0.197   4.521   1.988 -0.0338  1.6305  0.3800
 9030TIP3   OH227032   6.621   2.436   4.646 -1.2678  0.0262 -0.4042
 9030TIP3    H127033   6.638   2.530   4.644  0.4987 -0.2667 -0.3416
 9030TIP3    H227034   6.706   2.395   4.631 -1.3971 -1.6067  2.5645
 9031TIP3   OH227035   0.880   0.886   3.757 -0.0241  0.4583 -0.1092
 9031TIP3    H127036   0.956   0.910   3.704 -0.2889  0.8387 -0.3237
 9031TIP3    H227037   0.805   0.917   3.706 -0.4593 -1.7887 -0.9551
 9032TIP3   OH227038   7.197   6.277   3.055  0.5394  0.1558 -0.0970
 9032TIP3    H127039   7.263   6.235   2.999  0.3880  0.5599 -0.5895
 9032TIP3    H227040   7.122   6.290   2.997  0.1931  0.1152  0.3412
 9033TIP3   OH227041   1.274   2.745   6.064 -0.3952 -0.3972  0.3561
 9033TIP3    H127042   1.291   2.798   5.987  2.2108 -0.8563  0.5180
 9033TIP3    H227043   1.300   2.800   6.138 -2.0456 -0.2742  0.8851
 9034TIP3   OH227044   6.257   1.173   5.625  0.2105 -0.4307  0.1282
 9034TIP3    H127045   6.240   1.193   5.533 -0.8772  1.3854  0.6816
 9034TIP3    H227046   6.304   1.249   5.658  0.2356 -0.8975  1.1941
 9035TIP3   OH227047   2.749   3.257   4.952 -0.6142  0.1876  0.0297
 9035TIP3    H127048   2.822   3.243   5.013 -0.1679  1.0401 -0.2795
 9035TIP3    H227049   2.712   3.170   4.938 -0.0324 -0.1746  0.6675
 9036TIP3   OH227050   5.771   6.656   0.322 -0.0974 -0.1319 -0.2169
 9036TIP3    H127051   5.765   6.659   0.418  0.5281 -1.0278 -0.1310
 9036TIP3    H227052   5.862   6.678   0.303 -0.0892 -0.4674 -0.5751
 9037TIP3   OH227053   7.840   2.259   0.689 -0.2731 -0.3128 -0.1215
 9037TIP3    H127054   7.932   2.286   0.685 -0.7838  1.4344 -0.8302
 9037TIP3    H227055   7.843   2.171   0.728  1.7473 -0.5934 -0.7707
 9038TIP3   OH227056   7.455   3.644   3.616  0.3471  0.0017 -0.4328
 9038TIP3    H127057   7.456   3.563   3.666  0.0911  0.3189  0.0889
 9038TIP3    H227058   7.533   3.639   3.560  0.1408 -0.7611 -0.6619
 9039TIP3   OH227059   0.297   4.763   4.428  0.0948 -0.2961  0.1975
 9039TIP3    H127060   0.297   4.786   4.336 -0.2674 -0.5008  0.1458
 9039TIP3    H227061   0.390   4.756   4.451  0.2102  0.8488  0.1277
 9040TIP3   OH227062   4.417   4.937   1.513  0.3832 -0.4076  0.1578
 9040TIP3    H127063   4.416   4.901   1.602 -1.5199  0.1606  0.4122
 9040TIP3    H227064   4.324   4.947   1.490  0.7834  2.7759 -0.5240
 9041TIP3   OH227065   6.543   3.249   4.210 -0.0776  0.1037  0.5837
 9041TIP3    H127066   6.496   3.229   4.129 -2.0327  3.7015  0.6514
 9041TIP3    H227067   6.605   3.318   4.186  0.3205  0.2246  1.8934
 9042TIP3   OH227068   2.634   5.135   0.931  0.0529 -0.3295  0.1781
 9042TIP3    H127069   2.590   5.118   1.014 -0.6577  0.1314 -0.0945
 9042TIP3    H227070   2.699   5.065   0.924 -0.4797 -0.8950  0.6984
 9043TIP3   OH227071   3.720   6.646   5.579 -0.3604 -0.0584 -1.0104
 9043TIP3    H127072   3.634   6.612   5.555 -0.1635 -1.1000 -0.3231
 9043TIP3    H227073   3.722   6.641   5.675  1.2108 -2.1113 -1.0621
 9044TIP3   OH227074   3.823   0.943   5.799  0.1939  0.3752  0.6363
 9044TIP3    H127075   3.747   0.964   5.854 -0.4640 -0.9357  0.2717
 9044TIP3    H227076   3.786   0.918   5.715  1.1569  1.5801 -0.1748
 9045TIP3   OH227077   0.983   5.659   1.980  0.1194 -0.2172 -0.5049
 9045TIP3    H127078   0.917   5.709   1.932  0.0980  1.2620  0.9369
 9045TIP3    H227079   1.043   5.726   2.013  0.5566 -1.2221  0.8267
 9046TIP3   OH227080   4.381   1.475   0.145  0.2345 -0.7369  0.1475
 9046TIP3    H127081   4.290   1.451   0.126  0.4054 -1.3059  0.0442
 9046TIP3    H227082   4.395   1.446   0.235 -0.2140  0.9100  0.7796
 9047TIP3   OH227083   1.175   5.625   0.758 -0.3950 -0.1775  0.2886
 9047TIP3    H127084   1.231   5.648   0.684 -2.1708  1.6239 -0.5848
 9047TIP3    H227085   1.110   5.564   0.721  0.9647 -2.4089  1.3325
 9048TIP3   OH227086   7.605   3.263   2.650  0.0417  0.7426  0.3401
 9048TIP3    H127087   7.680   3.258   2.591 -0.3758  0.4006 -0.1785
 9048TIP3    H227088   7.625   3.199   2.718 -0.1499  0.0391 -0.2483
 9049TIP3   OH227089   5.714   7.655   5.488  0.1985  0.2943 -0.3920
 9049TIP3    H127090   5.681   7.646   5.578 -2.0546 -1.2613 -1.2691
 9049TIP3    H227091   5.804   7.622   5.492 -0.0070 -0.1953  1.2133
 9050TIP3   OH227092   1.049   0.799   2.440 -0.2363 -0.7724  0.3594
 9050TIP3    H127093   1.131   0.834   2.407 -0.1754 -1.9717 -0.8792
 9050TIP3    H227094   1.005   0.763   2.362 -1.6385 -0.7169  1.0909
 9051TIP3   OH227095   0.261   6.713   6.794 -0.5336 -0.2982 -0.4880
 9051TIP3    H127096   0.319   6.684   6.724 -0.8322  0.1909 -0.9388
 9051TIP3    H227097   0.189   6.650   6.792 -1.0498  0.3070 -1.2929
 9052TIP3   OH227098   3.930   0.789   5.462  0.4661 -0.5285 -0.1306
 9052TIP3    H127099   3.913   0.748   5.378 -0.6489  0.5214 -0.4365
 9052TIP3    H227100   3.935   0.883   5.443  1.6846 -0.3846  0.7515
 9053TIP3   OH227101   2.655   7.826   6.038  0.8978  0.0379  0.2563
 9053TIP3    H127102   2.702   7.829   6.122 -0.0937  1.0571  0.8077
 9053TIP3    H227103   2.563   7.820   6.063  0.5782  0.4799 -0.7612
 9054TIP3   OH227104   1.679   2.982   0.591 -0.5293  0.2790 -0.6553
 9054TIP3    H127105   1.763   2.938   0.581  0.4112  2.2275 -1.8719
 9054TIP3    H227106   1.628   2.954   0.515  0.5450  2.2021 -2.1491
 9055TIP3   OH227107   4.413   7.182   0.774 -0.1259  0.2237  0.1559
 9055TIP3    H127108   4.411   7.127   0.853 -0.4827  0.8271  0.5742
 9055TIP3    H227109   4.480   7.248   0.793  2.9700 -2.1341 -1.7731
 9056TIP3   OH227110   1.076   0.544   3.364  0.2050  0.7311  0.4173
 9056TIP3    H127111   0.983   0.525   3.356  0.1846  0.3914  1.3561
 9056TIP3    H227112   1.080   0.635   3.393  0.1995  0.9785 -0.3212
 9057TIP3   OH227113   5.904   1.538   3.948 -0.0951  0.5158 -0.2742
 9057TIP3    H127114   5.841   1.610   3.949 -0.5392  0.1680 -1.2832
 9057TIP3    H227115   5.909   1.512   3.855  2.0336  0.9734 -0.3460
 9058TIP3   OH227116   2.777   3.919   0.193  0.0622 -0.6683 -0.4178
 9058TIP3    H127117   2.870   3.898   0.179  1.0831  1.9989  1.5556
 9058TIP3    H227118   2.765   3.908   0.287 -0.1160  3.8353  0.2910
 9059TIP3   OH227119   5.793   7.066   3.649  0.1702 -0.1274  0.1635
 9059TIP3    H127120   5.755   7.114   3.575  0.8452  0.3228  0.0941
 9059TIP3    H227121   5.882   7.045   3.621  0.7419  0.8214  1.1683
 9060TIP3   OH227122   3.403   6.934   2.911  0.0522  0.3227 -0.6974
 9060TIP3    H127123   3.378   6.849   2.945 -0.8327  1.1611  0.8738
 9060TIP3    H227124   3.474   6.916   2.849 -1.8827 -1.7721 -2.4583
 9061TIP3   OH227125   5.996   5.130   4.231 -0.1162 -0.1128  0.2766
 9061TIP3    H127126   5.976   5.079   4.152 -1.8116 -2.6432  2.1688
 9061TIP3    H227127   6.056   5.075   4.281 -0.2947  0.7300  1.4542
 9062TIP3   OH227128   7.419   3.775   5.473 -0.1854  0.3287 -0.0358
 9062TIP3    H127129   7.348   3.796   5.412  1.2362  0.7614 -1.5994
 9062TIP3    H227130   7.483   3.845   5.460  1.0284 -0.6508  0.5309
 9063TIP3   OH227131   6.630   2.557   4.334  0.0377  0.1187 -0.1826
 9063TIP3    H127132   6.649   2.618   4.262 -2.7427  0.1314 -1.0047
 9063TIP3    H227133   6.713   2.550   4.381  1.2189  2.2917 -1.7401
 9064TIP3   OH227134   0.368   0.086   2.294 -0.2660 -0.8006 -0.0843
 9064TIP3    H127135   0.286   0.124   2.326 -0.4702 -1.0008 -0.3616
 9064TIP3    H227136   0.379   0.007   2.346 -0.8422 -1.3769 -0.8129
 9065TIP3   OH227137   7.392   5.895   5.969 -0.2699  0.1636  0.3186
 9065TIP3    H127138   7.393   5.821   6.029 -0.0242  0.4027  0.6172
 9065TIP3    H227139   7.333   5.869   5.899 -0.1608 -0.3251  0.4056
 9066TIP3   OH227140   4.563   1.539   1.400 -0.0052 -0.5732 -0.6076
 9066TIP3    H127141   4.655   1.537   1.429  0.1686 -3.0089 -1.1848
 9066TIP3    H227142   4.513   1.511   1.477 -0.3024  0.5744 -0.3511
 9067TIP3   OH227143   6.487   4.724   4.018  0.5365 -0.4804  0.3076
 9067TIP3    H127144   6.535   4.643   4.034 -0.4182 -0.6718  2.4826
 9067TIP3    H227145   6.418   4.725   4.084 -0.3457  1.4493 -0.5586
 9068TIP3   OH227146   6.875   6.894   5.040  0.0655 -0.2593 -0.2138
 9068TIP3    H127147   6.856   6.801   5.034 -0.9097 -0.0974  0.0820
 9068TIP3    H227148   6.869   6.927   4.950 -0.9010 -0.2613 -0.1647
 9069TIP3   OH227149   7.213   2.337   5.391  0.0810  0.2870  0.1086
 9069TIP3    H127150   7.216   2.298   5.479  1.5036  0.1983  0.0341
 9069TIP3    H227151   7.251   2.424   5.401  2.4301 -0.5449 -0.7877
 9070TIP3   OH227152   5.944   6.196   6.706  0.7810 -0.6834  0.5907
 9070TIP3    H127153   6.000   6.268   6.733  0.3273  1.5858 -3.6237
 9070TIP3    H227154   5.865   6.204   6.759  1.0303  1.5704  0.6960
 9071TIP3   OH227155   5.022   3.411   2.991 -0.4410  0.5047  0.0444
 9071TIP3    H127156   4.981   3.424   3.077 -0.0360 -2.5224  0.7968
 9071TIP3    H227157   4.950   3.392   2.932 -0.5406  0.3215  0.2235
 9072TIP3   OH227158   7.112   3.375   4.503 -0.3299 -0.1489 -0.7552
 9072TIP3    H127159   7.055   3.354   4.429  0.9505  0.3027 -1.9167
 9072TIP3    H227160   7.198   3.342   4.477  0.0691 -0.3190  0.7114
 9073TIP3   OH227161   1.509   2.896   3.589  0.2083 -0.5773  0.6086
 9073TIP3    H127162   1.454   2.975   3.583  0.0450 -0.7748 -0.6155
 9073TIP3    H227163   1.450   2.828   3.622 -0.1974 -0.6898 -0.3216
 9074TIP3   OH227164   5.725   5.944   5.652 -0.4069 -0.4650  0.2390
 9074TIP3    H127165   5.747   5.958   5.745  4.0925  0.2701 -0.7098
 9074TIP3    H227166   5.700   6.031   5.621 -1.8478 -0.6970  0.6708
 9075TIP3   OH227167   3.928   2.964   2.526 -0.4474 -0.2359  0.0536
 9075TIP3    H127168   3.865   2.999   2.464 -0.2594  1.9796  1.0070
 9075TIP3    H227169   3.881   2.897   2.574 -1.4265 -0.0431 -0.6158
 9076TIP3   OH227170   5.045   6.193   1.441 -0.6468 -0.0441  0.7772
 9076TIP3    H127171   4.971   6.238   1.400  1.3485  0.4906 -2.6370
 9076TIP3    H227172   5.019   6.101   1.443 -1.9260  0.2981  0.9939
 9077TIP3   OH227173   7.713   6.264   3.557  0.1359 -0.1277 -0.5563
 9077TIP3    H127174   7.763   6.198   3.509  0.6548  0.3658 -0.7185
 9077TIP3    H227175   7.775   6.298   3.622 -0.5587 -0.7853  0.4673
 9078TIP3   OH227176   7.283   6.482   6.314 -0.1355 -0.1389  0.4613
 9078TIP3    H127177   7.368   6.498   6.354  1.7989 -0.8162 -2.9561
 9078TIP3    H227178   7.241   6.568   6.311  0.2599  0.1632  2.4344
 9079TIP3   OH227179   5.626   6.150   5.504  0.5807  0.4021 -0.3095
 9079TIP3    H127180   5.720   6.167   5.493  0.5100  0.2109 -1.3512
 9079TIP3    H227181   5.588   6.170   5.419 -0.2450 -0.0664 -0.0629
 9080TIP3   OH227182   5.469   1.954   4.632 -0.3196  0.0334 -0.7005
 9080TIP3    H127183   5.493   2.046   4.621  1.0630 -0.3063 -0.6418
 9080TIP3    H227184   5.538   1.916   4.685 -0.7944 -1.0860 -0.8381
 9081TIP3   OH227185   7.610   1.875   2.907  0.2180 -0.8268 -0.7999
 9081TIP3    H127186   7.533   1.916   2.867 -1.8720 -1.8561  1.9122
 9081TIP3    H227187   7.593   1.781   2.900  1.6633 -1.1092 -0.8516
 9082TIP3   OH227188   2.692   3.516   5.024 -0.2648  0.1298 -0.6152
 9082TIP3    H127189   2.699   3.424   4.998 -1.6797  0.2708 -1.5725
 9082TIP3    H227190   2.618   3.519   5.084  0.3406  0.5229  0.1386
 9083TIP3   OH227191   1.113   5.372   0.641 -0.0853 -0.2531 -0.1284
 9083TIP3    H127192   1.096   5.278   0.647  0.6045 -0.3408  0.8052
 9083TIP3    H227193   1.183   5.381   0.576 -0.3704 -0.3542 -0.4480
 9084TIP3   OH227194   1.370   0.617   4.426  0.5627  0.2906 -0.9786
 9084TIP3    H127195   1.436   0.553   4.451  1.6229  0.7005 -2.5212
 9084TIP3    H227196   1.394   0.641   4.336 -1.4431  0.7863 -1.4238
 9085TIP3   OH227197   2.233   6.007   6.385 -0.1694 -0.2927  0.5501
 9085TIP3    H127198   2.254   6.100   6.377 -0.5974 -0.2722 -0.4824
 9085TIP3    H227199   2.285   5.977   6.459  0.8168  0.5339  0.2171
 9086TIP3   OH227200   3.204   4.513   2.048  0.0192 -0.2409  0.5887
 9086TIP3    H127201   3.233   4.429   2.013  1.0164  1.1050 -2.1062
 9086TIP3    H227202   3.270   4.536   2.114  0.7452 -0.7565  0.0504
 9087TIP3   OH227203   8.066   3.127   2.018  0.0074  0.2558  0.0816
 9087TIP3    H127204   8.056   3.133   1.923 -0.8817 -0.6791  0.1006
 9087TIP3    H227205   7.978   3.144   2.053  0.0962 -0.4663  0.6794
 9088TIP3   OH227206   3.015   1.049   1.492  0.1651  0.0465 -0.7670
 9088TIP3    H127207   3.083   1.040   1.558 -0.2489  0.1588 -0.3236
 9088TIP3    H227208   2.964   0.968   1.498 -0.0498  0.1826 -0.7470
 9089TIP3   OH227209   1.080   5.475   3.527 -0.0504  0.3007 -0.0486
 9089TIP3    H127210   1.013   5.516   3.583 -0.0163 -0.3705  0.4842
 9089TIP3    H227211   1.138   5.547   3.504 -0.2221  0.6403  0.5516
 9090TIP3   OH227212   7.674   0.549   4.281  0.2026 -0.4506 -0.4532
 9090TIP3    H127213   7.676   0.521   4.373 -0.0708 -0.3120 -0.4029
 9090TIP3    H227214   7.766   0.546   4.253  0.0979 -2.1954 -0.7015
 9091TIP3   OH227215   2.458   5.011   4.641  0.3164  0.3108  0.1638
 9091TIP3    H127216   2.451   5.069   4.718 -1.1332  1.7842 -1.0021
 9091TIP3    H227217   2.368   4.982   4.625  0.7338 -0.6685 -0.4883
 9092TIP3   OH227218   0.599   5.263   6.268 -0.0587  0.3098 -0.2842
 9092TIP3    H127219   0.593   5.247   6.174  2.0578  0.0823 -0.4180
 9092TIP3    H227220   0.590   5.176   6.308 -1.4064  0.4594 -0.2233
 9093TIP3   OH227221   4.692   3.221   2.156  0.4911 -0.0982  0.3183
 9093TIP3    H127222   4.765   3.237   2.215 -0.4603  1.3126  1.1652
 9093TIP3    H227223   4.715   3.267   2.075  1.0313 -0.6254  0.1602
 9094TIP3   OH227224   2.591   6.674   5.066  0.1138 -0.5324  0.0835
 9094TIP3    H127225   2.579   6.609   5.135  0.6703 -0.9687 -0.2233
 9094TIP3    H227226   2.671   6.721   5.090 -0.8651  0.8158  0.8988
 9095TIP3   OH227227   3.539   7.652   1.964 -0.3066 -0.0326  0.3273
 9095TIP3    H127228   3.513   7.681   1.877 -0.7850  0.8409  0.7395
 9095TIP3    H227229   3.487   7.706   2.023 -0.4356 -1.0300  1.1534
 9096TIP3   OH227230   5.368   1.761   5.439  0.1262 -0.2251  0.2727
 9096TIP3    H127231   5.296   1.700   5.423 -0.1843  0.1516  0.2273
 9096TIP3    H227232   5.437   1.733   5.379 -0.5441  0.3740 -0.7905
 9097TIP3   OH227233   6.947   6.663   5.330 -0.0216  0.0199  0.3290
 9097TIP3    H127234   6.964   6.579   5.287 -0.2994 -0.5012  1.2071
 9097TIP3    H227235   7.002   6.726   5.283  1.1827 -0.8915  0.4881
 9098TIP3   OH227236   6.655   0.879   5.049 -0.6360  0.0966  0.1251
 9098TIP3    H127237   6.609   0.945   4.998  0.1874 -0.2762 -1.1345
 9098TIP3    H227238   6.729   0.926   5.088 -1.8249  0.6251  1.9048
 9099TIP3   OH227239   4.548   1.043   3.657  0.4666  0.0853 -0.1288
 9099TIP3    H127240   4.561   0.961   3.703  0.8159  0.4826  0.5033
 9099TIP3    H227241   4.544   1.019   3.564  1.6971 -0.5296 -0.0416
 9100TIP3   OH227242   3.631   0.315   2.596 -0.7777 -0.1417  0.2455
 9100TIP3    H127243   3.607   0.320   2.503 -0.4000  1.6353  0.1939
 9100TIP3    H227244   3.548   0.308   2.643 -1.2302  2.1125 -0.1079
 9101TIP3   OH227245   6.359   2.926   0.362  0.0814 -0.0978  0.3427
 9101TIP3    H127246   6.454   2.921   0.351  0.4445 -1.0681  3.1426
 9101TIP3    H227247   6.338   3.018   0.350  1.0147 -0.1207 -2.1725
 9102TIP3   OH227248   3.042   6.539   3.308  0.5468 -0.7831 -0.4638
 9102TIP3    H127249   3.024   6.629   3.281 -1.9004 -0.8007  0.8228
 9102TIP3    H227250   3.128   6.544   3.350 -0.1125  1.2845  0.8021
 9103TIP3   OH227251   4.859   0.452   6.188 -0.1900  0.3735  0.8199
 9103TIP3    H127252   4.907   0.379   6.148 -1.3280 -1.0012  1.8601
 9103TIP3    H227253   4.878   0.527   6.132 -0.0686 -1.0199 -1.1030
 9104TIP3   OH227254   7.550   3.881   2.230 -0.1618 -0.2654  0.4117
 9104TIP3    H127255   7.634   3.915   2.259  0.6047 -1.8782  0.1525
 9104TIP3    H227256   7.565   3.852   2.140 -0.8835 -0.9151  0.4917
 9105TIP3   OH227257   3.914   0.185   0.073 -0.5455 -0.5814 -0.3895
 9105TIP3    H127258   3.942   0.117   0.011  1.7112  0.6018 -0.7534
 9105TIP3    H227259   3.875   0.253   0.018  0.1389 -0.1669 -0.3648
 9106TIP3   OH227260   2.523   0.418   3.214 -0.1653  0.7143  0.1600
 9106TIP3    H127261   2.479   0.434   3.130 -1.6327 -3.1880 -0.0426
 9106TIP3    H227262   2.458   0.441   3.280 -1.2837 -1.5333 -0.0498
 9107TIP3   OH227263   7.686   1.638   1.054 -0.1118  0.0364 -0.0434
 9107TIP3    H127264   7.667   1.611   1.144 -0.0648 -1.4319 -0.4353
 9107TIP3    H227265   7.635   1.578   1.000  0.4169  0.4232 -1.0000
 9108TIP3   OH227266   0.798   2.018   3.964  0.0438  0.4307 -0.0964
 9108TIP3    H127267   0.778   1.944   4.021 -0.4470 -0.9791 -2.0196
 9108TIP3    H227268   0.787   2.095   4.020  0.9704 -0.9328  2.0672
 9109TIP3   OH227269   1.035   5.591   5.267 -0.0874 -0.0148  0.4515
 9109TIP3    H127270   0.951   5.588   5.313  0.3505 -0.7993  1.2477
 9109TIP3    H227271   1.077   5.670   5.301  0.0657 -0.3727  1.1226
 9110TIP3   OH227272   6.437   1.560   1.105 -0.5325  0.0364 -0.3150
 9110TIP3    H127273   6.402   1.559   1.195 -0.4341  0.7884 -0.2620
 9110TIP3    H227274   6.395   1.636   1.064  0.8797  0.8436 -0.3125
 9111TIP3   OH227275   6.136   3.564   0.473  0.4788  0.1511  0.2550
 9111TIP3    H127276   6.099   3.596   0.390 -0.0667 -0.3172  0.3124
 9111TIP3    H227277   6.115   3.471   0.474  2.6337 -0.4015 -0.2334
 9112TIP3   OH227278   2.881   6.087   1.733  0.0761  0.7328 -0.0047
 9112TIP3    H127279   2.820   6.062   1.802 -1.1524  1.6029 -0.7434
 9112TIP3    H227280   2.955   6.126   1.779  0.4087 -0.8871  0.9405
 9113TIP3   OH227281   5.129   6.693   6.656 -0.1475 -0.1135  0.5090
 9113TIP3    H127282   5.109   6.621   6.716 -1.2694 -0.1362  0.1311
 9113TIP3    H227283   5.060   6.689   6.590 -0.7251  1.8238  0.9459
 9114TIP3   OH227284   5.121   4.799   5.858 -0.3032  0.1147 -0.0933
 9114TIP3    H127285   5.041   4.819   5.810  0.0197  0.5225 -0.4752
 9114TIP3    H227286   5.091   4.763   5.942 -0.8736 -0.3965 -0.5114
 9115TIP3   OH227287   3.047   1.125   2.344  0.2882 -0.5082 -0.5027
 9115TIP3    H127288   3.017   1.209   2.311 -1.4859 -0.5531  0.8342
 9115TIP3    H227289   3.113   1.146   2.411  0.4865 -0.2302 -0.7865
 9116TIP3   OH227290   1.587   4.265   3.075 -0.6871  0.0305 -0.2197
 9116TIP3    H127291   1.504   4.313   3.068 -0.8257 -0.1204  0.3594
 9116TIP3    H227292   1.649   4.318   3.024 -1.2276 -0.0686 -0.9940
 9117TIP3   OH227293   3.457   3.437   3.515  0.0352 -0.2214  0.5303
 9117TIP3    H127294   3.520   3.445   3.586 -1.4904  2.5738  1.7659
 9117TIP3    H227295   3.478   3.509   3.455 -2.0238  0.9784  1.1291
 9118TIP3   OH227296   8.302   5.236   5.754  0.5923 -0.1993 -0.0168
 9118TIP3    H127297   8.311   5.287   5.835 -1.6858 -0.6477  0.5778
 9118TIP3    H227298   8.245   5.289   5.699 -1.8234 -2.0146  0.6065
 9119TIP3   OH227299   3.798   1.141   4.326  0.1041 -0.4286 -0.3618
 9119TIP3    H127300   3.832   1.144   4.415 -2.0774  0.7739  0.4889
 9119TIP3    H227301   3.833   1.060   4.289  2.2673 -0.1990  1.0447
 9120TIP3   OH227302   0.619   6.232   0.175  0.4180 -0.0097 -0.0011
 9120TIP3    H127303   0.626   6.275   0.090  0.7440  1.3979  0.7030
 9120TIP3    H227304   0.576   6.297   0.231 -1.2446 -1.4816  0.5389
 9121TIP3   OH227305   0.034   1.456   3.307  0.2063  0.4631 -0.3687
 9121TIP3    H127306   0.037   1.426   3.398  0.0909 -0.9871 -0.8087
 9121TIP3    H227307   0.024   1.375   3.256  0.7516  1.2015 -1.6988
 9122TIP3   OH227308   6.905   4.862   1.194 -0.5071  0.3658  0.5510
 9122TIP3    H127309   6.976   4.898   1.246  2.1943  0.1642 -2.6440
 9122TIP3    H227310   6.930   4.772   1.175 -0.7402  0.7199 -1.8657
 9123TIP3   OH227311   6.150   5.866   6.234  0.0294  1.0002 -0.0068
 9123TIP3    H127312   6.107   5.826   6.310 -0.0881  2.9372  1.0312
 9123TIP3    H227313   6.243   5.865   6.256  0.6110 -2.5872 -1.9577
 9124TIP3   OH227314   7.673   0.880   0.943 -0.1435  0.0425 -0.6593
 9124TIP3    H127315   7.670   0.807   0.881  0.0496  0.7071 -1.4732
 9124TIP3    H227316   7.621   0.850   1.018 -0.3609 -0.7897 -1.1302
 9125TIP3   OH227317   3.071   6.375   1.020  0.1399 -0.7269 -0.7740
 9125TIP3    H127318   3.151   6.349   0.974  0.9023 -0.1913  0.2119
 9125TIP3    H227319   3.087   6.354   1.111 -0.2253  0.7812 -0.3298
 9126TIP3   OH227320   4.497   6.191   2.434 -0.1334  0.5489 -0.4189
 9126TIP3    H127321   4.422   6.251   2.436  0.4732  1.3606 -1.3896
 9126TIP3    H227322   4.497   6.156   2.345  1.4761  1.6860 -0.9135
 9127TIP3   OH227323   0.902   7.607   6.436  0.1794  0.2123 -0.2192
 9127TIP3    H127324   0.828   7.554   6.463  0.1941 -0.3662 -1.2731
 9127TIP3    H227325   0.976   7.574   6.487  0.4174 -1.5329 -1.6176
 9128TIP3   OH227326   1.358   0.232   2.377  0.0504 -0.1404 -0.1281
 9128TIP3    H127327   1.400   0.146   2.384 -0.7509 -0.4465  1.4875
 9128TIP3    H227328   1.310   0.228   2.294 -2.2276 -2.3863  1.1246
 9129TIP3   OH227329   7.095   5.972   4.581 -0.5020 -0.0155 -0.4394
 9129TIP3    H127330   7.163   5.944   4.520 -1.9405 -2.1232 -1.1820
 9129TIP3    H227331   7.052   6.045   4.536  0.9795  1.1381 -0.0938
 9130TIP3   OH227332   2.090   4.855   1.881 -0.2510  0.5013  0.0127
 9130TIP3    H127333   2.140   4.877   1.803 -1.1214 -1.2237 -1.0910
 9130TIP3    H227334   2.119   4.766   1.904 -0.3222  0.8117  1.3979
 9131TIP3   OH227335   2.789   5.257   2.893 -0.1262 -0.0112  0.1240
 9131TIP3    H127336   2.852   5.208   2.840 -0.9395 -0.9731 -0.0099
 9131TIP3    H227337   2.780   5.341   2.848  0.3387 -0.2333 -0.4033
 9132TIP3   OH227338   5.810   7.513  -0.015 -0.2253  0.2244 -0.2545
 9132TIP3    H127339   5.816   7.592   0.039  0.6849 -0.4730  0.7163
 9132TIP3    H227340   5.774   7.446   0.045  0.1205 -0.3894 -0.7232
 9133TIP3   OH227341   3.601   5.089   6.701  0.6670  0.4289  0.0520
 9133TIP3    H127342   3.586   5.011   6.648 -1.7774  0.7004  0.2124
 9133TIP3    H227343   3.584   5.162   6.641  3.4696  0.9257 -0.2529
 9134TIP3   OH227344   2.273   6.243   2.317  0.2503  0.1563 -0.5868
 9134TIP3    H127345   2.304   6.159   2.283  1.8559  0.6451 -0.4080
 9134TIP3    H227346   2.352   6.294   2.332 -0.6983  1.8095 -0.9166
 9135TIP3   OH227347   5.859   2.323   4.293 -0.0259  0.5807 -0.3133
 9135TIP3    H127348   5.919   2.392   4.324 -1.5532  2.2555 -0.8830
 9135TIP3    H227349   5.829   2.354   4.208 -1.0494 -0.6322 -0.4167
 9136TIP3   OH227350   2.568   2.452   1.014  0.2894  0.5411  0.4095
 9136TIP3    H127351   2.623   2.453   1.092  1.0770 -1.8976 -0.0129
 9136TIP3    H227352   2.485   2.413   1.045  0.2451  0.4979  0.2362
 9137TIP3   OH227353   0.453   1.081   3.613  0.5733  0.1750  0.3946
 9137TIP3    H127354   0.372   1.073   3.664  0.0486 -1.7557 -0.6328
 9137TIP3    H227355   0.423   1.097   3.524  1.4308  1.5175  0.3121
 9138TIP3   OH227356   2.866   4.165   6.162 -0.0860 -0.1744 -0.3721
 9138TIP3    H127357   2.794   4.154   6.101 -0.2724  0.5653 -0.3030
 9138TIP3    H227358   2.932   4.102   6.134 -0.0982  0.2694 -1.4424
 9139TIP3   OH227359   1.515   6.651   0.265  0.3670 -0.1672 -0.3043
 9139TIP3    H127360   1.515   6.595   0.343 -3.5123  0.3816  0.3084
 9139TIP3    H227361   1.528   6.739   0.300  0.5812 -0.1080 -0.5318
 9140TIP3   OH227362   4.010   4.990   5.467  0.2882 -0.3039  0.1179
 9140TIP3    H127363   3.950   4.989   5.542  2.3014  3.1370  2.0608
 9140TIP3    H227364   4.074   4.921   5.486 -0.5198 -1.0101  0.3287
 9141TIP3   OH227365   6.251   7.063   0.043  0.3540  0.2263 -0.0703
 9141TIP3    H127366   6.271   7.081  -0.049 -0.1578 -0.2127 -0.2700
 9141TIP3    H227367   6.260   7.148   0.087  1.5686  0.2543 -0.3439
 9142TIP3   OH227368   8.111   2.832   0.931  0.4496 -0.0794  0.1748
 9142TIP3    H127369   8.047   2.795   0.992 -0.5412 -0.2501 -0.9356
 9142TIP3    H227370   8.106   2.927   0.946  1.4363 -0.2054  1.5100
 9143TIP3   OH227371   7.350   1.294   5.894 -0.0911  0.5599  0.1587
 9143TIP3    H127372   7.422   1.290   5.957  0.6950  1.7343 -0.6218
 9143TIP3    H227373   7.376   1.362   5.832 -0.3968 -1.1788 -1.9887
 9144TIP3   OH227374   1.886   1.667   1.997 -0.1330 -0.5765  0.3919
 9144TIP3    H127375   1.935   1.664   1.914 -0.6547 -1.4093  0.1014
 9144TIP3    H227376   1.928   1.737   2.047  0.3826 -0.2650 -0.4576
 9145TIP3   OH227377   5.761   5.765   3.753  0.4275  0.1072  0.2624
 9145TIP3    H127378   5.842   5.730   3.791 -0.9598 -1.6667  1.7391
 9145TIP3    H227379   5.778   5.859   3.744  2.5345 -0.1692  0.8224
 9146TIP3   OH227380   3.881   6.280   6.105  0.6321 -0.5183  0.0635
 9146TIP3    H127381   3.844   6.265   6.018  1.0281  0.8773 -0.3805
 9146TIP3    H227382   3.807   6.269   6.165  0.0804 -0.3082 -0.5688
 9147TIP3   OH227383   0.885   6.402   1.647 -0.6259  0.5038  0.1848
 9147TIP3    H127384   0.830   6.354   1.708  0.1060 -0.3169  0.2169
 9147TIP3    H227385   0.860   6.368   1.561  1.0661 -1.2371  0.3122
 9148TIP3   OH227386   3.948   4.038   2.239 -0.3381  0.0528  0.4864
 9148TIP3    H127387   4.003   3.996   2.172  0.5256 -0.4227  1.4755
 9148TIP3    H227388   3.906   4.110   2.192  2.2981  1.4137  0.0156
 9149TIP3   OH227389   1.704   7.292   1.966  0.0662  0.7669  0.1175
 9149TIP3    H127390   1.798   7.300   1.949  0.1332  0.5367  0.3597
 9149TIP3    H227391   1.668   7.258   1.884 -0.0097  2.0785 -0.4202
 9150TIP3   OH227392   2.653   4.860   1.590 -0.0353  0.1415  0.0715
 9150TIP3    H127393   2.661   4.771   1.625  1.4110 -0.5372 -1.8273
 9150TIP3    H227394   2.742   4.883   1.562 -0.3617  2.2470  0.6036
 9151TIP3   OH227395   0.570   5.154   0.629  0.8883 -0.0096 -0.0983
 9151TIP3    H127396   0.578   5.168   0.724  1.1407 -1.7397  0.1584
 9151TIP3    H227397   0.491   5.101   0.619 -0.5602  2.1973 -1.1069
 9152TIP3   OH227398   3.573   7.047   2.732 -0.4396  0.5114  0.0547
 9152TIP3    H127399   3.611   7.060   2.819  0.1029  0.8649 -0.2314
 9152TIP3    H227400   3.629   7.097   2.674 -1.0501  0.6276 -0.4463
 9153TIP3   OH227401   2.805   5.483   1.720  0.0735  0.1076  0.1012
 9153TIP3    H127402   2.865   5.409   1.729  0.2103  0.1566 -0.3577
 9153TIP3    H227403   2.806   5.503   1.626  0.3606  0.9584  0.2757
 9154TIP3   OH227404   3.676   5.704   5.106 -0.2724  0.0319  0.2320
 9154TIP3    H127405   3.659   5.619   5.065  0.0915 -0.0152  0.1750
 9154TIP3    H227406   3.725   5.753   5.040  0.8646 -0.2653  0.8347
 9155TIP3   OH227407   8.001   7.394   4.371 -0.6034  0.3708 -0.1443
 9155TIP3    H127408   7.921   7.447   4.368  0.1503  1.8760  2.6811
 9155TIP3    H227409   7.973   7.309   4.404 -1.0216  1.1390  1.6215
 9156TIP3   OH227410   3.423   5.853   0.798  0.0519 -0.3502  0.1975
 9156TIP3    H127411   3.442   5.926   0.740  0.7127 -0.3498  0.3991
 9156TIP3    H227412   3.335   5.823   0.773  0.2593 -0.2435 -0.6791
 9157TIP3   OH227413   5.455   3.737   6.622 -0.4255  0.5522  0.0465
 9157TIP3    H127414   5.521   3.806   6.621  0.9189 -0.6869 -1.2446
 9157TIP3    H227415   5.383   3.772   6.569  0.8743  0.4384 -1.9026
 9158TIP3   OH227416   5.588   1.984   1.389  0.2912 -0.1348  0.0856
 9158TIP3    H127417   5.584   2.079   1.379 -1.4778 -0.3189 -1.7245
 9158TIP3    H227418   5.508   1.962   1.436  0.1240 -0.7985 -0.4903
 9159TIP3   OH227419   1.630   3.895   1.523  0.5625 -0.2327 -0.0140
 9159TIP3    H127420   1.665   3.883   1.435  0.1150 -1.6957 -0.0081
 9159TIP3    H227421   1.537   3.915   1.510  0.1264 -1.9825  0.1380
 9160TIP3   OH227422   3.152   3.824   0.796 -0.2373 -0.7305  0.0936
 9160TIP3    H127423   3.242   3.804   0.773 -0.4858 -0.6348 -0.9847
 9160TIP3    H227424   3.132   3.764   0.868  0.8888 -0.2823  0.8122
 9161TIP3   OH227425   2.302   3.567   6.151 -0.2654  0.0766 -0.5170
 9161TIP3    H127426   2.387   3.597   6.183  0.0198  0.3665 -1.5310
 9161TIP3    H227427   2.238   3.609   6.209  0.2227  0.9168 -0.5870
 9162TIP3   OH227428   0.824   2.632   5.559  0.5041  0.2920 -0.0470
 9162TIP3    H127429   0.833   2.564   5.492  1.5505 -1.1469  1.4551
 9162TIP3    H227430   0.761   2.596   5.621 -0.8771  1.8488 -0.4925
 9163TIP3   OH227431   4.066   6.253   5.622 -0.2887  0.0677 -0.2567
 9163TIP3    H127432   4.083   6.295   5.706  1.7501  0.6521 -0.8978
 9163TIP3    H227433   4.004   6.312   5.578 -1.1904 -0.1278  0.7178
 9164TIP3   OH227434   1.594   2.554   5.793  0.1155 -0.4245 -0.1842
 9164TIP3    H127435   1.684   2.531   5.772 -0.1499 -0.9695 -0.7457
 9164TIP3    H227436   1.599   2.646   5.821  0.8962 -0.5755  0.2026
 9165TIP3   OH227437   6.273   3.149   3.063  0.3456  0.7194 -0.2812
 9165TIP3    H127438   6.242   3.185   3.146  0.7002 -0.7925  0.5511
 9165TIP3    H227439   6.198   3.158   3.003 -1.7591 -2.4376  1.5431
 9166TIP3   OH227440   0.166   1.337   4.587  0.0705  0.5614 -0.0394
 9166TIP3    H127441   0.164   1.422   4.543  0.3897  0.0039 -1.1629
 9166TIP3    H227442   0.201   1.277   4.521  3.1111  0.1510  1.7365
 9167TIP3   OH227443   2.736   6.984   2.162 -0.1883 -0.2885 -0.3884
 9167TIP3    H127444   2.662   6.973   2.102  0.0691  0.3988 -0.8507
 9167TIP3    H227445   2.806   7.020   2.107  0.8929 -2.0157 -0.2370
 9168TIP3   OH227446   4.319   3.880   1.622  0.0645 -0.0215  0.1508
 9168TIP3    H127447   4.250   3.864   1.687  1.2017  0.7032  1.5893
 9168TIP3    H227448   4.337   3.973   1.628  0.4067  0.0004 -1.0100
 9169TIP3   OH227449   7.903   4.857   4.939 -0.1378 -0.2299 -0.0178
 9169TIP3    H127450   7.986   4.845   4.893 -0.8254 -2.1573 -0.8649
 9169TIP3    H227451   7.927   4.874   5.030  1.1819 -0.2394 -0.3529
 9170TIP3   OH227452   3.334   4.708   1.258 -0.2490 -0.1113  0.3368
 9170TIP3    H127453   3.290   4.699   1.174  0.5704  0.3050 -0.1371
 9170TIP3    H227454   3.332   4.619   1.295  1.7469 -0.9054 -1.3086
 9171TIP3   OH227455   6.423   2.188   0.370 -0.4635  0.4571  0.4451
 9171TIP3    H127456   6.492   2.169   0.434  0.6018 -1.0673 -1.0852
 9171TIP3    H227457   6.461   2.255   0.313 -0.5869  0.2684  0.1363
 9172TIP3   OH227458   3.211   4.904   1.403 -0.0701  0.2685  0.1598
 9172TIP3    H127459   3.125   4.871   1.378 -0.3344  1.5862 -0.7949
 9172TIP3    H227460   3.272   4.835   1.375 -0.7851 -0.6730  0.8475
 9173TIP3   OH227461   2.338   6.952   4.517 -0.1317  0.0868  0.1942
 9173TIP3    H127462   2.333   7.009   4.441 -0.2822 -1.7107 -1.2025
 9173TIP3    H227463   2.248   6.948   4.550  0.0171  1.2402  0.7852
 9174TIP3   OH227464   8.325   7.817   4.765  0.1574 -0.2126  0.3679
 9174TIP3    H127465   8.285   7.892   4.721  1.1831 -0.2713 -0.7324
 9174TIP3    H227466   8.251   7.758   4.782 -0.5378  0.6635  0.4773
 9175TIP3   OH227467   6.117   0.221   4.349  0.1323  0.9691  0.0278
 9175TIP3    H127468   6.106   0.245   4.441 -2.3711  1.9022 -0.4350
 9175TIP3    H227469   6.104   0.126   4.348  0.1376  0.9543  0.6232
 9176TIP3   OH227470   0.914   4.029   4.493 -0.2283  0.0413 -0.2566
 9176TIP3    H127471   0.829   4.033   4.450 -1.3263  4.1404  1.7304
 9176TIP3    H227472   0.904   3.961   4.560 -1.3564 -0.6738 -1.1272
 9177TIP3   OH227473   6.748   1.413   3.823 -0.3835 -0.2789  0.3937
 9177TIP3    H127474   6.707   1.492   3.788  0.6415  0.5174  0.9458
 9177TIP3    H227475   6.840   1.418   3.796 -0.6125 -2.1026 -0.9369
 9178TIP3   OH227476   3.017   0.342   4.204 -0.1055 -0.2038  0.0631
 9178TIP3    H127477   3.063   0.426   4.199 -0.0283 -0.2523 -0.0710
 9178TIP3    H227478   3.085   0.277   4.188 -0.1186 -0.3050  0.4306
 9179TIP3   OH227479   4.157   6.052   2.239 -0.3558 -0.3878 -0.4565
 9179TIP3    H127480   4.238   6.075   2.194 -0.0164 -0.6258  0.0228
 9179TIP3    H227481   4.142   6.124   2.300 -0.4353 -0.4066 -0.4532
 9180TIP3   OH227482   6.743   1.642   2.594  0.2011 -0.3448 -0.6434
 9180TIP3    H127483   6.829   1.620   2.558 -0.2532 -1.8110 -0.8967
 9180TIP3    H227484   6.707   1.706   2.533  1.2877  0.6758 -0.2642
 9181TIP3   OH227485   4.727   7.164   1.513  0.3184 -0.1796  0.1842
 9181TIP3    H127486   4.649   7.112   1.491  0.2182  0.9386 -2.5345
 9181TIP3    H227487   4.694   7.253   1.520  1.4033  0.4513 -1.9284
 9182TIP3   OH227488   4.672   2.298   1.650  0.0784 -0.0463  0.1691
 9182TIP3    H127489   4.607   2.369   1.655 -0.3043 -0.2420 -1.4325
 9182TIP3    H227490   4.639   2.231   1.710 -0.2886  0.5569  0.6570
 9183TIP3   OH227491   1.956   7.746   5.978  0.1846 -0.2646 -0.4547
 9183TIP3    H127492   2.019   7.717   5.912 -0.4808 -1.6603 -0.5077
 9183TIP3    H227493   1.920   7.666   6.014 -1.9666  0.4756 -0.8070
 9184TIP3   OH227494   3.469   0.833   4.453  0.1410 -0.0842  0.2500
 9184TIP3    H127495   3.563   0.818   4.450 -0.1547 -2.3615  0.7776
 9184TIP3    H227496   3.458   0.911   4.506  1.7884  1.2391 -1.2401
 9185TIP3   OH227497   7.623   6.118   2.705  0.0116 -0.0830 -0.3259
 9185TIP3    H127498   7.608   6.030   2.739  2.4705 -1.2498 -1.9870
 9185TIP3    H227499   7.643   6.105   2.612 -1.0321  2.4113 -0.9851
 9186TIP3   OH227500   0.798   3.286   4.234 -0.0030 -0.1494 -0.0289
 9186TIP3    H127501   0.747   3.237   4.169  0.4857  0.3577 -0.8125
 9186TIP3    H227502   0.743   3.359   4.259 -1.1733 -1.5896  1.9194
 9187TIP3   OH227503   5.259   3.461   2.878 -0.1848 -0.4530  0.1547
 9187TIP3    H127504   5.190   3.450   2.944  1.1638 -0.0318  1.7092
 9187TIP3    H227505   5.214   3.451   2.794 -2.3683  1.0671  1.0575
 9188TIP3   OH227506   5.612   2.104   3.881  0.1106 -0.0433  0.0051
 9188TIP3    H127507   5.626   2.150   3.798 -1.1402 -3.0735 -2.0574
 9188TIP3    H227508   5.580   2.172   3.941  1.7738  2.4066 -1.6852
 9189TIP3   OH227509   0.931   0.233   2.373  0.2438  0.8546  0.2595
 9189TIP3    H127510   0.840   0.231   2.345  0.8145 -1.1328 -1.7652
 9189TIP3    H227511   0.958   0.141   2.371  1.9836  1.2478  2.0272
 9190TIP3   OH227512   5.544   0.967   2.515  0.6169  0.5502 -0.1965
 9190TIP3    H127513   5.565   0.977   2.608  1.4779  2.2596 -0.5458
 9190TIP3    H227514   5.629   0.970   2.471  0.2642 -0.7821 -1.0267
 9191TIP3   OH227515   6.474   6.079   1.848  0.7608 -0.4203  0.0782
 9191TIP3    H127516   6.382   6.094   1.825  0.4714 -0.5844  1.0981
 9191TIP3    H227517   6.509   6.028   1.775  0.4632  0.9307 -1.0718
 9192TIP3   OH227518   3.752   6.332   6.750  0.0148  0.7275  0.3578
 9192TIP3    H127519   3.803   6.262   6.709 -0.2117  1.2572 -0.8499
 9192TIP3    H227520   3.677   6.344   6.692  0.1109  2.0551  0.4929
 9193TIP3   OH227521   2.483   1.812   0.591 -0.2717 -0.1634 -0.0695
 9193TIP3    H127522   2.421   1.870   0.547 -0.0923 -0.8326 -1.2528
 9193TIP3    H227523   2.569   1.853   0.577 -0.0759 -0.9726 -1.4127
 9194TIP3   OH227524   0.187   2.530   4.104 -0.2538 -0.0703  0.1942
 9194TIP3    H127525   0.229   2.566   4.026  0.0236 -0.4688  0.1580
 9194TIP3    H227526   0.223   2.581   4.176  2.2379 -2.0313  0.4402
 9195TIP3   OH227527   3.373   1.282   1.569  0.3600 -0.3421  0.6855
 9195TIP3    H127528   3.447   1.323   1.525 -1.2325 -0.2923 -2.1543
 9195TIP3    H227529   3.350   1.344   1.639 -0.0172  2.2138 -1.5128
 9196TIP3   OH227530   1.487   0.266   4.244 -0.1544  0.0605  0.2401
 9196TIP3    H127531   1.539   0.314   4.179 -0.8954  0.2056 -0.2594
 9196TIP3    H227532   1.397   0.293   4.227 -0.2371  1.2989  2.3543
 9197TIP3   OH227533   5.498   0.515   1.019  0.8210 -0.3807  0.0560
 9197TIP3    H127534   5.486   0.420   1.026  0.2716 -0.2781  0.6397
 9197TIP3    H227535   5.429   0.552   1.075  0.9695  0.3645 -0.2402
 9198TIP3   OH227536   5.606   4.466   1.913  0.7524  0.3124 -0.2782
 9198TIP3    H127537   5.627   4.525   1.985  0.5608  1.2381 -0.9678
 9198TIP3    H227538   5.559   4.520   1.850 -2.5129 -1.2995  0.5494
 9199TIP3   OH227539   4.437   1.429   5.278 -0.1275 -0.3611 -0.0632
 9199TIP3    H127540   4.519   1.472   5.302 -0.8754  1.3320 -0.3612
 9199TIP3    H227541   4.430   1.356   5.339  0.3735  0.9829  1.7135
 9200TIP3   OH227542   8.185   4.351   6.049 -0.3132  0.1492 -0.4149
 9200TIP3    H127543   8.250   4.365   6.118 -0.6117  1.1807 -0.3276
 9200TIP3    H227544   8.230   4.298   5.984  0.4767  0.4757 -0.1437
 9201TIP3   OH227545   5.425   1.656   4.429 -1.3964 -0.3376 -0.0031
 9201TIP3    H127546   5.455   1.665   4.520  1.0403  0.8827 -0.8406
 9201TIP3    H227547   5.337   1.694   4.429 -1.5359 -0.5559  1.8648
 9202TIP3   OH227548   5.189   7.352   2.141 -0.2565  0.4451 -0.2966
 9202TIP3    H127549   5.211   7.440   2.110  0.4384  0.1330 -0.7125
 9202TIP3    H227550   5.093   7.351   2.145 -0.3123  0.9064 -1.2259
 9203TIP3   OH227551   2.482   0.200   6.314  0.4353 -0.1560  0.2170
 9203TIP3    H127552   2.426   0.145   6.259  1.9271 -2.1088  0.5284
 9203TIP3    H227553   2.502   0.145   6.390  1.2998  1.1607  0.9729
 9204TIP3   OH227554   0.876   5.110   5.055 -0.3770 -0.3908 -0.1150
 9204TIP3    H127555   0.884   5.182   5.117 -0.7759 -1.1099  0.8059
 9204TIP3    H227556   0.801   5.134   5.001 -0.9306 -0.4000  0.6184
 9205TIP3   OH227557   2.661   2.685   5.193 -0.2359  0.2787  0.1750
 9205TIP3    H127558   2.594   2.689   5.124  0.8776  2.1594 -0.9165
 9205TIP3    H227559   2.644   2.604   5.239 -1.7512 -0.5039 -1.6212
 9206TIP3   OH227560   7.825   3.826   3.544 -0.6437  0.4233  0.4111
 9206TIP3    H127561   7.806   3.789   3.631 -2.5209  0.9358  0.2446
 9206TIP3    H227562   7.741   3.855   3.511  0.1477  0.8453 -1.3358
 9207TIP3   OH227563   0.426   0.818   0.629  0.9612 -0.6276  0.3533
 9207TIP3    H127564   0.371   0.862   0.564  1.7184  0.0741  0.1665
 9207TIP3    H227565   0.365   0.777   0.690  0.2329 -1.4972 -0.9290
 9208TIP3   OH227566   4.613   1.519   2.594 -0.6340 -0.2469  0.3426
 9208TIP3    H127567   4.576   1.515   2.506 -1.8397 -0.0359  0.8183
 9208TIP3    H227568   4.706   1.538   2.580 -0.4463 -1.9362 -0.9205
 9209TIP3   OH227569   5.264   0.488   2.156  0.1582 -0.2718  0.2993
 9209TIP3    H127570   5.298   0.570   2.194  3.0742 -0.3719 -1.6821
 9209TIP3    H227571   5.189   0.516   2.103 -0.4648  0.6974  1.6448
 9210TIP3   OH227572   1.633   4.792   2.142 -0.3286  0.2384 -0.5082
 9210TIP3    H127573   1.712   4.751   2.107  0.5205  0.4566  1.0510
 9210TIP3    H227574   1.584   4.719   2.182  1.0841  0.5961  2.0857
 9211TIP3   OH227575   4.426   2.682   6.421 -0.5236 -0.1698  0.1265
 9211TIP3    H127576   4.493   2.665   6.487  0.4095  0.3306 -0.6628
 9211TIP3    H227577   4.441   2.615   6.354 -0.5083  0.2190 -0.2667
 9212TIP3   OH227578   6.445   6.929   5.448 -0.0523 -0.4732 -0.1704
 9212TIP3    H127579   6.514   6.995   5.454  0.8704 -1.2165 -1.9314
 9212TIP3    H227580   6.423   6.910   5.540  2.7574 -0.8712  0.5254
 9213TIP3   OH227581   7.257   3.707   6.323  0.6092  0.3116 -0.2508
 9213TIP3    H127582   7.291   3.628   6.366  0.5514  1.4599  2.0435
 9213TIP3    H227583   7.302   3.779   6.366 -1.0691  1.6446 -0.6397
 9214TIP3   OH227584   6.897   7.783   2.405 -0.3999  0.0012  0.1087
 9214TIP3    H127585   6.836   7.717   2.371 -0.2893 -0.0905  0.0880
 9214TIP3    H227586   6.974   7.733   2.432 -0.2537  0.1404 -0.0520
 9215TIP3   OH227587   7.201   0.197   3.956 -0.6885 -0.0270  0.1577
 9215TIP3    H127588   7.128   0.237   3.909 -0.2251  0.0965 -0.4834
 9215TIP3    H227589   7.279   0.229   3.910 -0.2582 -0.5967  0.4761
 9216TIP3   OH227590   3.562   3.805   5.673 -0.2923  0.5726  0.3272
 9216TIP3    H127591   3.524   3.817   5.586 -0.4912 -4.7070 -0.6575
 9216TIP3    H227592   3.487   3.792   5.731 -0.1748 -0.6649  0.2360
 9217TIP3   OH227593   4.593   4.561   1.461 -0.0740  0.0644 -0.1028
 9217TIP3    H127594   4.635   4.644   1.439 -0.6767  0.0371 -1.4861
 9217TIP3    H227595   4.553   4.533   1.379  0.8176 -2.0166  0.1296
 9218TIP3   OH227596   6.326   1.873   4.890  0.1416 -0.2458  0.6453
 9218TIP3    H127597   6.335   1.959   4.932 -0.4893 -0.5314  1.3889
 9218TIP3    H227598   6.238   1.873   4.854  0.1753 -0.5521  0.5616
 9219TIP3   OH227599   4.310   5.761   3.736 -0.1688  0.1715 -0.2990
 9219TIP3    H127600   4.315   5.670   3.764  0.7408 -0.0941 -1.2692
 9219TIP3    H227601   4.219   5.773   3.710 -0.6340 -0.0448  1.1335
 9220TIP3   OH227602   4.864   3.291   6.432  0.6164 -0.1227  0.2671
 9220TIP3    H127603   4.828   3.237   6.502  0.5002  1.6580  1.6560
 9220TIP3    H227604   4.959   3.276   6.436  0.6649  0.3608  1.1902
 9221TIP3   OH227605   0.519   0.577   0.102  0.2874  0.1714  0.0168
 9221TIP3    H127606   0.526   0.534   0.187 -0.5726 -0.3115 -0.1401
 9221TIP3    H227607   0.599   0.629   0.094  1.4478 -1.5147  0.1610
 9222TIP3   OH227608   2.135   2.687   4.268  0.1863 -0.2229 -0.1134
 9222TIP3    H127609   2.126   2.780   4.250  1.4830 -0.4953 -2.7626
 9222TIP3    H227610   2.055   2.662   4.313 -0.6581  1.9536 -0.3298
 9223TIP3   OH227611   6.823   6.359   3.041 -0.0290 -0.4136  0.6775
 9223TIP3    H127612   6.905   6.357   2.991  0.3878  1.0150  1.2575
 9223TIP3    H227613   6.843   6.413   3.117 -1.8184  0.9391  0.2483
 9224TIP3   OH227614   7.455   0.060   1.559 -0.2009  0.5531 -0.9843
 9224TIP3    H127615   7.373   0.102   1.585  0.7414  1.4248  0.7327
 9224TIP3    H227616   7.496   0.122   1.499 -1.1361 -0.2582 -2.5261
 9225TIP3   OH227617   8.108   1.344   0.360  0.6931  0.1563  0.2210
 9225TIP3    H127618   8.066   1.323   0.277  2.7986  0.8458 -1.1220
 9225TIP3    H227619   8.060   1.295   0.426 -1.1739 -0.2462 -1.3785
 9226TIP3   OH227620   2.916   2.923   1.831 -0.2657 -1.0341  0.1105
 9226TIP3    H127621   2.846   2.909   1.895  0.4125 -1.2675  0.8101
 9226TIP3    H227622   2.981   2.856   1.851  0.6637 -0.1373  0.1741
 9227TIP3   OH227623   0.259   6.982   4.092  0.0263  0.1427  0.0208
 9227TIP3    H127624   0.289   6.893   4.075  0.8528  0.7016 -1.7357
 9227TIP3    H227625   0.213   6.977   4.176  0.4765 -1.8208  0.1910
 9228TIP3   OH227626   2.184   6.088   2.664 -0.2362  0.2617  0.0813
 9228TIP3    H127627   2.223   6.085   2.751 -0.7157  0.2059  0.2970
 9228TIP3    H227628   2.169   5.996   2.641 -1.4463  0.3312  0.5522
 9229TIP3   OH227629   3.324   0.039   3.033 -0.4197  0.3870 -0.2598
 9229TIP3    H127630   3.342   0.108   3.097  0.3302  1.1061 -1.2261
 9229TIP3    H227631   3.288  -0.033   3.085 -1.0179  1.4186  0.7982
 9230TIP3   OH227632   6.532   3.858   1.350 -0.0234 -1.0268 -0.1750
 9230TIP3    H127633   6.482   3.828   1.426  0.9463 -0.1569  0.8479
 9230TIP3    H227634   6.493   3.943   1.328  1.3726  0.0195  1.0973
 9231TIP3   OH227635   5.056   2.930   2.937  0.0005  0.2643  0.0220
 9231TIP3    H127636   5.135   2.919   2.991 -0.1641  1.1929  0.4812
 9231TIP3    H227637   5.070   3.013   2.892 -1.1885  0.9981  0.9511
 9232TIP3   OH227638   5.807   6.546   5.627  0.1272 -0.0736 -0.1375
 9232TIP3    H127639   5.779   6.579   5.713 -1.2703  0.9064 -0.9180
 9232TIP3    H227640   5.870   6.477   5.647 -0.3334 -0.0242  1.6793
 9233TIP3   OH227641   7.262   6.168   5.486 -0.4186  0.4835  0.3539
 9233TIP3    H127642   7.177   6.210   5.488 -0.6785 -0.0121 -0.0608
 9233TIP3    H227643   7.319   6.229   5.439 -1.0475 -0.0738 -1.1747
 9234TIP3   OH227644   5.249   7.459   0.622 -0.1583 -0.4489  0.4714
 9234TIP3    H127645   5.265   7.450   0.716 -0.0941 -0.2858  0.4768
 9234TIP3    H227646   5.166   7.414   0.607 -1.0071  0.9180  0.8802
 9235TIP3   OH227647   4.523   0.422   3.134 -0.2201  0.5055  0.8281
 9235TIP3    H127648   4.454   0.484   3.155 -1.3847 -0.6317  0.4914
 9235TIP3    H227649   4.477   0.341   3.114  1.1789 -0.0867 -0.1467
 9236TIP3   OH227650   7.309   5.331   1.164  0.3483  0.3033 -0.2514
 9236TIP3    H127651   7.378   5.279   1.123  0.3035 -2.0147  2.3439
 9236TIP3    H227652   7.229   5.282   1.146 -0.4264  1.8665 -1.4259
 9237TIP3   OH227653   2.999   6.973   6.227  0.4573  0.3088  0.9332
 9237TIP3    H127654   3.059   6.917   6.177 -0.2013 -0.0802  0.5509
 9237TIP3    H227655   2.955   7.026   6.161 -0.5348 -0.3182  1.0612
 9238TIP3   OH227656   1.659   1.047   1.583 -0.4035  0.2014 -0.1198
 9238TIP3    H127657   1.632   0.974   1.640  0.8086 -0.3320 -0.2006
 9238TIP3    H227658   1.581   1.101   1.575 -2.3591 -2.6054 -2.4575
 9239TIP3   OH227659   5.512   4.369   5.816  0.1432 -0.2897 -0.3090
 9239TIP3    H127660   5.534   4.312   5.742  0.7142  0.6141 -0.8686
 9239TIP3    H227661   5.422   4.397   5.800  0.1921 -0.2723 -0.5574
 9240TIP3   OH227662   5.657   4.896   5.900 -0.4294 -0.6325  0.8260
 9240TIP3    H127663   5.673   4.987   5.878 -0.2445 -0.9103 -0.2332
 9240TIP3    H227664   5.744   4.859   5.916 -0.4668 -0.7408  0.7829
 9241TIP3   OH227665   4.945   5.111   0.293  0.0687  0.3502 -0.1179
 9241TIP3    H127666   4.929   5.058   0.215 -0.9679  0.4240  0.0292
 9241TIP3    H227667   4.998   5.054   0.349 -0.1715 -0.1485 -0.3869
 9242TIP3   OH227668   5.981   3.838   3.967  0.0895 -0.0573 -0.8571
 9242TIP3    H127669   5.959   3.749   3.994  0.9484 -0.4481 -1.4258
 9242TIP3    H227670   5.915   3.860   3.901  0.4210 -0.6265 -1.3912
 9243TIP3   OH227671   1.485   6.991   5.275 -0.2974  0.4505  0.2776
 9243TIP3    H127672   1.461   6.900   5.257 -0.0697  0.7567 -1.8565
 9243TIP3    H227673   1.551   7.011   5.209  1.1933  1.5638  2.0175
 9244TIP3   OH227674   0.509   0.950   5.212 -0.2818 -0.1924  0.1765
 9244TIP3    H127675   0.536   1.042   5.214 -0.0174 -0.2457  2.6236
 9244TIP3    H227676   0.414   0.953   5.224 -0.2422 -0.2342  0.5130
 9245TIP3   OH227677   2.700   1.677   3.235 -0.3647 -0.1141 -0.3994
 9245TIP3    H127678   2.652   1.755   3.205  0.2870  0.3866 -0.1660
 9245TIP3    H227679   2.706   1.622   3.157  1.9864  1.5232 -1.5022
 9246TIP3   OH227680   7.949   7.445   4.677  0.2336 -0.1938 -0.1491
 9246TIP3    H127681   7.862   7.452   4.638  0.1279 -1.3239 -0.1498
 9246TIP3    H227682   7.986   7.365   4.639  1.8012  0.9545 -1.1745
 9247TIP3   OH227683   0.481   1.917   4.020  0.5228 -0.1715 -0.4499
 9247TIP3    H127684   0.406   1.916   4.080 -1.1573 -2.5701 -2.3742
 9247TIP3    H227685   0.538   1.847   4.051  0.1268 -0.7687 -1.0294
 9248TIP3   OH227686   7.193   2.497   3.168 -0.3053 -0.1888  0.3460
 9248TIP3    H127687   7.133   2.562   3.131  1.5624  0.8200 -1.0690
 9248TIP3    H227688   7.277   2.516   3.127  0.8825 -1.9006  1.8450
 9249TIP3   OH227689   3.015   1.639   2.991 -0.5800 -0.2647 -0.1657
 9249TIP3    H127690   3.038   1.548   2.975  0.2856 -0.1920  0.6168
 9249TIP3    H227691   3.019   1.649   3.086  0.8975  0.9790 -0.3311
 9250TIP3   OH227692   5.467   6.901   3.937  0.5003 -0.1168 -0.2585
 9250TIP3    H127693   5.388   6.862   3.973 -0.0793  1.0809 -0.1745
 9250TIP3    H227694   5.455   6.896   3.842 -0.2219  1.0748 -0.2497
 9251TIP3   OH227695   5.772   6.061   0.364 -0.0746  0.1557 -0.0380
 9251TIP3    H127696   5.861   6.091   0.382 -0.2947  0.2482  0.9150
 9251TIP3    H227697   5.760   5.985   0.421 -0.1148 -0.7497 -1.2066
 9252TIP3   OH227698   7.770   5.038   1.357 -0.2541 -0.2963 -0.2264
 9252TIP3    H127699   7.767   5.116   1.413  0.6005 -0.1810 -0.3291
 9252TIP3    H227700   7.850   5.048   1.306  1.6947 -2.8168  2.0734
 9253TIP3   OH227701   5.428   1.354   1.024  0.2002  0.2724  0.4196
 9253TIP3    H127702   5.428   1.449   1.018 -0.7596  0.2842  0.3679
 9253TIP3    H227703   5.411   1.324   0.935 -0.2073  0.0729  0.5634
 9254TIP3   OH227704   4.946   1.007   2.094  0.4436  0.1580 -0.7930
 9254TIP3    H127705   5.008   1.021   2.166  1.3287  1.4279 -1.7631
 9254TIP3    H227706   4.997   1.018   2.015 -0.7005 -0.3813 -1.6406
 9255TIP3   OH227707   1.404   0.211   6.771 -0.6129 -0.0789  0.3269
 9255TIP3    H127708   1.464   0.141   6.796  0.6867  0.1130 -1.9897
 9255TIP3    H227709   1.344   0.170   6.709  0.0049  0.7526 -0.8654
 9256TIP3   OH227710   4.814   6.834   2.452  0.1418  0.1394  0.1923
 9256TIP3    H127711   4.910   6.839   2.453  0.1269  0.6357  1.5163
 9256TIP3    H227712   4.791   6.807   2.541 -1.0147  2.0234  0.5138
 9257TIP3   OH227713   0.880   3.421   4.862 -0.2529  0.0694 -0.3146
 9257TIP3    H127714   0.945   3.371   4.814 -0.5008 -0.9540  0.3686
 9257TIP3    H227715   0.860   3.496   4.806  0.7721 -0.1360 -0.9711
 9258TIP3   OH227716   1.954   6.020   1.989 -0.2575 -0.2790 -0.2373
 9258TIP3    H127717   2.029   6.072   2.019 -1.6511  1.6632  0.1290
 9258TIP3    H227718   1.948   6.039   1.895  0.1723 -1.0525 -0.4211
 9259TIP3   OH227719   0.745   0.203   6.280  0.3472  0.1253  0.4272
 9259TIP3    H127720   0.745   0.243   6.367  0.5810 -0.7143  0.8197
 9259TIP3    H227721   0.821   0.243   6.236  2.8210 -2.4092  2.0325
 9260TIP3   OH227722   7.595   1.793   1.634  0.4472  0.1585  0.0966
 9260TIP3    H127723   7.552   1.853   1.573 -0.4528  0.0292  0.5788
 9260TIP3    H227724   7.552   1.708   1.619  1.0814 -0.1626  0.0492
 9261TIP3   OH227725   2.812   4.489   1.141  0.0878 -0.3031 -0.7193
 9261TIP3    H127726   2.844   4.410   1.096 -0.2903 -0.4270 -0.7727
 9261TIP3    H227727   2.730   4.510   1.096  0.8228  0.8777 -1.5857
 9262TIP3   OH227728   7.778   1.551   5.883 -0.3475 -0.1360 -1.0632
 9262TIP3    H127729   7.835   1.614   5.840  0.2189 -0.3819 -0.6820
 9262TIP3    H227730   7.818   1.466   5.865 -1.5241 -0.4825 -2.2382
 9263TIP3   OH227731   0.785   7.687   1.694  0.3913  0.4539 -0.1766
 9263TIP3    H127732   0.800   7.628   1.620 -1.4628 -0.0772 -0.1775
 9263TIP3    H227733   0.796   7.775   1.657  2.3172  0.1661 -0.3755
 9264TIP3   OH227734   6.909   1.220   4.392 -0.5473  0.1543 -0.6844
 9264TIP3    H127735   6.962   1.300   4.394  2.9022 -1.9635  0.3607
 9264TIP3    H227736   6.862   1.220   4.476 -0.5279  0.9893 -0.6607
 9265TIP3   OH227737   5.316   6.542   3.297 -0.0918  0.2840  0.1276
 9265TIP3    H127738   5.242   6.485   3.321  0.6179 -0.6073  0.2296
 9265TIP3    H227739   5.307   6.617   3.356 -0.2986 -0.3220  0.8889
 9266TIP3   OH227740   5.537   4.408   6.795  0.0553 -0.9132 -0.2015
 9266TIP3    H127741   5.563   4.387   6.705 -3.0714  0.8757 -1.7010
 9266TIP3    H227742   5.463   4.350   6.814 -1.2632  0.7248 -0.0395
 9267TIP3   OH227743   3.408   5.749   2.544  0.1359 -0.4625  0.6775
 9267TIP3    H127744   3.433   5.700   2.466  1.3718 -0.1295  0.8322
 9267TIP3    H227745   3.440   5.838   2.527 -1.8741  0.2711  0.4862
 9268TIP3   OH227746   1.938   5.573   0.644  0.1989 -0.1758 -0.5039
 9268TIP3    H127747   1.944   5.477   0.645 -0.8114 -0.2560  0.2272
 9268TIP3    H227748   1.884   5.594   0.721  0.2717  0.9690 -0.7511
 9269TIP3   OH227749   0.979   2.347   5.977  0.4318  0.5733 -0.4339
 9269TIP3    H127750   0.927   2.341   5.897 -0.4681  0.1729  0.1614
 9269TIP3    H227751   1.043   2.416   5.960 -1.4331  2.3349 -0.5642
 9270TIP3   OH227752   1.462   2.994   3.024  0.4144  0.4372 -0.9557
 9270TIP3    H127753   1.496   3.044   3.099 -0.5570  0.5269 -0.5562
 9270TIP3    H227754   1.517   3.021   2.951  1.6082  0.1007 -0.2307
 9271TIP3   OH227755   4.636   6.549   5.965  0.1182  0.1714  0.7994
 9271TIP3    H127756   4.729   6.527   5.968  0.3378  0.4164 -1.8471
 9271TIP3    H227757   4.633   6.641   5.992  0.7213  0.3328  0.3348
 9272TIP3   OH227758   4.138   3.110   3.462  0.3000  0.0198  0.2963
 9272TIP3    H127759   4.052   3.094   3.423  1.2136  0.6837 -2.1056
 9272TIP3    H227760   4.118   3.137   3.552 -2.0638  1.1400 -0.4929
 9273TIP3   OH227761   3.459   2.063   5.873  0.8441 -0.2132  0.1454
 9273TIP3    H127762   3.397   2.133   5.853  0.9618  0.1422  0.9848
 9273TIP3    H227763   3.519   2.062   5.798  1.6351  1.4847  0.6991
 9274TIP3   OH227764   1.307   0.513   2.743 -0.2514 -0.2847 -0.0546
 9274TIP3    H127765   1.341   0.602   2.732 -0.9204 -0.3636 -4.8927
 9274TIP3    H227766   1.383   0.457   2.733  0.0191 -0.4163  2.1173
 9275TIP3   OH227767   4.624   7.841   0.017  0.6879  0.3800 -0.1066
 9275TIP3    H127768   4.634   7.753  -0.019 -1.5275 -0.0014  0.0988
 9275TIP3    H227769   4.629   7.830   0.111  1.8700  0.7232 -0.1087
 9276TIP3   OH227770   6.934   5.679   4.313 -0.0897  0.0020 -0.3694
 9276TIP3    H127771   6.996   5.741   4.274 -0.2885  2.0809  2.2846
 9276TIP3    H227772   6.849   5.721   4.303 -0.2622  0.0996  1.2857
 9277TIP3   OH227773   5.657   2.130   6.539  0.2567  0.0222  0.0227
 9277TIP3    H127774   5.593   2.149   6.470  0.4828 -0.2423 -0.2666
 9277TIP3    H227775   5.731   2.186   6.519 -0.6924  1.9442  1.6006
 9278TIP3   OH227776   6.002   7.536   0.532  0.1530  0.1104  0.1239
 9278TIP3    H127777   6.082   7.573   0.567  0.3593 -0.8939  0.7501
 9278TIP3    H227778   5.999   7.447   0.567  0.6993 -1.2205 -2.8597
 9279TIP3   OH227779   7.902   6.292   3.761 -0.0889 -0.1931  0.1451
 9279TIP3    H127780   7.990   6.296   3.723 -0.4440 -0.5158 -0.7215
 9279TIP3    H227781   7.918   6.273   3.854  0.7321 -1.0956 -0.1607
 9280TIP3   OH227782   0.707   3.895   6.134 -0.2901  0.3572  0.0892
 9280TIP3    H127783   0.764   3.859   6.065 -0.0713  0.6484  0.1140
 9280TIP3    H227784   0.768   3.921   6.203 -0.5677 -0.6753  0.7434
 9281TIP3   OH227785   4.137   4.074   6.180  0.3454 -0.4340  0.0204
 9281TIP3    H127786   4.140   4.063   6.275  0.1615 -2.2091 -0.1393
 9281TIP3    H227787   4.215   4.027   6.148  1.8788  2.3071 -0.5968
 9282TIP3   OH227788   4.476   3.203   1.010 -0.1948  0.0243 -0.8599
 9282TIP3    H127789   4.482   3.281   1.066  0.9795 -0.7800  0.1969
 9282TIP3    H227790   4.385   3.175   1.018  0.4099 -1.4822  2.7643
 9283TIP3   OH227791   3.495   6.641   6.758  0.1723  0.2394  0.4364
 9283TIP3    H127792   3.439   6.659   6.834 -0.7452  0.2274 -0.2332
 9283TIP3    H227793   3.483   6.548   6.740  3.1802 -0.7148  2.4771
 9284TIP3   OH227794   7.015   7.782   2.690  0.2724  0.1711 -0.0623
 9284TIP3    H127795   7.056   7.867   2.708 -0.6560  0.5812  0.1466
 9284TIP3    H227796   6.921   7.799   2.693  0.0761 -0.6524 -1.0660
 9285TIP3   OH227797   5.876   1.125   4.559  0.1975  0.3196  0.0691
 9285TIP3    H127798   5.909   1.180   4.488 -0.5818 -0.4372 -0.9078
 9285TIP3    H227799   5.903   1.036   4.536 -2.2983 -0.3237 -0.7249
 9286TIP3   OH227800   0.809   5.522   4.055 -0.1625  0.0034  0.0545
 9286TIP3    H127801   0.893   5.566   4.067 -0.7948  0.9861  1.0550
 9286TIP3    H227802   0.828   5.430   4.076  0.6599  0.1999  0.2361
 9287TIP3   OH227803   4.493   1.294   3.399 -0.3253  0.0565 -0.3945
 9287TIP3    H127804   4.537   1.320   3.319  0.1129 -0.1553 -0.2281
 9287TIP3    H227805   4.414   1.348   3.403 -0.2356  0.2194 -0.8530
 9288TIP3   OH227806   2.376   5.769   4.880 -0.2494 -0.0277  0.0841
 9288TIP3    H127807   2.472   5.773   4.872 -0.1515 -2.8605 -1.3127
 9288TIP3    H227808   2.347   5.725   4.801 -2.5717 -0.8508  1.3060
 9289TIP3   OH227809   0.634   2.953   5.111 -0.1151 -0.0350  0.1283
 9289TIP3    H127810   0.578   3.029   5.094  0.1449 -0.2363 -1.8613
 9289TIP3    H227811   0.718   2.991   5.137 -0.1351  0.3519 -0.3511
 9290TIP3   OH227812   0.254   5.618   5.292  0.2299  0.1466  0.3726
 9290TIP3    H127813   0.314   5.547   5.312 -0.0548  0.0410  0.8448
 9290TIP3    H227814   0.310   5.686   5.252  0.2222 -1.0922 -1.9552
 9291TIP3   OH227815   1.141   3.878   0.146  0.8745  0.0459  0.3109
 9291TIP3    H127816   1.046   3.866   0.145  0.6524  1.5288 -0.5838
 9291TIP3    H227817   1.158   3.927   0.226  0.4541  2.2943 -0.8803
 9292TIP3   OH227818   4.989   5.578   1.773  0.7957  0.2223  0.5960
 9292TIP3    H127819   5.068   5.625   1.800  1.4623 -0.3589 -0.2538
 9292TIP3    H227820   5.009   5.548   1.684 -0.7909  0.9489 -0.0423
 9293TIP3   OH227821   3.261   5.468   0.467  0.3306 -0.7253  0.1760
 9293TIP3    H127822   3.170   5.474   0.441  0.3679 -2.2362 -0.3782
 9293TIP3    H227823   3.266   5.389   0.522  1.3300 -0.7764  0.0342
 9294TIP3   OH227824   2.929   6.038   0.774 -0.0978 -0.2761 -0.1478
 9294TIP3    H127825   3.009   6.049   0.723  1.6834 -0.7781  2.3822
 9294TIP3    H227826   2.899   6.128   0.789 -0.7348 -0.1108 -2.0400
 9295TIP3   OH227827   4.943   1.103   3.378  0.1207  0.0378 -0.5152
 9295TIP3    H127828   4.848   1.106   3.392  0.0435  0.4231 -1.0825
 9295TIP3    H227829   4.972   1.193   3.394  0.1000  0.3813 -2.2465
 9296TIP3   OH227830   4.699   6.406   4.925 -0.1103 -0.1225 -0.4749
 9296TIP3    H127831   4.751   6.351   4.984  0.3612 -1.2045 -1.8492
 9296TIP3    H227832   4.657   6.470   4.983  0.8010 -0.7648  0.9548
 9297TIP3   OH227833   8.276   0.882   1.769 -0.1871  0.5650  0.2336
 9297TIP3    H127834   8.226   0.964   1.774 -0.3280  0.4199  1.6218
 9297TIP3    H227835   8.236   0.834   1.697 -1.2510  0.9828  0.5300
 9298TIP3   OH227836   8.189   3.884   4.111  0.1245  0.1175 -0.0651
 9298TIP3    H127837   8.185   3.794   4.145  1.0218 -0.6293 -1.8054
 9298TIP3    H227838   8.176   3.874   4.017 -1.9490  2.0621 -0.0518
 9299TIP3   OH227839   4.334   2.617   2.025 -0.6712  0.9789  0.1803
 9299TIP3    H127840   4.406   2.654   1.976  0.2075 -1.1966 -0.2713
 9299TIP3    H227841   4.322   2.529   1.989 -1.4121  0.0902  2.3898
 9300TIP3   OH227842   4.237   0.205   2.716  0.2813  0.3305  0.4330
 9300TIP3    H127843   4.198   0.166   2.637 -0.0980  1.8412 -0.1589
 9300TIP3    H227844   4.201   0.154   2.788  0.5536 -1.0208 -0.3560
 9301TIP3   OH227845   2.602   2.850   0.337  0.1831 -0.0125 -0.3445
 9301TIP3    H127846   2.585   2.756   0.332  0.3850 -0.1168  0.6333
 9301TIP3    H227847   2.573   2.874   0.425  1.7078  0.4926  0.0515
 9302TIP3   OH227848   6.440   4.859   2.628  0.9934 -0.6829  0.4805
 9302TIP3    H127849   6.385   4.899   2.560  1.3974  0.8743  1.0348
 9302TIP3    H227850   6.469   4.777   2.589  0.3450 -0.3334 -0.8152
 9303TIP3   OH227851   0.799   7.017   1.674  0.1573 -0.6595  0.2716
 9303TIP3    H127852   0.844   7.086   1.722 -1.5356  0.4384  0.3805
 9303TIP3    H227853   0.798   7.047   1.584  0.1678 -0.9667  0.1679
 9304TIP3   OH227854   2.612   4.569   5.555 -0.6097  0.6724  0.5586
 9304TIP3    H127855   2.582   4.650   5.514  0.6210  0.9308  0.1321
 9304TIP3    H227856   2.538   4.541   5.608 -0.6942  2.6513  1.5840
 9305TIP3   OH227857   5.537   2.271   1.368  0.1896  0.5779 -0.1925
 9305TIP3    H127858   5.626   2.268   1.334 -0.2579 -0.2993 -1.3793
 9305TIP3    H227859   5.509   2.361   1.353 -0.3382  0.0256 -3.2832
 9306TIP3   OH227860   7.487   1.452   4.095  0.5029  0.1646 -0.6424
 9306TIP3    H127861   7.437   1.370   4.104 -0.4910  0.9147  1.2603
 9306TIP3    H227862   7.445   1.497   4.021 -3.0218  1.5752  1.9533
 9307TIP3   OH227863   0.212   2.658   4.372 -0.1105  0.3793  0.3265
 9307TIP3    H127864   0.217   2.584   4.433 -0.7791 -0.1678 -0.2732
 9307TIP3    H227865   0.218   2.735   4.428 -3.4999 -0.0272  1.4887
 9308TIP3   OH227866   6.654   5.539   5.453 -0.7346 -0.6008 -0.4867
 9308TIP3    H127867   6.563   5.514   5.469 -1.0437  0.2705 -0.8118
 9308TIP3    H227868   6.649   5.610   5.390 -0.0099  1.2571  1.3973
 9309TIP3   OH227869   1.306   7.390   6.117 -0.5083  0.1022 -0.9030
 9309TIP3    H127870   1.351   7.306   6.124 -0.2367  0.1368 -2.0205
 9309TIP3    H227871   1.264   7.402   6.202  0.6624 -0.4633 -0.2219
 9310TIP3   OH227872   6.877   4.547   6.327  0.5652 -0.4704  0.1171
 9310TIP3    H127873   6.854   4.544   6.420  0.6446 -0.5251  0.1354
 9310TIP3    H227874   6.918   4.462   6.310  0.3262 -0.5571 -0.0268
 9311TIP3   OH227875   1.505   4.793   4.488 -0.1045 -0.0025 -0.0816
 9311TIP3    H127876   1.454   4.804   4.407  0.2979  0.4338 -0.2785
 9311TIP3    H227877   1.558   4.715   4.472 -1.4920 -1.1166  0.5450
 9312TIP3   OH227878   0.412   1.928   0.400  0.4064 -0.1012 -0.5196
 9312TIP3    H127879   0.504   1.952   0.388 -0.0257  2.2214  0.1665
 9312TIP3    H227880   0.371   2.009   0.432 -1.8094 -1.1719 -0.4878
 9313TIP3   OH227881   0.741   5.348   2.242  0.0348  0.2078  0.4632
 9313TIP3    H127882   0.703   5.388   2.164 -2.2287 -0.4211  1.1659
 9313TIP3    H227883   0.753   5.256   2.218 -0.5293  0.0449  0.7855
 9314TIP3   OH227884   6.323   1.381   3.089 -0.1895  0.6585 -0.3866
 9314TIP3    H127885   6.273   1.397   3.008 -0.7274  1.2264  0.0478
 9314TIP3    H227886   6.275   1.428   3.157  0.7866  0.9904  0.1017
 9315TIP3   OH227887   0.692   4.913   3.748 -0.3620 -0.6648 -0.8876
 9315TIP3    H127888   0.714   4.978   3.681  0.1345 -1.3055 -1.3626
 9315TIP3    H227889   0.654   4.964   3.820  2.5702  0.5592 -0.0545
 9316TIP3   OH227890   3.639   7.564   3.127 -0.5839 -0.0491  0.3983
 9316TIP3    H127891   3.576   7.511   3.176 -0.9885  0.3508  0.3110
 9316TIP3    H227892   3.696   7.499   3.084 -1.2142 -0.4165  0.1076
 9317TIP3   OH227893   8.007   2.686   4.236 -0.2166  0.7083  0.6312
 9317TIP3    H127894   8.099   2.696   4.216  0.2041 -1.2072  1.3840
 9317TIP3    H227895   7.975   2.776   4.248  0.5707  1.7142 -3.4439
 9318TIP3   OH227896   6.463   3.878   0.887 -0.0320 -0.3230  0.3147
 9318TIP3    H127897   6.431   3.802   0.936  0.3044  0.5720  2.0120
 9318TIP3    H227898   6.558   3.871   0.891  0.0016  0.1228  0.4063
 9319TIP3   OH227899   6.887   3.708   5.652  0.3827  0.1933  0.1242
 9319TIP3    H127900   6.822   3.739   5.589  1.0617 -0.7968 -1.1192
 9319TIP3    H227901   6.938   3.643   5.603  0.3796 -1.2739  1.9676
 9320TIP3   OH227902   2.849   1.542   2.126 -0.4677  0.3326  0.8094
 9320TIP3    H127903   2.816   1.562   2.038 -1.3696 -0.3484  0.9832
 9320TIP3    H227904   2.866   1.628   2.165  1.5856  0.6536 -0.6089
 9321TIP3   OH227905   2.367   2.540   3.150 -0.2981 -0.0780 -0.1559
 9321TIP3    H127906   2.319   2.590   3.216 -1.6942 -2.1845  0.5242
 9321TIP3    H227907   2.440   2.501   3.198  0.6398  1.0211 -0.6320
 9322TIP3   OH227908   1.221   3.141   3.141  0.4911  0.2720  0.3268
 9322TIP3    H127909   1.227   3.115   3.049  3.8744 -1.7147  0.9160
 9322TIP3    H227910   1.209   3.059   3.188  0.2577  1.0839  1.7393
 9323TIP3   OH227911   8.304   5.426   5.452 -0.5146  0.1200  0.1165
 9323TIP3    H127912   8.267   5.405   5.366 -0.1778  0.9979 -0.2555
 9323TIP3    H227913   8.272   5.515   5.471  0.1364  0.2796  0.4927
 9324TIP3   OH227914   3.874   1.181   3.249 -0.2194 -0.4344  0.0563
 9324TIP3    H127915   3.894   1.220   3.164  0.9370 -0.6541  0.2077
 9324TIP3    H227916   3.957   1.185   3.297 -0.6628 -1.0043  0.8969
 9325TIP3   OH227917   7.558   7.301   1.573  0.0159  0.5428 -0.0197
 9325TIP3    H127918   7.609   7.299   1.654 -0.0565  2.1975  0.1135
 9325TIP3    H227919   7.608   7.248   1.512  0.5760  0.0660  0.8251
 9326TIP3   OH227920   8.302   0.197   6.473 -0.1545 -0.2547 -0.1275
 9326TIP3    H127921   8.324   0.287   6.448 -0.1355  0.0940  1.0983
 9326TIP3    H227922   8.211   0.186   6.446 -0.3750  0.3746  0.3240
 9327TIP3   OH227923   3.999   2.090   4.711 -0.8664  0.0928  0.1172
 9327TIP3    H127924   4.052   2.013   4.729 -0.5113  0.0051 -1.1859
 9327TIP3    H227925   4.056   2.164   4.735 -1.0729 -0.0344  1.0199
 9328TIP3   OH227926   3.669   6.033   6.533  0.2846 -0.1985 -0.1600
 9328TIP3    H127927   3.701   6.058   6.447 -0.1247  0.3954 -0.1468
 9328TIP3    H227928   3.580   6.068   6.537  0.4199  0.0829  0.6325
 9329TIP3   OH227929   1.615   3.608   2.331 -0.0971  0.3786  0.1873
 9329TIP3    H127930   1.632   3.578   2.241  2.3694 -1.1800  1.0822
 9329TIP3    H227931   1.523   3.584   2.346 -0.3574  0.0085 -1.6627
 9330TIP3   OH227932   4.514   2.934   2.670  0.7494 -0.2425  0.0913
 9330TIP3    H127933   4.504   3.027   2.648  1.4876 -0.4590 -1.2802
 9330TIP3    H227934   4.457   2.888   2.608  0.1102 -0.6953  1.0014
 9331TIP3   OH227935   2.717   2.773   2.259  0.1653  0.1649 -0.2897
 9331TIP3    H127936   2.693   2.866   2.263 -0.5913 -0.0574  0.8064
 9331TIP3    H227937   2.636   2.730   2.233 -0.0353 -0.3714  1.1408
 9332TIP3   OH227938   1.897   7.148   1.456  0.7501  0.6029  0.2623
 9332TIP3    H127939   1.825   7.188   1.409 -0.9804  1.5392  3.3816
 9332TIP3    H227940   1.969   7.211   1.448  0.2142  1.1443 -0.3658
 9333TIP3   OH227941   4.598   2.090   3.992  0.4366  0.1212 -0.2287
 9333TIP3    H127942   4.574   2.045   3.910 -0.9441  2.0886 -0.9826
 9333TIP3    H227943   4.662   2.156   3.965  0.8140  0.0481  0.4737
 9334TIP3   OH227944   6.928   5.215   1.119 -0.4440 -0.2192 -0.1118
 9334TIP3    H127945   6.896   5.297   1.157  1.7366  0.7259 -0.1631
 9334TIP3    H227946   6.861   5.191   1.055 -2.0530  0.4793  1.2285
 9335TIP3   OH227947   4.638   2.264   5.463  0.8003  0.0233 -0.1131
 9335TIP3    H127948   4.613   2.218   5.383 -0.2960  1.6002 -0.7340
 9335TIP3    H227949   4.673   2.348   5.432  2.8070 -0.3433  0.9701
 9336TIP3   OH227950   3.238   7.341   0.534  0.1059 -0.2010  0.2087
 9336TIP3    H127951   3.286   7.353   0.452  0.7631  2.4248  0.8858
 9336TIP3    H227952   3.195   7.426   0.549  0.4013 -0.4375  2.8065
 9337TIP3   OH227953   0.787   0.392   2.016  0.2383  0.0531 -0.2769
 9337TIP3    H127954   0.826   0.479   2.007  1.2767 -0.3093  0.5076
 9337TIP3    H227955   0.861   0.334   2.033 -0.4001 -1.0598 -1.1785
 9338TIP3   OH227956   7.433   6.224   0.846 -0.2056 -0.4901  0.4058
 9338TIP3    H127957   7.479   6.140   0.845  1.0994  0.1880  0.6538
 9338TIP3    H227958   7.433   6.251   0.937  0.6652  0.4151  0.1691
 9339TIP3   OH227959   6.098   2.170   4.372  0.5322  0.4141  0.0410
 9339TIP3    H127960   6.012   2.213   4.369  0.0496 -0.5664 -0.6401
 9339TIP3    H227961   6.153   2.222   4.313  0.4638  1.1595  0.6297
 9340TIP3   OH227962   5.644   1.788   4.803  0.2122 -0.6996  0.0245
 9340TIP3    H127963   5.554   1.768   4.830  0.7494 -1.8987  0.9951
 9340TIP3    H227964   5.688   1.703   4.799  1.3441 -0.1173 -0.3113
 9341TIP3   OH227965   2.082   6.354   5.995 -0.7480 -0.2396 -0.2203
 9341TIP3    H127966   2.023   6.389   5.928  1.2674 -0.8125 -2.4229
 9341TIP3    H227967   2.038   6.275   6.027 -1.9310  0.2543 -0.5823
 9342TIP3   OH227968   5.908   7.262   6.623  0.3116 -0.1825  1.0487
 9342TIP3    H127969   5.882   7.350   6.595  2.4696 -0.2232 -1.5698
 9342TIP3    H227970   5.841   7.235   6.685 -1.9154  2.2440 -0.1137
 9343TIP3   OH227971   3.301   7.269   4.897 -0.7099 -0.0697  0.4228
 9343TIP3    H127972   3.209   7.280   4.918 -0.9028  0.5837 -0.7368
 9343TIP3    H227973   3.332   7.357   4.873 -0.5242 -0.7407 -2.0431
 9344TIP3   OH227974   0.067   6.763   2.992  0.5101  0.3189  0.2239
 9344TIP3    H127975   0.157   6.787   3.017  0.6722  1.4603 -1.3053
 9344TIP3    H227976   0.074   6.730   2.903 -0.4722 -0.5253  0.4398
 9345TIP3   OH227977   1.476   0.893   5.402 -0.0298 -0.5612  0.3708
 9345TIP3    H127978   1.408   0.826   5.406 -2.5956  1.7250 -1.4344
 9345TIP3    H227979   1.470   0.939   5.486 -2.8451  1.3639 -0.7249
 9346TIP3   OH227980   4.247   7.630   3.377 -0.0037 -0.4308  0.1669
 9346TIP3    H127981   4.279   7.679   3.301  0.4505 -2.0478 -0.7304
 9346TIP3    H227982   4.323   7.623   3.435  0.7619 -2.3823 -0.9698
 9347TIP3   OH227983   1.437   7.661   6.249 -0.2832 -0.2258 -0.0251
 9347TIP3    H127984   1.505   7.647   6.183 -0.0220 -1.7910  0.5478
 9347TIP3    H227985   1.388   7.579   6.251 -1.2877  0.3660  0.6203
 9348TIP3   OH227986   4.559   4.115   2.888  0.2044  0.1336  0.2835
 9348TIP3    H127987   4.615   4.045   2.922  0.0474 -0.3149 -0.3561
 9348TIP3    H227988   4.553   4.097   2.794 -0.0932  0.8289  0.1644
 9349TIP3   OH227989   1.027   7.768   1.833 -0.2072  0.0274  0.1079
 9349TIP3    H127990   0.945   7.790   1.788 -0.3641 -0.1644  0.2998
 9349TIP3    H227991   1.006   7.777   1.926  0.0218  0.0881  0.1527
 9350TIP3   OH227992   7.706   3.553   0.821  0.6992 -0.1238 -0.1871
 9350TIP3    H127993   7.800   3.556   0.839  0.5803  0.1094  0.4358
 9350TIP3    H227994   7.674   3.640   0.843  0.6431  0.4397 -2.2894
 9351TIP3   OH227995   2.217   4.455   2.702 -0.2137  0.3850 -0.0931
 9351TIP3    H127996   2.185   4.478   2.790 -0.5990  1.6704 -0.5511
 9351TIP3    H227997   2.145   4.479   2.644 -1.0117 -2.7729 -0.5890
 9352TIP3   OH227998   7.924   4.316   4.693  0.6974  0.4073 -0.0406
 9352TIP3    H127999   7.833   4.289   4.685  0.2945  1.7487 -0.2611
 9352TIP3    H228000   7.921   4.411   4.686  2.2199  0.4139 -1.0488
 9353TIP3   OH228001   3.910   2.187   3.403 -0.4930 -0.2915  0.3685
 9353TIP3    H128002   3.879   2.129   3.473 -1.2693  0.6023  0.7852
 9353TIP3    H228003   3.933   2.268   3.449 -2.5946  0.9089 -0.5831
 9354TIP3   OH228004   4.226   1.026   0.640  0.3018 -0.0451 -0.0834
 9354TIP3    H128005   4.314   1.000   0.669  0.4196 -0.2731 -0.6307
 9354TIP3    H228006   4.196   1.087   0.708  1.1312  0.5167 -0.1996
 9355TIP3   OH228007   0.248   2.902   1.689  0.0280  0.3491 -0.0578
 9355TIP3    H128008   0.205   2.937   1.766 -1.1069 -0.2613 -0.3888
 9355TIP3    H228009   0.229   2.964   1.619 -1.0933 -0.3557 -0.4039
 9356TIP3   OH228010   4.082   0.586   5.354  0.3247 -0.3696  0.1025
 9356TIP3    H128011   4.092   0.630   5.439  0.2077  1.4275 -0.7711
 9356TIP3    H228012   4.135   0.507   5.362 -0.5994 -0.8609  2.2424
 9357TIP3   OH228013   7.405   0.371   1.259 -0.3405 -0.0494 -0.4463
 9357TIP3    H128014   7.458   0.404   1.331  0.6229 -1.6866 -0.3518
 9357TIP3    H228015   7.444   0.409   1.181  0.7913 -0.9690 -0.3475
 9358TIP3   OH228016   2.048   7.762   4.884 -0.1810  0.0934 -0.3179
 9358TIP3    H128017   2.064   7.856   4.887 -2.5939  0.6041 -0.8933
 9358TIP3    H228018   2.080   7.729   4.968  0.3183  1.4861  0.0637
 9359TIP3   OH228019   6.149   0.561   0.953 -0.7325  0.6533  0.1243
 9359TIP3    H128020   6.244   0.552   0.960 -0.9987 -2.2775  1.7104
 9359TIP3    H228021   6.129   0.533   0.863 -0.1103  1.2574 -0.2077
 9360TIP3   OH228022   8.226   0.288   1.586 -0.1590 -0.2192  0.0016
 9360TIP3    H128023   8.191   0.201   1.566 -0.0816 -0.0505 -0.9194
 9360TIP3    H228024   8.243   0.286   1.680 -1.5429 -0.6963  0.2612
 9361TIP3   OH228025   7.712   2.970   2.509  0.5220 -0.4513  0.5579
 9361TIP3    H128026   7.746   2.996   2.595  0.7862 -0.3364  0.4184
 9361TIP3    H228027   7.662   2.890   2.526  1.1479 -0.8128  0.7071
 9362TIP3   OH228028   3.277   1.209   2.580 -0.2561  0.2256  0.0070
 9362TIP3    H128029   3.337   1.135   2.593 -2.6605 -1.8089  0.4036
 9362TIP3    H228030   3.327   1.271   2.528  2.2149 -1.2663  0.4099
 9363TIP3   OH228031   0.747   0.548   3.593  0.3291  0.0472  0.6395
 9363TIP3    H128032   0.813   0.590   3.648 -0.0261  0.8876  0.4468
 9363TIP3    H228033   0.706   0.482   3.650  0.2568  0.6142  1.2519
 9364TIP3   OH228034   3.103   2.316   0.317 -0.9081 -0.1718 -0.1890
 9364TIP3    H128035   3.012   2.327   0.347 -0.6710  1.7035 -0.0505
 9364TIP3    H228036   3.106   2.363   0.234 -0.3455 -1.2700 -0.8100
 9365TIP3   OH228037   5.655   7.258   4.157  0.3860 -0.4388  0.3473
 9365TIP3    H128038   5.656   7.202   4.078  1.1196  0.3055 -0.1923
 9365TIP3    H228039   5.687   7.343   4.126  2.6148 -0.6619  1.8145
 9366TIP3   OH228040   4.073   1.055   4.853  0.3564 -0.1847 -0.5875
 9366TIP3    H128041   4.021   1.057   4.934  0.2206 -0.6341 -0.6597
 9366TIP3    H228042   4.067   0.964   4.823 -0.9266  0.2986 -1.9519
 9367TIP3   OH228043   5.065   1.269   1.539  0.2221  0.4002 -0.4424
 9367TIP3    H128044   5.022   1.189   1.509  1.3388  0.4529 -2.3750
 9367TIP3    H228045   5.112   1.301   1.462  0.4724  2.4825  0.5036
 9368TIP3   OH228046   7.729   7.196   5.112 -0.5712 -0.1162 -0.7385
 9368TIP3    H128047   7.713   7.151   5.028  0.7712  1.2224 -1.7657
 9368TIP3    H228048   7.712   7.288   5.093 -0.1599  0.2173  0.4543
 9369TIP3   OH228049   7.982   5.280   2.792 -0.2932  0.4642  0.1826
 9369TIP3    H128050   8.044   5.248   2.727 -1.5093 -1.6993 -0.0380
 9369TIP3    H228051   7.951   5.364   2.757  0.1949  0.0720 -1.2756
 9370TIP3   OH228052   4.256   3.721   2.099  0.2308 -0.0183  0.3144
 9370TIP3    H128053   4.347   3.692   2.101  0.2393  0.0199  0.4684
 9370TIP3    H228054   4.220   3.681   2.020  0.6501  0.7726 -0.2958
 9371TIP3   OH228055   6.164   4.148   6.736  0.0433  0.0991 -0.2412
 9371TIP3    H128056   6.203   4.102   6.661  0.4490  0.6111 -0.3482
 9371TIP3    H228057   6.076   4.112   6.742  0.6841 -1.4492  0.3209
 9372TIP3   OH228058   1.313   6.723   1.535 -0.0192 -0.4165 -0.0894
 9372TIP3    H128059   1.390   6.771   1.505 -0.2331  0.2616  0.4309
 9372TIP3    H228060   1.287   6.670   1.459 -0.2375  0.8683 -0.9437
 9373TIP3   OH228061   2.849   5.969   5.303  0.4046 -0.4531  0.5584
 9373TIP3    H128062   2.755   5.954   5.313  0.0667  1.0220 -0.1365
 9373TIP3    H228063   2.890   5.895   5.347 -1.0880 -1.8822 -0.3603
 9374TIP3   OH228064   4.429   5.974   6.208  0.2385 -0.7597  0.0731
 9374TIP3    H128065   4.352   5.940   6.164  0.9788 -1.3162 -0.8227
 9374TIP3    H228066   4.426   6.069   6.193 -1.3104 -0.4807  1.7554
 9375TIP3   OH228067   7.449   0.638   5.846  0.5800  0.5048  0.2442
 9375TIP3    H128068   7.438   0.550   5.883 -0.0242  0.6348  0.3907
 9375TIP3    H228069   7.399   0.695   5.905  1.1543  0.9793  0.2774
 9376TIP3   OH228070   7.621   2.136   0.532 -0.1727  0.2922  0.1625
 9376TIP3    H128071   7.536   2.098   0.552 -1.3783  1.8714 -1.5955
 9376TIP3    H228072   7.659   2.157   0.618 -0.8256 -1.8460  1.0232
 9377TIP3   OH228073   5.594   5.534   1.561 -0.2758  0.2026  0.3704
 9377TIP3    H128074   5.606   5.491   1.646 -0.2552  1.1642  0.8732
 9377TIP3    H228075   5.660   5.496   1.504  0.0026 -0.1357  0.9167
 9378TIP3   OH228076   5.401   1.863   6.638 -0.2401  0.0331 -0.3075
 9378TIP3    H128077   5.451   1.782   6.650 -2.0647 -0.9865  1.1093
 9378TIP3    H228078   5.342   1.843   6.565  1.6878  1.4361 -2.3780
 9379TIP3   OH228079   2.037   3.625   6.219 -0.5602 -0.3527 -0.2557
 9379TIP3    H128080   2.032   3.721   6.226  0.3292 -0.3525  0.6041
 9379TIP3    H228081   1.949   3.595   6.245 -0.2391  0.1574  1.5755
 9380TIP3   OH228082   5.650   6.950   1.041 -0.3252 -0.4151  0.1368
 9380TIP3    H128083   5.644   6.937   0.946 -0.0571  0.4220 -0.0045
 9380TIP3    H228084   5.590   7.021   1.059  0.6141  0.3391  0.3874
 9381TIP3   OH228085   3.913   5.468   4.971  0.2630 -0.2470  0.4874
 9381TIP3    H128086   3.876   5.382   4.989  3.2196 -1.1262  3.3663
 9381TIP3    H228087   3.906   5.515   5.054 -0.0452  1.8412 -0.6532
 9382TIP3   OH228088   5.356   0.063   2.066  0.0252 -0.3551  0.1324
 9382TIP3    H128089   5.284   0.105   2.018  1.4838  1.9077 -0.2059
 9382TIP3    H228090   5.366   0.115   2.145  0.0684 -1.8448  1.1502
 9383TIP3   OH228091   1.448   0.831   4.738  0.0619  0.1906  0.4913
 9383TIP3    H128092   1.530   0.801   4.699 -1.2034 -1.3270 -1.1608
 9383TIP3    H228093   1.441   0.782   4.820  0.2798 -0.5094  0.0991
 9384TIP3   OH228094   2.180   0.863   2.968 -0.5401  0.3355  0.1848
 9384TIP3    H128095   2.237   0.832   2.897 -1.0427 -0.7033  0.2194
 9384TIP3    H228096   2.240   0.887   3.038 -0.0775  0.6487 -0.3086
 9385TIP3   OH228097   1.543   4.892   1.857  0.1997 -0.2377  0.4606
 9385TIP3    H128098   1.621   4.873   1.803 -0.1579 -3.1597  0.8083
 9385TIP3    H228099   1.570   4.871   1.946 -0.9253 -1.1735  0.6002
 9386TIP3   OH228100   4.239   0.433   5.783 -0.2335  0.0012  0.3825
 9386TIP3    H128101   4.294   0.452   5.859  0.7824 -0.3202 -0.2475
 9386TIP3    H228102   4.264   0.344   5.758 -0.0623  0.3434 -0.7197
 9387TIP3   OH228103   7.700   4.986   4.081 -0.8097  0.1564 -0.0602
 9387TIP3    H128104   7.789   5.005   4.050 -0.0608 -3.2288 -0.3820
 9387TIP3    H228105   7.674   5.064   4.130  1.8700  1.7051 -0.9197
 9388TIP3   OH228106   2.559   0.765   3.248 -0.0780  0.7744  0.1167
 9388TIP3    H128107   2.575   0.698   3.183 -0.5569  0.1255  0.6538
 9388TIP3    H228108   2.487   0.731   3.301 -1.5996  2.4976 -0.7138
 9389TIP3   OH228109   7.020   0.789   3.552  0.2508 -0.1586 -0.7426
 9389TIP3    H128110   7.003   0.715   3.495  2.3336 -1.3580  0.0915
 9389TIP3    H228111   6.970   0.861   3.514 -0.6183 -1.5966 -2.4435
 9390TIP3   OH228112   0.141   7.263   1.479  0.2163  0.3240 -0.2037
 9390TIP3    H128113   0.051   7.262   1.446  0.4338  0.1727 -0.8045
 9390TIP3    H228114   0.151   7.178   1.522  0.1846  0.2015 -0.4396
 9391TIP3   OH228115   4.679   2.367   0.453 -0.2753  0.1258 -0.4965
 9391TIP3    H128116   4.643   2.321   0.528  1.0653 -0.8828 -0.4569
 9391TIP3    H228117   4.602   2.406   0.410 -1.3221 -1.2742  0.0435
 9392TIP3   OH228118   5.975   1.730   4.917 -0.2626 -0.0297  0.6799
 9392TIP3    H128119   5.961   1.703   4.826 -1.0707  0.7885  0.5496
 9392TIP3    H228120   6.020   1.655   4.957  0.0935 -0.4091 -0.3815
 9393TIP3   OH228121   2.626   1.570   0.671  0.3160 -0.6738  0.8437
 9393TIP3    H128122   2.718   1.597   0.677  0.2402  0.4920 -1.9414
 9393TIP3    H228123   2.581   1.646   0.636 -1.4095 -1.8217  0.4534
 9394TIP3   OH228124   6.060   7.445   6.105  0.3770  0.0163  0.1670
 9394TIP3    H128125   6.091   7.422   6.017 -3.2419  2.6919 -2.1531
 9394TIP3    H228126   5.993   7.380   6.124  0.7376 -0.2028  0.7038
 9395TIP3   OH228127   4.742   5.188   1.170 -0.0321  0.0638 -0.2810
 9395TIP3    H128128   4.661   5.228   1.202  0.2898 -0.0074  0.6320
 9395TIP3    H228129   4.742   5.208   1.076 -0.7252  0.7330 -0.1536
 9396TIP3   OH228130   3.246   3.354   4.640  0.1461 -0.0366 -0.0139
 9396TIP3    H128131   3.166   3.317   4.679 -0.3749  1.5265  0.4996
 9396TIP3    H228132   3.289   3.399   4.713  1.7524 -1.2001 -0.1924
 9397TIP3   OH228133   7.930   7.303   3.369  0.2256 -0.1900 -0.7505
 9397TIP3    H128134   7.959   7.359   3.441 -2.5576 -0.9585  1.1548
 9397TIP3    H228135   7.854   7.348   3.333 -0.5038 -1.4521 -0.8679
 9398TIP3   OH228136   8.177   3.522   5.762 -0.3946 -0.0087  0.3012
 9398TIP3    H128137   8.241   3.590   5.740 -0.1858 -0.4369 -0.4474
 9398TIP3    H228138   8.109   3.568   5.812  1.0988  0.2275  2.2479
 9399TIP3   OH228139   1.357   3.485   6.695 -0.0344  0.1610 -0.9180
 9399TIP3    H128140   1.360   3.516   6.786 -0.2236  1.6159 -1.3854
 9399TIP3    H228141   1.386   3.394   6.700 -0.4739  0.0798  0.6547
 9400TIP3   OH228142   3.740   1.968   2.001 -0.2412  0.1221 -0.0415
 9400TIP3    H128143   3.756   2.061   2.014  0.4701  0.3366 -2.2016
 9400TIP3    H228144   3.779   1.926   2.078  1.7047  1.4338 -0.2403
 9401TIP3   OH228145   6.182   3.301   6.273  0.2024  0.2793  0.0287
 9401TIP3    H128146   6.099   3.268   6.237  0.5563 -0.8982  0.2532
 9401TIP3    H228147   6.158   3.383   6.317 -0.9340 -0.3136  0.5458
 9402TIP3   OH228148   7.907   3.028   3.919 -0.3011 -0.3318 -0.3168
 9402TIP3    H128149   7.891   2.935   3.905  1.3427 -1.1127  2.3617
 9402TIP3    H228150   7.996   3.042   3.886 -0.3245  0.1739 -0.1725
 9403TIP3   OH228151   1.424   2.377   4.304  0.3154  0.2796 -0.0245
 9403TIP3    H128152   1.500   2.319   4.309 -0.5380 -0.9494 -0.7559
 9403TIP3    H228153   1.383   2.356   4.220 -0.5350  1.3067  0.1086
 9404TIP3   OH228154   3.013   6.056   2.422 -0.0819 -0.5531 -0.3192
 9404TIP3    H128155   2.990   5.964   2.422 -0.5748 -0.4664 -1.9159
 9404TIP3    H228156   3.087   6.063   2.483 -1.9228 -1.4396  2.1617
 9405TIP3   OH228157   5.806   6.808   6.458  0.6043 -0.3741 -0.2280
 9405TIP3    H128158   5.833   6.730   6.506  0.8663  0.1548  0.5085
 9405TIP3    H228159   5.768   6.866   6.524 -1.1937 -0.5659 -1.0469
 9406TIP3   OH228160   8.157   3.582   2.679 -0.0077  0.3033  0.4320
 9406TIP3    H128161   8.181   3.668   2.643  1.4309 -0.1869  0.1587
 9406TIP3    H228162   8.068   3.568   2.649  0.4853  0.7534 -1.3835
 9407TIP3   OH228163   3.440   3.010   0.864  0.2095  0.0957 -0.0634
 9407TIP3    H128164   3.464   3.002   0.956 -0.8221  0.9885  0.2956
 9407TIP3    H228165   3.396   3.094   0.857  0.0506 -0.0684 -1.3278
 9408TIP3   OH228166   0.095   4.620   1.515 -0.0170  0.0502 -0.3552
 9408TIP3    H128167   0.121   4.681   1.584 -2.6777  0.1861  0.6449
 9408TIP3    H228168   0.042   4.673   1.455 -0.2000 -0.7189 -0.8927
 9409TIP3   OH228169   5.958   5.143   0.779  0.0862  0.0604 -0.1847
 9409TIP3    H128170   5.949   5.224   0.828 -1.1996  0.2760 -0.7543
 9409TIP3    H228171   6.052   5.124   0.782  0.2568  0.9779  0.8712
 9410TIP3   OH228172   2.462   1.819   4.744 -0.1026 -0.7615 -0.3894
 9410TIP3    H128173   2.402   1.746   4.733 -0.2728 -0.4482 -1.7176
 9410TIP3    H228174   2.433   1.863   4.823 -0.6218 -1.5426 -0.1394
 9411TIP3   OH228175   4.422   6.092   2.179  0.3664 -0.3129 -0.3195
 9411TIP3    H128176   4.434   6.160   2.113  2.6817  0.0434  0.3658
 9411TIP3    H228177   4.481   6.021   2.152  0.9073 -0.3997  1.0212
 9412TIP3   OH228178   3.685   0.962   5.565 -0.3076 -0.3552 -0.0615
 9412TIP3    H128179   3.605   0.992   5.607 -0.4608  0.2631 -0.7598
 9412TIP3    H228180   3.697   1.023   5.492  2.0512  1.0225  1.3484
 9413TIP3   OH228181   5.432   6.598   4.865 -0.3098  0.1368  0.4538
 9413TIP3    H128182   5.451   6.626   4.955  0.3234  0.0321  0.3537
 9413TIP3    H228183   5.375   6.668   4.831  0.2812  0.6987  0.6000
 9414TIP3   OH228184   0.354   1.391   3.417  0.1012  0.0537 -0.2690
 9414TIP3    H128185   0.361   1.442   3.498 -0.5898 -1.9184  1.1034
 9414TIP3    H228186   0.267   1.352   3.421  0.5920 -1.1906 -1.2808
 9415TIP3   OH228187   1.906   2.786   4.040 -0.3401 -0.1063  0.2164
 9415TIP3    H128188   1.987   2.836   4.031 -0.6909  0.5236  0.4269
 9415TIP3    H228189   1.858   2.831   4.110 -0.3800 -1.1477  0.8648
 9416TIP3   OH228190   5.330   2.334   5.192 -0.8986 -0.0384 -0.3016
 9416TIP3    H128191   5.413   2.353   5.150 -1.1758 -0.1968 -0.9302
 9416TIP3    H228192   5.353   2.310   5.282 -0.3169  0.4697 -0.3093
 9417TIP3   OH228193   0.157   1.394   6.046 -1.0468 -0.1188  0.0991
 9417TIP3    H128194   0.159   1.371   6.138  0.6198 -0.5234 -0.0132
 9417TIP3    H228195   0.249   1.398   6.020 -1.4562  0.9413 -1.3099
 9418TIP3   OH228196   0.086   0.759   1.982  0.6513  0.5497 -0.1810
 9418TIP3    H128197  -0.003   0.781   2.009  0.0066 -0.6641 -1.1866
 9418TIP3    H228198   0.092   0.788   1.891  1.0451  0.0337 -0.3262
 9419TIP3   OH228199   4.532   4.426   6.739  0.1139 -0.1593  0.2180
 9419TIP3    H128200   4.580   4.508   6.727 -0.2420 -0.1329 -1.3008
 9419TIP3    H228201   4.595   4.358   6.715 -0.3104 -0.1702 -0.9402
 9420TIP3   OH228202   7.871   0.851   2.845 -0.5018 -0.0915 -0.6088
 9420TIP3    H128203   7.809   0.923   2.832 -0.9484 -0.0858  1.3392
 9420TIP3    H228204   7.924   0.877   2.920 -0.2718 -1.5087 -0.2422
 9421TIP3   OH228205   4.869   4.570   5.570 -0.2288  0.6743  0.1718
 9421TIP3    H128206   4.889   4.518   5.493  1.3642  0.7409  0.5193
 9421TIP3    H228207   4.862   4.506   5.641 -0.3297  0.7436  0.2246
 9422TIP3   OH228208   5.958   1.454   3.057 -0.2574 -0.0247  0.4423
 9422TIP3    H128209   5.913   1.380   3.098 -0.7460  0.1967  0.3217
 9422TIP3    H228210   5.914   1.466   2.973  0.1117  0.1217  0.2679
 9423TIP3   OH228211   4.838   2.894   0.518  0.0660 -0.8584 -0.0498
 9423TIP3    H128212   4.751   2.893   0.477 -0.6786  1.4928  1.2934
 9423TIP3    H228213   4.824   2.851   0.602  0.7706 -2.4509 -0.7049
 9424TIP3   OH228214   5.985   7.216   3.106  0.7024 -0.0488 -0.3015
 9424TIP3    H128215   6.074   7.248   3.122 -0.1829  2.5777 -0.2207
 9424TIP3    H228216   5.931   7.261   3.171 -0.8612 -0.6158 -1.1564
 9425TIP3   OH228217   7.265   6.900   0.941  0.3156  0.0651 -0.7239
 9425TIP3    H128218   7.252   6.891   1.035  0.6519  0.6643 -0.6160
 9425TIP3    H228219   7.242   6.814   0.905  1.1867 -0.4853  0.0011
 9426TIP3   OH228220   2.304   0.960   0.777 -0.1023  0.2244  0.1472
 9426TIP3    H128221   2.291   0.929   0.687  1.0907  1.5546 -0.5180
 9426TIP3    H228222   2.231   0.922   0.826  0.1925 -2.0057 -1.0002
 9427TIP3   OH228223   6.693   1.789   2.363  0.2827 -0.0989  0.2203
 9427TIP3    H128224   6.601   1.788   2.336 -0.0997  2.6669  1.0650
 9427TIP3    H228225   6.742   1.789   2.281 -0.5484  0.2296 -0.2913
 9428TIP3   OH228226   0.936   3.679   6.331  0.1112  0.2737 -0.0129
 9428TIP3    H128227   0.893   3.621   6.268 -1.8756  1.1513  0.4372
 9428TIP3    H228228   0.925   3.767   6.294 -0.4956  0.7298  1.1971
 9429TIP3   OH228229   3.159   3.686   1.778  0.1074  0.6933  0.4223
 9429TIP3    H128230   3.208   3.702   1.859  1.4263 -0.8752 -0.0278
 9429TIP3    H228231   3.091   3.623   1.803 -0.5046  1.4122  0.6232
 9430TIP3   OH228232   0.451   1.175   0.475  0.0128 -0.0577 -0.3950
 9430TIP3    H128233   0.363   1.160   0.509  0.2140 -0.0366  0.1406
 9430TIP3    H228234   0.489   1.240   0.534  0.3614 -0.0060 -0.6734
 9431TIP3   OH228235   0.308   0.866   4.743  0.2247 -0.0756 -0.1910
 9431TIP3    H128236   0.378   0.806   4.771 -0.0960 -0.1374  0.4844
 9431TIP3    H228237   0.311   0.938   4.805  0.3234  0.4047 -0.7472
 9432TIP3   OH228238   4.250   1.365   5.026  0.5739 -0.0168 -0.1561
 9432TIP3    H128239   4.248   1.382   5.120 -2.7661 -1.7237  0.2477
 9432TIP3    H228240   4.341   1.343   5.008  1.7251  2.2333  2.2221
 9433TIP3   OH228241   8.203   3.455   2.018  0.3494 -0.2569  0.1695
 9433TIP3    H128242   8.197   3.388   1.949 -0.6078 -1.0108  0.9696
 9433TIP3    H228243   8.297   3.473   2.025  0.5018 -0.4869 -1.0250
 9434TIP3   OH228244   7.260   5.518   0.377  0.2178 -0.3098  0.6061
 9434TIP3    H128245   7.216   5.433   0.385  1.4583 -0.9871  0.5293
 9434TIP3    H228246   7.194   5.582   0.404 -1.6058 -1.0371 -1.7703
 9435TIP3   OH228247   3.350   4.415   1.156 -0.1639  0.1733 -0.3036
 9435TIP3    H128248   3.364   4.321   1.169 -1.5546  0.1896  1.7329
 9435TIP3    H228249   3.434   4.455   1.177 -0.5902 -0.3611  2.9975
 9436TIP3   OH228250   2.138   6.245   2.032  0.5673  0.3868  0.4162
 9436TIP3    H128251   2.171   6.256   2.121 -1.3912 -0.6953  1.3298
 9436TIP3    H228252   2.091   6.327   2.014  0.5246  0.3994  0.5819
 9437TIP3   OH228253   0.043   2.605   2.888  0.1068  0.4179  0.0441
 9437TIP3    H128254   0.005   2.607   2.800  0.1461  1.6468  0.0419
 9437TIP3    H228255  -0.023   2.647   2.943  0.3927  0.3000  0.4826
 9438TIP3   OH228256   2.040   6.781   1.861 -0.1720  0.1966 -0.4508
 9438TIP3    H128257   2.052   6.734   1.778  0.5190  2.4118 -1.6868
 9438TIP3    H228258   2.073   6.721   1.928  0.5300 -1.1150 -1.9152
 9439TIP3   OH228259   6.960   4.889   4.132 -0.2664 -0.1939  0.1086
 9439TIP3    H128260   7.032   4.945   4.161 -0.5870 -0.4819  1.5013
 9439TIP3    H228261   7.004   4.816   4.088  0.3099 -0.4394  1.0702
 9440TIP3   OH228262   0.346   6.698   3.039  0.2656 -0.3955  0.6838
 9440TIP3    H128263   0.303   6.616   3.017 -1.0588  0.4792 -0.2015
 9440TIP3    H228264   0.416   6.674   3.099 -1.2690 -1.9619  1.9468
 9441TIP3   OH228265   2.950   7.432   4.473 -0.5406  0.4065 -0.4395
 9441TIP3    H128266   2.863   7.394   4.462 -0.2672 -0.9045  1.4160
 9441TIP3    H228267   3.010   7.360   4.452  0.0588  0.8393 -0.2349
 9442TIP3   OH228268   3.730   1.222   5.172  0.1401  0.6775  0.0569
 9442TIP3    H128269   3.721   1.245   5.265 -0.0351  1.4671 -0.1512
 9442TIP3    H228270   3.738   1.306   5.127  1.0534  0.2709 -0.5666
 9443TIP3   OH228271   7.172   7.488   0.839 -0.7306 -0.1347  0.4271
 9443TIP3    H128272   7.189   7.582   0.844 -1.1628 -0.0557  0.3992
 9443TIP3    H228273   7.077   7.479   0.846 -0.6880 -0.5756  0.5067
 9444TIP3   OH228274   6.596   4.439   4.844 -0.1359  0.1557  0.2555
 9444TIP3    H128275   6.691   4.432   4.834 -0.2709 -1.2106 -0.3014
 9444TIP3    H228276   6.581   4.435   4.938  0.3728  0.9321  0.3849
 9445TIP3   OH228277   6.552   4.222   6.373  0.0583 -0.4011 -0.4739
 9445TIP3    H128278   6.460   4.236   6.396 -0.1634 -2.0688 -0.2372
 9445TIP3    H228279   6.597   4.297   6.410 -1.1747  0.3551 -0.4343
 9446TIP3   OH228280   3.639   1.359   1.444  0.5543 -0.1102  0.1805
 9446TIP3    H128281   3.655   1.393   1.356 -0.5506 -0.8206 -0.3206
 9446TIP3    H228282   3.670   1.427   1.503 -0.1636  1.0758 -0.7705
 9447TIP3   OH228283   1.199   3.417   1.727  0.4621  0.3036  0.4046
 9447TIP3    H128284   1.154   3.470   1.661  1.0539 -0.3120 -0.5194
 9447TIP3    H228285   1.146   3.337   1.733  0.3093  0.4348  0.8122
 9448TIP3   OH228286   3.178   0.376   3.542 -0.7831  0.1812  0.7124
 9448TIP3    H128287   3.217   0.425   3.469 -0.8940  0.6078  0.9345
 9448TIP3    H228288   3.103   0.332   3.504  0.4730 -1.4863  0.0326
 9449TIP3   OH228289   7.587   2.611   5.545  0.0251  0.8129 -0.1107
 9449TIP3    H128290   7.610   2.578   5.631 -1.1713 -0.6054 -0.2853
 9449TIP3    H228291   7.668   2.645   5.509  0.7588  0.4484  1.1604
 9450TIP3   OH228292   2.728   1.103   1.926 -0.0579 -0.2554  0.1665
 9450TIP3    H128293   2.784   1.178   1.907  0.5303 -0.5096  0.8448
 9450TIP3    H228294   2.748   1.040   1.858 -0.2086  0.0164 -0.1336
 9451TIP3   OH228295   2.682   1.204   4.351  0.3675 -0.7675 -0.8647
 9451TIP3    H128296   2.757   1.146   4.364  0.9104  0.2139  0.7751
 9451TIP3    H228297   2.720   1.292   4.354 -0.8537 -0.2443  0.4283
 9452TIP3   OH228298   5.690   0.514   5.122 -0.4310 -0.1021 -0.3682
 9452TIP3    H128299   5.665   0.442   5.180 -1.3922 -1.4367 -2.3419
 9452TIP3    H228300   5.617   0.577   5.130 -0.7503 -0.4619 -0.4421
 9453TIP3   OH228301   0.714   2.116   1.412  0.5526 -0.2015  0.0093
 9453TIP3    H128302   0.635   2.087   1.367 -0.1961  0.2183  1.0043
 9453TIP3    H228303   0.786   2.078   1.362 -0.2701 -0.4506 -1.0190
 9454TIP3   OH228304   1.410   5.774   1.666 -0.1395 -0.0814  0.7050
 9454TIP3    H128305   1.480   5.798   1.605  0.3275 -0.9048  0.8970
 9454TIP3    H228306   1.331   5.773   1.612 -0.3042  2.3815  0.8007
 9455TIP3   OH228307   3.936   2.401   0.198 -0.5969 -0.0197  0.6470
 9455TIP3    H128308   3.863   2.366   0.148  0.0464 -1.0117  0.3946
 9455TIP3    H228309   3.917   2.377   0.289 -0.4252 -0.5516  0.5415
 9456TIP3   OH228310   5.639   3.056   5.352  0.0757  0.5701  0.0870
 9456TIP3    H128311   5.589   3.053   5.433 -0.8838  0.8018 -0.4879
 9456TIP3    H228312   5.700   3.129   5.365 -1.4484  1.9513 -0.1516
 9457TIP3   OH228313   7.840   4.886   6.263 -0.4565  0.2686 -0.2882
 9457TIP3    H128314   7.859   4.979   6.280 -0.6561  0.4092 -0.8227
 9457TIP3    H228315   7.925   4.848   6.243 -0.3949  0.3705 -0.2230
 9458TIP3   OH228316   6.921   0.433   0.284 -0.2319  0.1193  0.1739
 9458TIP3    H128317   6.984   0.390   0.342 -2.1722 -0.4013  2.0076
 9458TIP3    H228318   6.863   0.481   0.343 -0.4635  2.1163 -1.5777
 9459TIP3   OH228319   4.894   0.178   3.603 -0.1969  0.1629  0.1744
 9459TIP3    H128320   4.924   0.165   3.693 -0.2047 -0.7455  0.0594
 9459TIP3    H228321   4.841   0.257   3.606 -1.9212 -0.9763  1.4161
 9460TIP3   OH228322   3.408   7.760   4.367  0.0974  0.4738  0.2094
 9460TIP3    H128323   3.463   7.791   4.295 -0.0367  0.2641  0.0187
 9460TIP3    H228324   3.340   7.708   4.325 -0.1890  0.6472  0.4557
 9461TIP3   OH228325   0.998   0.574   2.599 -0.5261  0.2867  0.1501
 9461TIP3    H128326   0.925   0.524   2.564  0.6976 -0.9207 -0.7496
 9461TIP3    H228327   0.992   0.659   2.554 -0.7765 -0.1622 -0.6886
 9462TIP3   OH228328   5.125   1.404   2.462  0.1947 -0.3039 -0.7288
 9462TIP3    H128329   5.155   1.374   2.548 -0.7363 -1.6947 -0.8480
 9462TIP3    H228330   5.182   1.360   2.400  0.0320 -0.3431 -0.8521
 9463TIP3   OH228331   4.544   3.947   1.914 -0.4125  0.2120 -1.3197
 9463TIP3    H128332   4.477   4.016   1.911 -0.0114  0.5559 -3.0919
 9463TIP3    H228333   4.590   3.954   1.831  2.3246  0.4441  0.1065
 9464TIP3   OH228334   6.868   2.319   1.118  0.0566 -0.1040  0.0169
 9464TIP3    H128335   6.890   2.360   1.202  1.1102  1.1954 -0.8324
 9464TIP3    H228336   6.796   2.372   1.084  0.4850  0.1918 -0.4536
 9465TIP3   OH228337   0.481   6.614   0.402  0.2363 -0.1157 -0.0039
 9465TIP3    H128338   0.435   6.683   0.354  0.2872  1.0314  1.5436
 9465TIP3    H228339   0.572   6.643   0.404  0.4965 -0.8668 -0.4077
 9466TIP3   OH228340   6.918   7.590   1.518 -0.1565  0.4463 -0.2933
 9466TIP3    H128341   6.962   7.674   1.506 -0.6635  0.4561 -2.5119
 9466TIP3    H228342   6.990   7.527   1.530  0.4662  0.6463 -2.6063
 9467TIP3   OH228343   1.396   6.332   2.603  0.0633  0.1479  0.3017
 9467TIP3    H128344   1.444   6.389   2.542 -1.0890 -0.5535 -1.2983
 9467TIP3    H228345   1.416   6.369   2.689  3.1930  0.0944 -0.2861
 9468TIP3   OH228346   6.945   7.428   6.450 -0.2514  0.5347  0.7599
 9468TIP3    H128347   6.972   7.371   6.522  0.7750  1.1550  0.8870
 9468TIP3    H228348   7.013   7.415   6.383 -2.0365 -1.2810 -0.8275
 9469TIP3   OH228349   7.089  -0.003   2.930  0.1150  0.5674  0.0223
 9469TIP3    H128350   7.138   0.077   2.950 -0.4140  0.4421  1.9609
 9469TIP3    H228351   7.002   0.028   2.904 -0.4613  0.6357  1.8938
 9470TIP3   OH228352   2.023   6.329   5.223  0.0196  0.4075 -0.1654
 9470TIP3    H128353   2.000   6.324   5.130  1.0550 -1.9384 -0.3659
 9470TIP3    H228354   1.944   6.299   5.269  0.0964 -0.2249 -0.4260
 9471TIP3   OH228355   3.252   1.380   1.086 -0.3261 -0.1029 -0.3029
 9471TIP3    H128356   3.215   1.354   1.171 -1.6718  0.4689 -0.6855
 9471TIP3    H228357   3.283   1.469   1.100  0.2121 -0.3074 -0.1897
 9472TIP3   OH228358   6.724   5.766   1.947 -0.1518  0.4697  0.2544
 9472TIP3    H128359   6.778   5.699   1.989  2.9363  1.2641 -2.0526
 9472TIP3    H228360   6.728   5.841   2.006  0.5478  0.2176  0.5316
 9473TIP3   OH228361   2.350   2.274   1.041  0.0993  0.0354 -0.1572
 9473TIP3    H128362   2.421   2.213   1.061  0.9060  0.8755 -0.4142
 9473TIP3    H228363   2.271   2.225   1.063  0.7225 -1.1026 -0.3542
 9474TIP3   OH228364   3.420   3.843   0.715 -0.2610  0.3577  0.0413
 9474TIP3    H128365   3.492   3.818   0.657  1.0277  2.8789  0.3884
 9474TIP3    H228366   3.405   3.935   0.696 -1.2760  0.7006  2.1620
 9475TIP3   OH228367   5.328   7.487   0.889 -0.1178  0.0089  0.1643
 9475TIP3    H128368   5.395   7.467   0.954  0.3039  1.6253  0.2592
 9475TIP3    H228369   5.262   7.537   0.938  0.5333  1.8352 -0.7698
 9476TIP3   OH228370   0.216   2.760   2.744  0.0743 -0.3036  0.1803
 9476TIP3    H128371   0.246   2.671   2.728 -0.8865 -0.8018  1.0221
 9476TIP3    H228372   0.139   2.750   2.801  0.8940  1.1236  1.6353
 9477TIP3   OH228373   1.742   4.613   5.145 -0.8653 -0.7685  0.3407
 9477TIP3    H128374   1.677   4.681   5.161 -0.3037 -0.4567  1.3987
 9477TIP3    H228375   1.808   4.627   5.213  1.5800  0.4402 -2.0952
 9478TIP3   OH228376   0.886   6.115   4.675  0.2090 -0.6686 -0.2435
 9478TIP3    H128377   0.864   6.172   4.601  0.5805  0.0037  0.1546
 9478TIP3    H228378   0.826   6.041   4.667  0.6306 -0.8964 -1.5589
 9479TIP3   OH228379   2.350   7.399   4.006  0.2137  0.3420 -0.7964
 9479TIP3    H128380   2.313   7.310   4.001 -1.7522  1.0308  0.4188
 9479TIP3    H228381   2.334   7.427   4.096  0.5302  2.0613 -1.2399
 9480TIP3   OH228382   1.832   4.581   4.246 -0.1279 -0.3973  0.2377
 9480TIP3    H128383   1.898   4.617   4.305  1.3517 -1.4425 -0.7163
 9480TIP3    H228384   1.850   4.622   4.161 -0.5896 -0.8177 -0.0723
 9481TIP3   OH228385   5.949   4.575   2.904  0.0455  0.6636  0.0323
 9481TIP3    H128386   5.861   4.610   2.889 -0.6391 -0.7006  0.5864
 9481TIP3    H228387   5.961   4.510   2.835  0.7346  1.0210 -0.1910
 9482TIP3   OH228388   4.674   2.220   3.262 -0.1846  0.2892 -0.3929
 9482TIP3    H128389   4.673   2.212   3.166  2.0337  2.2695 -0.6717
 9482TIP3    H228390   4.591   2.263   3.283 -0.6600 -0.0850 -1.4313
 9483TIP3   OH228391   3.262   6.630   3.458  0.1401 -0.5574 -0.0077
 9483TIP3    H128392   3.249   6.721   3.485  2.3801 -0.2634  0.2787
 9483TIP3    H228393   3.262   6.580   3.540  0.8635 -0.5143  0.0286
 9484TIP3   OH228394   3.482   0.572   6.146 -0.1847 -0.3269  0.3549
 9484TIP3    H128395   3.470   0.543   6.056  1.0358  0.6340 -0.1466
 9484TIP3    H228396   3.408   0.535   6.193 -0.8911 -0.7839 -1.0584
 9485TIP3   OH228397   8.155   6.498   4.098  0.1391  0.6165 -0.1702
 9485TIP3    H128398   8.248   6.484   4.079  0.2280  0.8369  0.1149
 9485TIP3    H228399   8.132   6.579   4.053 -0.4108 -0.4455 -1.9280
 9486TIP3   OH228400   0.064   5.138   3.844 -0.5190 -0.1793  0.1250
 9486TIP3    H128401  -0.010   5.179   3.888 -0.3428 -1.4919  1.7730
 9486TIP3    H228402   0.024   5.078   3.781 -0.8663 -0.4793  0.6190
 9487TIP3   OH228403   1.316   6.843   6.459  0.8826  0.6199 -0.5281
 9487TIP3    H128404   1.228   6.881   6.456  0.1938 -0.5921  1.6609
 9487TIP3    H228405   1.319   6.783   6.384 -0.3236  0.3877 -0.4103
 9488TIP3   OH228406   3.539   3.235   2.329 -0.3591  0.3616 -0.4040
 9488TIP3    H128407   3.458   3.189   2.305 -1.2686  0.6162  1.9133
 9488TIP3    H228408   3.518   3.328   2.316 -0.6794  0.4667  0.7718
 9489TIP3   OH228409   0.009   3.548   5.295 -0.1663 -0.4353 -0.2454
 9489TIP3    H128410   0.079   3.491   5.263 -0.6704 -1.7431  0.9054
 9489TIP3    H228411  -0.016   3.601   5.219 -0.2349 -2.3216 -1.5959
 9490TIP3   OH228412   1.987   3.255   2.336 -0.3759 -0.1023  0.0287
 9490TIP3    H128413   1.901   3.270   2.376 -1.1191 -1.0045 -1.1496
 9490TIP3    H228414   1.988   3.162   2.314  0.2585  0.2119 -1.3942
 9491TIP3   OH228415   4.787   6.700   6.247  0.1459 -0.4040 -0.0084
 9491TIP3    H128416   4.784   6.782   6.197 -2.2483 -0.3160  0.1353
 9491TIP3    H228417   4.775   6.631   6.181  1.9897 -0.6861 -0.1075
 9492TIP3   OH228418   0.296   0.058   3.185 -0.1783  0.5796 -0.3288
 9492TIP3    H128419   0.310   0.119   3.257  0.2437  0.4687 -0.3189
 9492TIP3    H228420   0.202   0.066   3.165 -0.1520  1.1305 -0.2398
 9493TIP3   OH228421   1.525   6.704   6.055 -0.3123 -0.4681  1.0105
 9493TIP3    H128422   1.472   6.783   6.043  0.6474  0.0574  0.1079
 9493TIP3    H228423   1.559   6.712   6.144  2.2343  1.7435 -0.0271
 9494TIP3   OH228424   1.695   0.801   2.182  0.4210 -0.0172  0.1534
 9494TIP3    H128425   1.681   0.711   2.210  0.9707 -0.0516  0.3250
 9494TIP3    H228426   1.748   0.794   2.103 -0.8774  0.0914 -0.7629
 9495TIP3   OH228427   5.176   3.226   4.686  0.0952  0.0102  0.1294
 9495TIP3    H128428   5.262   3.252   4.721  0.0751 -2.2063  2.0979
 9495TIP3    H228429   5.131   3.186   4.761 -2.0064 -0.4247 -1.2793
 9496TIP3   OH228430   2.835   0.100   0.137  0.7470  0.0943 -0.5675
 9496TIP3    H128431   2.883   0.067   0.060 -0.7338  1.9444 -2.3938
 9496TIP3    H228432   2.856   0.193   0.140 -1.7771  0.7299 -0.7657
 9497TIP3   OH228433   5.421   7.310   5.858  0.0491 -0.1553  0.3930
 9497TIP3    H128434   5.409   7.368   5.933 -0.8818 -0.1857  0.2796
 9497TIP3    H228435   5.340   7.259   5.854 -1.0293  1.5777 -2.1204
 9498TIP3   OH228436   5.411   5.452   5.613  0.3662 -0.3906 -0.2780
 9498TIP3    H128437   5.480   5.492   5.665 -0.0322  1.3465 -1.0126
 9498TIP3    H228438   5.422   5.358   5.626  0.1819 -0.0661  3.0473
 9499TIP3   OH228439   0.298   5.172   2.529 -0.4869  0.6015  0.1711
 9499TIP3    H128440   0.215   5.141   2.566  0.1799  1.2544  2.4246
 9499TIP3    H228441   0.357   5.097   2.537 -0.8018  0.1773 -1.3127
 9500TIP3   OH228442   3.677   0.911   0.187 -0.3637 -0.2057  0.1348
 9500TIP3    H128443   3.736   0.986   0.195 -0.1861 -0.3629  0.2911
 9500TIP3    H228444   3.634   0.905   0.272 -0.8294  0.0898 -0.0687
 9501TIP3   OH228445   5.212   1.667   0.080 -0.4745 -0.2072 -0.0137
 9501TIP3    H128446   5.158   1.691   0.005  0.3955  0.7309 -0.3523
 9501TIP3    H228447   5.157   1.686   0.156 -1.1480 -0.6303 -0.3847
 9502TIP3   OH228448   7.028   0.677   4.678 -0.4483 -0.3714 -0.1736
 9502TIP3    H128449   6.981   0.603   4.716 -0.5369 -0.2772 -0.0986
 9502TIP3    H228450   7.120   0.660   4.699 -0.3366 -1.0579 -1.1725
 9503TIP3   OH228451   0.062   0.962   3.011  0.0211  0.5708 -0.7422
 9503TIP3    H128452   0.128   0.894   2.994 -0.9948 -0.9117  0.9289
 9503TIP3    H228453   0.033   0.946   3.101 -2.1299  1.6003 -1.1818
 9504TIP3   OH228454   2.206   2.925   6.435 -0.1701  0.1149 -0.2845
 9504TIP3    H128455   2.209   2.866   6.510 -0.1542  0.7278  0.2028
 9504TIP3    H228456   2.208   2.867   6.359 -2.3168 -0.6688  0.1638
 9505TIP3   OH228457   0.826   6.943   3.228 -0.5287 -0.0931  0.3918
 9505TIP3    H128458   0.808   6.979   3.141  0.2518 -1.5615 -0.4015
 9505TIP3    H228459   0.835   7.021   3.283 -0.1431  0.9059 -1.0064
 9506TIP3   OH228460   0.205   6.833   5.009  0.1146 -0.1871  0.1697
 9506TIP3    H128461   0.142   6.898   4.977  0.5631  0.0471 -0.2497
 9506TIP3    H228462   0.165   6.749   4.989 -1.0716 -0.0922  1.8633
 9507TIP3   OH228463   0.891   4.742   2.439 -0.0297  0.0915 -0.7188
 9507TIP3    H128464   0.852   4.656   2.454 -0.9712  0.5433 -0.4195
 9507TIP3    H228465   0.837   4.801   2.492  1.9546  0.5788  0.8858
 9508TIP3   OH228466   0.389   6.932   2.839  0.1750 -1.3026  0.0552
 9508TIP3    H128467   0.460   6.919   2.775 -0.7873 -0.3565 -1.2680
 9508TIP3    H228468   0.411   6.873   2.911  3.1627  0.1019  0.4700
 9509TIP3   OH228469   7.176   6.439   3.971 -0.4649  0.1344 -0.2091
 9509TIP3    H128470   7.251   6.418   4.026 -0.2588 -1.6323 -1.0861
 9509TIP3    H228471   7.186   6.532   3.949  1.4069 -0.0399 -0.2180
 9510TIP3   OH228472   4.524   0.589   4.474  0.0778  0.4094 -0.9764
 9510TIP3    H128473   4.508   0.497   4.452 -0.5000  0.1713  0.3043
 9510TIP3    H228474   4.559   0.586   4.563 -1.8970  1.5102 -0.0850
 9511TIP3   OH228475   5.806   3.838   0.235  0.0813 -0.2190 -0.1416
 9511TIP3    H128476   5.719   3.807   0.261 -0.6625  2.7396  1.2617
 9511TIP3    H228477   5.789   3.906   0.170  1.4722 -0.6800 -1.0343
 9512TIP3   OH228478   8.102   6.329   2.709  0.7209  0.6867 -0.1804
 9512TIP3    H128479   8.082   6.418   2.679  1.6594  1.9851  2.6967
 9512TIP3    H228480   8.193   6.316   2.684  0.8675  0.9117  0.2348
 9513TIP3   OH228481   5.671   0.499   4.232 -0.7321  0.4686 -0.3098
 9513TIP3    H128482   5.733   0.572   4.223 -1.7809  1.1828 -2.6380
 9513TIP3    H228483   5.587   0.540   4.250 -0.9770 -0.3429  0.4898
 9514TIP3   OH228484   3.658   5.980   3.469 -0.3795  0.1635  0.1256
 9514TIP3    H128485   3.625   5.963   3.381 -1.2706  0.1799  0.4449
 9514TIP3    H228486   3.587   6.027   3.513  0.6080  1.4532  0.4099
 9515TIP3   OH228487   3.785   5.427   0.832 -0.3025  0.4180  0.2821
 9515TIP3    H128488   3.714   5.491   0.837  1.0014  2.0874 -1.1651
 9515TIP3    H228489   3.853   5.471   0.781  1.3632 -1.5084  0.7226
 9516TIP3   OH228490   4.623   4.961   0.462  0.3026  0.1434  1.1968
 9516TIP3    H128491   4.649   5.050   0.486  1.0637  0.5836 -1.0505
 9516TIP3    H228492   4.565   4.972   0.387 -1.9799 -1.1607  2.6366
 9517TIP3   OH228493   4.577   5.341   3.658  0.0415  0.0587 -0.2840
 9517TIP3    H128494   4.626   5.374   3.583 -0.3777 -1.0918 -1.0852
 9517TIP3    H228495   4.633   5.273   3.694 -0.5551 -0.6364 -0.6538
 9518TIP3   OH228496   6.545   6.139   0.688 -0.1302 -0.0265 -0.8014
 9518TIP3    H128497   6.580   6.220   0.724  0.0008  0.8510 -2.8068
 9518TIP3    H228498   6.464   6.124   0.738  0.3743  0.7672  0.2855
 9519TIP3   OH228499   2.679   0.462   2.571  0.1286  0.0550  0.2469
 9519TIP3    H128500   2.661   0.536   2.513 -0.1232 -0.6043 -0.5320
 9519TIP3    H228501   2.638   0.387   2.528 -1.3514 -0.2094  1.9934
 9520TIP3   OH228502   7.819   0.995   2.363 -0.4897  0.5535  0.1088
 9520TIP3    H128503   7.781   0.907   2.364  0.6433  0.0388  0.2655
 9520TIP3    H228504   7.764   1.045   2.423 -1.2946  0.0147 -0.1663
 9521TIP3   OH228505   7.402   2.864   6.354 -0.2438  0.1706  0.0729
 9521TIP3    H128506   7.444   2.949   6.361 -0.3141  0.2314 -0.2332
 9521TIP3    H228507   7.463   2.810   6.305 -1.1512  0.6952 -1.7147
 9522TIP3   OH228508   0.210   3.510   0.327 -0.8467 -0.1971 -0.0236
 9522TIP3    H128509   0.175   3.504   0.238  1.1145 -0.9433 -0.8098
 9522TIP3    H228510   0.157   3.577   0.370 -1.2263  0.8803 -2.0549
 9523TIP3   OH228511   2.902   5.942   6.249  0.0393 -0.5077 -0.3779
 9523TIP3    H128512   2.830   6.003   6.264 -0.5667 -1.1786 -0.4888
 9523TIP3    H228513   2.956   5.984   6.182  0.6832  0.7703  0.9155
 9524TIP3   OH228514   3.942   1.551   3.255 -0.2825 -0.6013  0.1156
 9524TIP3    H128515   4.018   1.521   3.304  1.1048  0.5762 -1.1818
 9524TIP3    H228516   3.935   1.490   3.181 -0.0925 -0.2501 -0.1974
 9525TIP3   OH228517   0.019   2.085   1.705 -0.0652 -0.8883 -0.3619
 9525TIP3    H128518   0.107   2.118   1.686 -0.5828 -0.4800 -2.2616
 9525TIP3    H228519  -0.007   2.131   1.785  1.7075 -1.5810  0.6671
 9526TIP3   OH228520   4.878   1.448   4.507  0.1597 -0.1822 -0.2666
 9526TIP3    H128521   4.943   1.496   4.558  2.3515 -1.6535 -1.5148
 9526TIP3    H228522   4.930   1.387   4.454 -2.1937 -0.7095 -2.1050
 9527TIP3   OH228523   5.022   3.850   6.779 -0.1024 -0.0689 -0.2636
 9527TIP3    H128524   5.104   3.820   6.817 -0.2282  0.1547  0.1936
 9527TIP3    H228525   4.993   3.778   6.724 -1.2243 -1.4831  2.0579
 9528TIP3   OH228526   0.433   1.598   3.061  0.5737 -0.1242 -0.5234
 9528TIP3    H128527   0.412   1.525   3.003  0.1393 -0.3057 -0.1421
 9528TIP3    H228528   0.349   1.624   3.099  0.8507  0.0066  0.0046
 9529TIP3   OH228529   2.457   2.718   2.575  0.0810 -0.3805  0.1864
 9529TIP3    H128530   2.420   2.789   2.521  0.8301  0.2857  0.5245
 9529TIP3    H228531   2.534   2.689   2.527  0.6200  0.0571  0.7765
 9530TIP3   OH228532   5.886   7.435   4.849  0.0258 -0.6463  1.1219
 9530TIP3    H128533   5.800   7.401   4.823  0.1535  1.1464 -2.2131
 9530TIP3    H228534   5.948   7.392   4.791  1.1193 -0.3332  2.0189
 9531TIP3   OH228535   1.646   6.805   2.531 -0.2892 -0.0052 -0.6345
 9531TIP3    H128536   1.558   6.839   2.545 -0.1207  0.9291 -1.7007
 9531TIP3    H228537   1.695   6.832   2.609 -0.8938 -0.3674 -0.1240
 9532TIP3   OH228538   1.590   5.041   4.430 -0.2864  0.1686  0.1155
 9532TIP3    H128539   1.680   5.039   4.398 -0.2267 -0.3071  0.3113
 9532TIP3    H228540   1.577   4.956   4.472 -0.3777  0.7460  1.3027
 9533TIP3   OH228541   7.175   1.585   0.441 -0.0750 -0.2026  0.5538
 9533TIP3    H128542   7.140   1.514   0.387 -0.3427 -0.5412  1.1618
 9533TIP3    H228543   7.157   1.665   0.391 -1.2363 -0.4168  0.6128
 9534TIP3   OH228544   5.032   7.257   1.758  0.3481 -0.1371  0.0424
 9534TIP3    H128545   5.023   7.351   1.772 -0.3915 -0.1835 -0.0686
 9534TIP3    H228546   4.975   7.217   1.824 -2.4976 -0.3843 -2.3694
 9535TIP3   OH228547   8.106   5.747   1.939 -0.4135  0.0439 -0.2022
 9535TIP3    H128548   8.188   5.787   1.967 -0.4608  0.3636 -0.5034
 9535TIP3    H228549   8.060   5.817   1.892 -1.6033  0.3712  1.3882
 9536TIP3   OH228550   0.093   2.924   1.159 -0.1993 -0.4253  0.2780
 9536TIP3    H128551   0.151   2.938   1.235  1.8119 -1.2387 -1.0208
 9536TIP3    H228552   0.092   3.009   1.115  0.5500 -0.5594 -0.0217
 9537TIP3   OH228553   1.087   5.328   3.902  0.6350 -0.3063  0.1150
 9537TIP3    H128554   1.146   5.287   3.839 -0.8159 -2.4558  0.0348
 9537TIP3    H228555   1.059   5.255   3.958 -1.5351  0.7128  0.4467
 9538TIP3   OH228556   2.984   5.967   4.947  0.2574  0.9493  0.2182
 9538TIP3    H128557   3.039   5.948   5.023  0.3179  1.0686  0.2047
 9538TIP3    H228558   3.040   6.020   4.890 -0.1405  1.7579  0.5674
 9539TIP3   OH228559   3.706   1.542   0.952 -0.1082 -0.2678  0.0896
 9539TIP3    H128560   3.685   1.626   0.994 -0.5452 -1.1291  1.6841
 9539TIP3    H228561   3.722   1.564   0.860 -4.4493  1.0234 -0.5819
 9540TIP3   OH228562   0.370   0.833   2.069  0.4088  0.3852  0.5634
 9540TIP3    H128563   0.280   0.811   2.045 -0.2237  3.1391  0.0539
 9540TIP3    H228564   0.422   0.808   1.993  0.1903 -1.4483  0.9538
 9541TIP3   OH228565   2.329   0.146   2.577  0.5278  0.4082 -0.7828
 9541TIP3    H128566   2.278   0.104   2.509 -0.6487  0.6205 -0.0564
 9541TIP3    H228567   2.328   0.239   2.556 -1.1169  0.6726  0.2988
 9542TIP3   OH228568   5.130   1.816   5.884 -0.6352  0.2230  0.2022
 9542TIP3    H128569   5.128   1.835   5.978 -0.6162 -2.5343  0.8526
 9542TIP3    H228570   5.048   1.852   5.851 -0.6550  1.2288  1.2617
 9543TIP3   OH228571   8.264   4.292   3.132  0.1720  0.4168  0.3059
 9543TIP3    H128572   8.274   4.197   3.139 -1.3964  0.3048  1.7531
 9543TIP3    H228573   8.349   4.327   3.160  1.4100 -0.5339 -2.0381
 9544TIP3   OH228574   7.986   0.316   3.913  0.3984 -0.0980 -0.1889
 9544TIP3    H128575   7.911   0.323   3.973 -1.5141  1.6133 -2.5526
 9544TIP3    H228576   8.005   0.406   3.888  1.4829 -0.7059 -1.7151
 9545TIP3   OH228577   8.169   6.316   2.327 -0.2630  0.2120 -0.2834
 9545TIP3    H128578   8.253   6.359   2.342 -0.3115 -0.3135  1.7498
 9545TIP3    H228579   8.110   6.353   2.392 -0.8756 -1.3736  0.1155
 9546TIP3   OH228580   1.117   3.334   5.319 -0.3205 -0.1671  0.1308
 9546TIP3    H128581   1.152   3.423   5.319 -0.9406  0.0902 -0.8250
 9546TIP3    H228582   1.095   3.317   5.411  2.1188 -0.2939  0.7551
 9547TIP3   OH228583   5.670   4.940   5.184  0.4725  0.3544  0.1554
 9547TIP3    H128584   5.600   4.996   5.219  0.3298  0.2922 -0.0292
 9547TIP3    H228585   5.697   4.982   5.103 -0.8063 -0.7343 -0.8753
 9548TIP3   OH228586   5.453   5.080   0.346 -0.4704  0.5144  0.2835
 9548TIP3    H128587   5.426   5.145   0.282 -0.2355 -0.8341 -1.2391
 9548TIP3    H228588   5.414   4.998   0.316  1.0594 -0.4882  0.8680
 9549TIP3   OH228589   3.037   3.063   3.218 -0.1404  0.0078  0.0173
 9549TIP3    H128590   2.958   3.114   3.235 -1.0093 -1.4546  0.4785
 9549TIP3    H228591   3.092   3.079   3.294  0.7195  2.2363 -0.9795
 9550TIP3   OH228592   0.021   5.626   5.123  0.4933 -0.5200  0.1165
 9550TIP3    H128593   0.013   5.722   5.124 -0.7444 -0.6031  0.6375
 9550TIP3    H228594   0.068   5.605   5.204 -1.2573 -0.4606  1.2046
 9551TIP3   OH228595   4.331   0.307   0.927 -0.2401  0.0696  0.3158
 9551TIP3    H128596   4.283   0.267   0.855 -0.1559  0.9127 -0.2287
 9551TIP3    H228597   4.358   0.234   0.983 -4.4895 -0.3565  2.1793
 9552TIP3   OH228598   3.598   4.007   2.324 -0.1198 -0.1005 -0.5619
 9552TIP3    H128599   3.592   4.009   2.228 -3.8771 -1.0782 -0.5294
 9552TIP3    H228600   3.562   4.092   2.351 -0.2755 -0.3346 -0.0371
 9553TIP3   OH228601   7.436   0.715   4.205  0.6121  0.1913  0.0204
 9553TIP3    H128602   7.505   0.657   4.241  1.8833 -0.0959 -2.6332
 9553TIP3    H228603   7.355   0.679   4.241  1.5735 -1.6489  0.5414
 9554TIP3   OH228604   8.172   7.469   5.893  0.3775 -0.3130  0.9050
 9554TIP3    H128605   8.172   7.377   5.918  0.5996 -0.6539 -0.2842
 9554TIP3    H228606   8.218   7.471   5.809 -0.9472  0.6559  0.1571
 9555TIP3   OH228607   3.411   5.912   5.579  0.4331  0.5770 -0.0249
 9555TIP3    H128608   3.392   5.820   5.599  0.7263 -0.0438 -2.3059
 9555TIP3    H228609   3.326   5.955   5.579 -0.0667 -0.3057 -1.5121
 9556TIP3   OH228610   4.449   2.767   6.808  0.5084 -0.2065 -0.0533
 9556TIP3    H128611   4.512   2.748   6.739  1.0065  1.2152 -0.0231
 9556TIP3    H228612   4.364   2.746   6.769  0.7783  0.6318 -1.1296
 9557TIP3   OH228613   2.167   3.750   5.572 -0.0734  0.1631  0.3648
 9557TIP3    H128614   2.141   3.839   5.546  2.0575  0.4127 -1.1931
 9557TIP3    H228615   2.256   3.760   5.606  0.7859 -1.5152 -1.1858
 9558TIP3   OH228616   7.679   3.840   1.222 -0.2305 -0.3094  0.5679
 9558TIP3    H128617   7.584   3.834   1.235 -0.4389  1.1254  0.0042
 9558TIP3    H228618   7.702   3.926   1.257  1.0237 -0.9850  1.4726
 9559TIP3   OH228619   3.414   7.458   2.606  0.5627  0.6162  0.0801
 9559TIP3    H128620   3.421   7.391   2.674  0.0403  0.2123 -0.2541
 9559TIP3    H228621   3.504   7.474   2.577  0.5233 -1.8851 -1.6992
 9560TIP3   OH228622   7.088   7.199   2.433 -0.3436 -0.3727  0.0773
 9560TIP3    H128623   7.046   7.135   2.376  0.2043 -0.6622 -0.0089
 9560TIP3    H228624   7.176   7.208   2.398  0.0502 -0.6656  0.9614
 9561TIP3   OH228625   2.284   0.825   0.532 -0.1755 -0.2629  0.4034
 9561TIP3    H128626   2.308   0.857   0.445  1.3853 -0.5720  0.6965
 9561TIP3    H228627   2.316   0.735   0.534  0.3887 -0.0521  1.5207
 9562TIP3   OH228628   1.738   6.523   0.047 -0.4347 -0.5323  0.7909
 9562TIP3    H128629   1.711   6.565   0.129 -0.7328 -0.9688  0.9232
 9562TIP3    H228630   1.831   6.504   0.060  0.1718  1.6615  0.0382
 9563TIP3   OH228631   8.015   7.199   4.011  0.4794  0.1542 -0.1088
 9563TIP3    H128632   8.009   7.119   4.063 -3.9172  1.1242  1.3375
 9563TIP3    H228633   8.042   7.266   4.073  0.0385  0.4819 -0.2666
 9564TIP3   OH228634   2.573   6.947   0.963 -0.4776 -0.3249  0.4465
 9564TIP3    H128635   2.554   6.937   0.870 -0.2898 -0.9366  0.4718
 9564TIP3    H228636   2.546   6.864   1.002 -2.8851  0.7911  1.3347
 9565TIP3   OH228637   0.698   6.057   6.438  0.7222 -0.4064 -1.0424
 9565TIP3    H128638   0.666   5.969   6.459  1.0041 -0.2399  0.1199
 9565TIP3    H228639   0.631   6.092   6.379  0.3102 -1.1787 -1.0558
 9566TIP3   OH228640   4.849   4.459   4.280  0.3270 -0.0519 -0.4103
 9566TIP3    H128641   4.915   4.521   4.311 -1.1842  2.5517 -2.0049
 9566TIP3    H228642   4.802   4.431   4.359  1.0696  0.8000  0.3499
 9567TIP3   OH228643   3.993   0.508   3.971  0.3667  0.0727  0.6494
 9567TIP3    H128644   4.014   0.452   3.896 -1.6770 -0.7194  0.6030
 9567TIP3    H228645   3.898   0.517   3.969  0.4777  2.0789  1.7416
 9568TIP3   OH228646   4.390   6.073   2.904  0.0270  0.1153  0.4739
 9568TIP3    H128647   4.300   6.043   2.913  0.1806 -0.3891  0.3282
 9568TIP3    H228648   4.439   5.996   2.875  0.2421  0.7484 -0.9417
 9569TIP3   OH228649   1.201   1.305   3.640  0.0288 -0.2879  0.4201
 9569TIP3    H128650   1.216   1.391   3.601  0.0777  0.5739  2.2250
 9569TIP3    H228651   1.284   1.259   3.630 -0.0803 -0.2312 -0.8010
 9570TIP3   OH228652   3.544   4.727   6.520 -0.0107 -0.3872  0.1736
 9570TIP3    H128653   3.629   4.701   6.554 -0.3552  0.7241  1.9677
 9570TIP3    H228654   3.551   4.820   6.503 -0.9405 -0.2107  0.6421
 9571TIP3   OH228655   1.381   1.220   6.070 -0.2266  0.3471  0.1877
 9571TIP3    H128656   1.384   1.302   6.118 -1.9711 -1.2290  3.2752
 9571TIP3    H228657   1.402   1.153   6.135 -0.1499 -1.7765 -1.8852
 9572TIP3   OH228658   7.824   2.194   0.991 -0.4494 -0.6848 -0.1378
 9572TIP3    H128659   7.731   2.216   0.986 -0.3884 -0.7783 -2.2173
 9572TIP3    H228660   7.825   2.101   1.015 -0.8492 -0.4097  1.0063
 9573TIP3   OH228661   5.106   6.328   3.323 -0.2259 -0.1418  0.0653
 9573TIP3    H128662   5.043   6.262   3.354  0.8591 -0.8813  0.7950
 9573TIP3    H228663   5.172   6.277   3.276  0.9378  0.3211  1.1377
 9574TIP3   OH228664   1.836   0.372   5.188 -0.2425  0.4159  0.4023
 9574TIP3    H128665   1.834   0.280   5.161 -0.9798  0.6600 -0.4280
 9574TIP3    H228666   1.922   0.383   5.229 -0.2689 -0.7187  0.7910
 9575TIP3   OH228667   6.419   3.762   6.242 -0.4108 -0.0457  0.6638
 9575TIP3    H128668   6.372   3.709   6.176  1.7585 -0.8784 -0.2904
 9575TIP3    H228669   6.444   3.841   6.195  0.6120 -0.3732  0.6435
 9576TIP3   OH228670   7.732   2.084   5.941 -0.4685 -0.1265  0.9117
 9576TIP3    H128671   7.681   2.071   6.021 -2.1238 -0.2346 -0.1173
 9576TIP3    H228672   7.691   2.027   5.877  0.1890  0.7083 -0.2791
 9577TIP3   OH228673   2.803   1.288   2.654  0.4496 -0.3142 -0.4588
 9577TIP3    H128674   2.709   1.276   2.670  0.5747  1.1759  1.8800
 9577TIP3    H228675   2.841   1.201   2.664 -0.5255 -0.7237 -0.2167
 9578TIP3   OH228676   7.512   7.356   3.149 -0.3653  0.1298  0.6341
 9578TIP3    H128677   7.423   7.351   3.182 -0.0475  0.1375  1.5120
 9578TIP3    H228678   7.550   7.271   3.170 -0.6485 -0.4950 -1.2083
 9579TIP3   OH228679   1.950   2.721   5.709  0.2550 -0.1085 -0.4638
 9579TIP3    H128680   1.976   2.812   5.726 -2.3389  0.9015 -1.3854
 9579TIP3    H228681   1.995   2.671   5.777  0.8624  2.0014  0.8140
 9580TIP3   OH228682   2.857   3.119   1.170 -0.1419 -0.1077 -0.6702
 9580TIP3    H128683   2.826   3.182   1.105  2.0394  0.8139 -0.9044
 9580TIP3    H228684   2.800   3.043   1.159 -2.2415  1.4262 -1.0420
 9581TIP3   OH228685   4.866   7.469   0.315  0.8743 -0.1089  0.7064
 9581TIP3    H128686   4.777   7.434   0.319  1.5436 -1.8322  1.4262
 9581TIP3    H228687   4.915   7.406   0.262  1.6591  0.8555  0.2436
 9582TIP3   OH228688   7.458   3.093   3.027  0.3209 -0.1760  0.0656
 9582TIP3    H128689   7.513   3.106   2.950 -0.9664  0.5141 -0.7740
 9582TIP3    H228690   7.375   3.060   2.992  0.5654 -2.4359  1.4177
 9583TIP3   OH228691   2.731   3.239   5.777 -0.4179 -0.0535 -0.4314
 9583TIP3    H128692   2.824   3.224   5.797 -0.2339  0.8350 -0.5944
 9583TIP3    H228693   2.725   3.227   5.682 -0.6938 -1.2065 -0.2804
 9584TIP3   OH228694   4.818   5.513   6.120 -0.2136  0.0020  0.2614
 9584TIP3    H128695   4.813   5.585   6.184 -0.7936  1.7441 -1.6268
 9584TIP3    H228696   4.911   5.510   6.096 -0.3579  0.9331 -0.4800
 9585TIP3   OH228697   3.884   4.292   4.514  0.2740 -0.6524 -0.5131
 9585TIP3    H128698   3.793   4.314   4.492 -0.3823 -0.3946  2.1184
 9585TIP3    H228699   3.881   4.271   4.607  3.1579  0.5823 -0.0542
 9586TIP3   OH228700   0.766   7.444   5.934 -0.4889  0.6672 -0.1118
 9586TIP3    H128701   0.718   7.367   5.966  0.1580 -0.3736 -1.5247
 9586TIP3    H228702   0.774   7.501   6.010 -1.3936 -0.4607  0.8636
 9587TIP3   OH228703   0.270   3.450   3.937 -0.0053  0.1874  0.1542
 9587TIP3    H128704   0.217   3.433   3.859 -1.2372  0.0105  1.0109
 9587TIP3    H228705   0.360   3.435   3.908 -0.2619  1.9103 -1.7237
 9588TIP3   OH228706   7.152   2.282   0.971 -0.1241 -0.5312  0.2104
 9588TIP3    H128707   7.181   2.229   1.045  0.1715 -0.5475  0.0851
 9588TIP3    H228708   7.154   2.372   1.003 -0.5738 -0.5922  0.4065
 9589TIP3   OH228709   2.501   7.826   2.541  0.2762 -0.0313 -0.2983
 9589TIP3    H128710   2.473   7.792   2.456 -0.9865 -2.7160  1.0644
 9589TIP3    H228711   2.420   7.857   2.582 -0.2804 -3.7695  1.9191
 9590TIP3   OH228712   7.204   3.584   5.936  0.0594 -0.6625  0.5014
 9590TIP3    H128713   7.232   3.581   5.845 -0.8053 -1.4599  0.2463
 9590TIP3    H228714   7.286   3.589   5.986  0.6537 -2.1738 -0.2443
 9591TIP3   OH228715   6.476   3.350   0.225  0.4351 -0.2836  0.0406
 9591TIP3    H128716   6.424   3.428   0.246  0.3766 -0.7346  1.7405
 9591TIP3    H228717   6.428   3.278   0.266  0.5425 -1.2311 -1.4170
 9592TIP3   OH228718   4.649   4.628   4.606 -0.7916 -0.5266 -0.1872
 9592TIP3    H128719   4.729   4.597   4.649 -1.2615 -1.0208  0.3379
 9592TIP3    H228720   4.678   4.704   4.555  0.1998 -1.2622 -0.7643
 9593TIP3   OH228721   1.105   3.391   4.083 -0.0245 -0.2316  0.2274
 9593TIP3    H128722   1.031   3.443   4.050 -1.3777 -2.1167  0.1197
 9593TIP3    H228723   1.151   3.450   4.143  1.1480  2.5411 -3.1065
 9594TIP3   OH228724   4.935   3.908   1.195  0.0395 -0.6332  0.2430
 9594TIP3    H128725   4.934   3.813   1.207 -1.7959 -0.5071  1.3909
 9594TIP3    H228726   4.993   3.922   1.120  0.8989 -2.5883  0.4780
 9595TIP3   OH228727   3.158   6.448   4.918  0.1285  0.4242 -0.0826
 9595TIP3    H128728   3.190   6.533   4.949  0.7224  0.0489  0.3659
 9595TIP3    H228729   3.203   6.435   4.834  1.3363 -0.1750  0.6218
 9596TIP3   OH228730   4.100   2.516   6.119 -0.4351  0.2792  0.9035
 9596TIP3    H128731   4.181   2.518   6.067  0.0332 -2.2314  1.4143
 9596TIP3    H228732   4.048   2.589   6.084 -0.0572 -1.0452 -3.0016
 9597TIP3   OH228733   5.416   0.255   2.614 -0.4164 -0.0402  0.1356
 9597TIP3    H128734   5.395   0.172   2.570  0.2730  0.1074 -0.5004
 9597TIP3    H228735   5.331   0.292   2.636 -0.9650  0.8453 -2.9226
 9598TIP3   OH228736   4.924   5.333   3.904  0.1940  0.6112  0.1352
 9598TIP3    H128737   4.907   5.405   3.842 -1.1763 -1.1055 -1.6360
 9598TIP3    H228738   4.845   5.279   3.899  1.3699 -1.2737  1.0358
 9599TIP3   OH228739   5.465   6.125   1.231 -0.6168 -0.2708  0.3647
 9599TIP3    H128740   5.446   6.218   1.247 -0.1821 -0.1224  0.0524
 9599TIP3    H228741   5.433   6.110   1.142  0.9645  0.0600 -0.2819
 9600TIP3   OH228742   4.171   2.856   3.647 -0.2313 -0.9719 -0.1324
 9600TIP3    H128743   4.077   2.864   3.634 -0.1927 -1.1118 -0.5209
 9600TIP3    H228744   4.207   2.847   3.558  0.3798  1.3264 -0.1718
 9601TIP3   OH228745   2.128   6.746   1.336 -0.7197  0.7566 -0.6278
 9601TIP3    H128746   2.132   6.724   1.242 -1.4141  1.4309 -0.8257
 9601TIP3    H228747   2.054   6.806   1.343  0.1981  1.8135  0.1437
 9602TIP3   OH228748   0.435   2.454   1.545  0.2843  0.3071 -0.4235
 9602TIP3    H128749   0.493   2.420   1.476 -0.0778  0.1642 -0.6605
 9602TIP3    H228750   0.495   2.484   1.614  0.6874  1.3169 -1.1861
 9603TIP3   OH228751   6.872   6.787   6.669 -0.5875 -0.2894 -0.0292
 9603TIP3    H128752   6.962   6.757   6.663 -1.0673 -1.8094 -0.0329
 9603TIP3    H228753   6.861   6.846   6.594  0.3738 -0.1395 -0.0567
 9604TIP3   OH228754   7.589   5.785   5.721 -0.2026  0.0319  0.0259
 9604TIP3    H128755   7.545   5.716   5.769 -1.4145  1.1856  0.6485
 9604TIP3    H228756   7.680   5.783   5.751 -0.4235 -0.7358  0.6471
 9605TIP3   OH228757   1.415   4.152   0.391  0.3770 -0.0695  0.2612
 9605TIP3    H128758   1.432   4.114   0.304  1.2774  0.7408  0.0744
 9605TIP3    H228759   1.469   4.101   0.451 -2.8342 -3.0295  0.9792
 9606TIP3   OH228760   4.919   1.013   1.471 -0.5483  0.2612  0.2053
 9606TIP3    H128761   4.836   1.061   1.477 -1.2300 -0.6669 -1.4621
 9606TIP3    H228762   4.903   0.944   1.407  1.2544 -0.4990  0.5214
 9607TIP3   OH228763   4.980   2.866   0.844 -0.0402 -0.4180  0.4669
 9607TIP3    H128764   5.026   2.907   0.771  0.6432 -2.1147 -0.1058
 9607TIP3    H228765   4.888   2.864   0.816 -0.2763  1.5790  0.9555
 9608TIP3   OH228766   0.203   4.259   2.291 -0.5784 -0.7982 -0.4022
 9608TIP3    H128767   0.259   4.186   2.317 -0.4192 -0.0646  1.4437
 9608TIP3    H228768   0.231   4.332   2.346 -1.1167  0.5195 -1.8104
 9609TIP3   OH228769   0.276   7.219   3.098  0.8390  0.8035 -0.4608
 9609TIP3    H128770   0.188   7.183   3.114  1.8515 -2.4041 -1.4711
 9609TIP3    H228771   0.297   7.265   3.180 -1.6189  1.4480 -0.0820
 9610TIP3   OH228772   0.385   7.027   1.201 -0.0802  0.7313  0.4657
 9610TIP3    H128773   0.389   7.018   1.296 -2.7979  0.1455  0.5935
 9610TIP3    H228774   0.441   6.957   1.168 -2.2281 -1.7038  1.6682
 9611TIP3   OH228775   0.739   4.583   2.163 -0.3353 -0.4975  0.0553
 9611TIP3    H128776   0.648   4.599   2.186  0.2131  0.6850  1.6353
 9611TIP3    H228777   0.750   4.488   2.172 -1.4286 -0.6787 -0.3473
 9612TIP3   OH228778   2.192   5.824   0.341 -0.1769 -0.2939 -0.6594
 9612TIP3    H128779   2.268   5.791   0.294 -0.9398 -3.2758  0.0216
 9612TIP3    H228780   2.220   5.829   0.433 -0.0715  1.1579 -0.7358
 9613TIP3   OH228781   3.317   3.564   1.052 -0.4402  0.6412 -0.5168
 9613TIP3    H128782   3.403   3.604   1.036 -0.2759  0.1742 -0.8177
 9613TIP3    H228783   3.323   3.529   1.140  0.3682 -1.1111 -1.2286
 9614TIP3   OH228784   0.882   4.027   4.096  0.6047  0.2261 -0.0159
 9614TIP3    H128785   0.844   4.086   4.031  1.6283  2.7022  1.4648
 9614TIP3    H228786   0.830   4.041   4.175 -0.5326 -2.6217 -0.1476
 9615TIP3   OH228787   2.424   4.686   2.090  0.3837  0.3586  0.1466
 9615TIP3    H128788   2.418   4.764   2.145 -1.2618  0.4696 -0.1283
 9615TIP3    H228789   2.508   4.694   2.045  0.5074  1.6666  0.5735
 9616TIP3   OH228790   2.660   3.754   3.709  0.0979  0.2528 -0.4108
 9616TIP3    H128791   2.665   3.811   3.785 -0.9302  1.6681 -1.3405
 9616TIP3    H228792   2.569   3.726   3.706  0.1737  0.0482 -0.9949
 9617TIP3   OH228793   7.154   2.554   1.521  0.0526  0.4859 -0.1590
 9617TIP3    H128794   7.215   2.535   1.593  1.7602  0.1302 -1.6470
 9617TIP3    H228795   7.179   2.494   1.451 -0.9024  1.5123 -1.4328
 9618TIP3   OH228796   2.043   4.569   0.508 -0.2207  0.2934 -0.4993
 9618TIP3    H128797   1.994   4.577   0.589  0.5727 -1.2287  0.1608
 9618TIP3    H228798   1.984   4.603   0.441 -0.1885  3.4509  0.8800
 9619TIP3   OH228799   7.022   3.152   5.247  0.1783  0.1181  0.4760
 9619TIP3    H128800   7.029   3.243   5.218  1.3280  0.1193  0.7125
 9619TIP3    H228801   6.998   3.159   5.340  0.5749  0.1915  0.5749
 9620TIP3   OH228802   7.179   4.517   1.945  0.0929  0.4865 -0.6536
 9620TIP3    H128803   7.199   4.489   2.034  1.5233  0.7368 -0.8699
 9620TIP3    H228804   7.226   4.454   1.889  0.8546  1.4908 -1.1785
 9621TIP3   OH228805   2.469   1.268   1.908 -0.4710  0.0139  0.1724
 9621TIP3    H128806   2.453   1.319   1.988 -0.4705 -0.9784  0.8359
 9621TIP3    H228807   2.560   1.237   1.918 -0.8307 -1.0240  0.3290
 9622TIP3   OH228808   7.464   4.517   0.159 -0.1822 -0.3400 -0.5707
 9622TIP3    H128809   7.465   4.611   0.142  0.1483 -0.2343 -0.0089
 9622TIP3    H228810   7.381   4.486   0.124 -0.7156  0.3241  0.0889
 9623TIP3   OH228811   7.581   6.440   4.918  0.8223 -0.0484 -0.4213
 9623TIP3    H128812   7.616   6.524   4.887  1.2050  0.0329  0.2080
 9623TIP3    H228813   7.659   6.388   4.938  0.7756  1.0825  3.6769
 9624TIP3   OH228814   8.307   0.895   5.968 -0.1595  0.3292 -0.2847
 9624TIP3    H128815   8.221   0.930   5.994 -0.0032  0.4323  0.0919
 9624TIP3    H228816   8.307   0.902   5.872 -0.6580  0.1243 -0.3040
 9625TIP3   OH228817   5.118   0.243   3.289 -0.6300  0.0584  0.3720
 9625TIP3    H128818   5.129   0.328   3.246 -1.8787  0.3195  0.5204
 9625TIP3    H228819   5.050   0.199   3.238  1.2298 -1.6215 -0.7805
 9626TIP3   OH228820   3.340   5.131   3.872  0.3586 -0.1089  0.2995
 9626TIP3    H128821   3.304   5.052   3.912  1.7970 -0.5479  0.8008
 9626TIP3    H228822   3.373   5.101   3.787 -0.1940  0.2244 -0.0349
 9627TIP3   OH228823   1.026   7.764   0.629 -0.0209  0.1979  0.1463
 9627TIP3    H128824   1.115   7.765   0.594  0.1431  0.3190  0.5613
 9627TIP3    H228825   1.022   7.839   0.689 -0.5969  0.5729 -0.3436
 9628TIP3   OH228826   1.442   5.338   2.391  0.4063  0.6918 -0.2063
 9628TIP3    H128827   1.469   5.427   2.416 -0.1781  0.4769  1.3031
 9628TIP3    H228828   1.409   5.300   2.472  1.4501 -1.2237 -0.6364
 9629TIP3   OH228829   4.412   7.098   3.927 -0.5479 -0.3113 -1.0271
 9629TIP3    H128830   4.374   7.028   3.980  0.3312  0.5664  0.8402
 9629TIP3    H228831   4.380   7.179   3.966  2.4094  0.4484  0.0937
 9630TIP3   OH228832   0.732   5.730   6.261  0.2382 -0.3542  0.4275
 9630TIP3    H128833   0.678   5.693   6.331 -1.7070 -0.4865 -1.0682
 9630TIP3    H228834   0.817   5.747   6.303 -0.8204 -0.4720  2.7854
 9631TIP3   OH228835   5.127   3.136   6.458  0.3336  0.1920 -0.7877
 9631TIP3    H128836   5.134   3.085   6.539  1.7993 -0.7027 -1.4322
 9631TIP3    H228837   5.104   3.072   6.391 -0.4890  0.8612 -1.1638
 9632TIP3   OH228838   4.901   2.496   3.486  0.5742  0.7035 -0.5484
 9632TIP3    H128839   4.880   2.403   3.496 -0.2005  1.0805  2.2777
 9632TIP3    H228840   4.993   2.503   3.511  0.6865  0.6695 -0.9533
 9633TIP3   OH228841   4.996   1.614   6.743  0.1665 -0.5859  0.0823
 9633TIP3    H128842   5.017   1.556   6.670 -1.7028 -0.0920 -0.9243
 9633TIP3    H228843   5.050   1.691   6.728 -1.1456  0.0835 -1.6303
 9634TIP3   OH228844   6.198   4.218   2.078 -0.0684 -0.2010 -0.1147
 9634TIP3    H128845   6.117   4.197   2.124 -0.3841  0.4255 -0.3703
 9634TIP3    H228846   6.171   4.239   1.989  0.5355 -1.4088 -0.6152
 9635TIP3   OH228847   4.508   4.411   1.232 -0.0458  0.1236  0.0747
 9635TIP3    H128848   4.452   4.340   1.263 -0.6822  1.2510  1.6549
 9635TIP3    H228849   4.486   4.421   1.140 -0.0301 -1.6279 -0.1441
 9636TIP3   OH228850   1.565   7.650   3.283  0.3911 -0.0994  0.3176
 9636TIP3    H128851   1.523   7.686   3.360  0.6762  0.5018  0.1964
 9636TIP3    H228852   1.584   7.559   3.307  0.0783 -0.0451  0.7887
 9637TIP3   OH228853   2.153   7.123   6.495  0.0077  0.4640 -0.4348
 9637TIP3    H128854   2.100   7.079   6.428 -1.3843  1.5382 -0.0956
 9637TIP3    H228855   2.108   7.104   6.577  2.2331 -1.6597  0.4280
 9638TIP3   OH228856   2.337   7.209   4.371 -0.1023  0.0422  0.0563
 9638TIP3    H128857   2.275   7.259   4.424 -0.9603  0.2307 -1.0995
 9638TIP3    H228858   2.403   7.274   4.345  0.0686  0.0488  0.4873
 9639TIP3   OH228859   4.409   4.128   3.599  1.5427 -0.4228  0.3733
 9639TIP3    H128860   4.430   4.209   3.646  0.2904 -1.3165  2.6503
 9639TIP3    H228861   4.369   4.071   3.666 -1.0643 -1.5445 -1.9430
 9640TIP3   OH228862   3.651   3.086   5.909 -0.0757 -0.1662  0.8049
 9640TIP3    H128863   3.655   3.078   6.005  1.0127  1.4567  0.9307
 9640TIP3    H228864   3.563   3.119   5.891 -1.1585 -2.6889  0.9974
 9641TIP3   OH228865   5.686   2.842   0.851 -0.5304  0.2854 -0.5669
 9641TIP3    H128866   5.734   2.871   0.928 -1.0613 -0.5005  0.0804
 9641TIP3    H228867   5.720   2.896   0.780 -0.8017  1.8124  0.4009
 9642TIP3   OH228868   0.195   1.400   6.669 -0.6691  0.0611  0.5569
 9642TIP3    H128869   0.175   1.415   6.762 -0.2638 -0.3297  0.7089
 9642TIP3    H228870   0.230   1.311   6.666 -1.4310 -0.2261 -0.0893
 9643TIP3   OH228871   2.987   7.023   5.756 -0.3378 -0.8334 -0.0234
 9643TIP3    H128872   2.950   7.110   5.748 -0.6003 -1.0243 -1.1868
 9643TIP3    H228873   2.927   6.975   5.813 -2.2804 -1.3102 -2.3169
 9644TIP3   OH228874   7.298   6.615   1.956 -0.0613  0.2614  0.5663
 9644TIP3    H128875   7.351   6.540   1.983 -1.6717 -1.5026 -0.9284
 9644TIP3    H228876   7.352   6.660   1.891  1.4612  1.2574  2.4149
 9645TIP3   OH228877   0.677   4.558   6.016  0.2200 -0.2061  0.3899
 9645TIP3    H128878   0.756   4.591   5.973 -0.4564  1.6044  0.4717
 9645TIP3    H228879   0.619   4.634   6.021  0.0684 -0.3849  4.0523
 9646TIP3   OH228880   7.753   6.021   3.398  0.3005  0.1765  0.3346
 9646TIP3    H128881   7.800   5.988   3.321  1.0321 -0.9224  1.2262
 9646TIP3    H228882   7.664   6.034   3.367  1.0058  1.7062 -1.2347
 9647TIP3   OH228883   7.053   3.987   6.061 -0.1699  0.0176  0.3170
 9647TIP3    H128884   6.972   4.034   6.042 -0.6005 -0.3756  1.1679
 9647TIP3    H228885   7.040   3.901   6.022  0.8253  0.7061 -1.7097
 9648TIP3   OH228886   6.532   7.027   1.239 -0.5319 -0.6120 -0.7513
 9648TIP3    H128887   6.620   6.996   1.219  0.6048  2.0210 -0.2267
 9648TIP3    H228888   6.524   7.018   1.334 -0.9346 -1.0649 -0.8244
 9649TIP3   OH228889   3.551   0.403   4.362  0.4177  0.0184 -0.0129
 9649TIP3    H128890   3.566   0.429   4.453  2.3633  0.8011 -0.4923
 9649TIP3    H228891   3.498   0.474   4.325 -0.5487 -0.4009  0.5483
 9650TIP3   OH228892   5.531   2.069   6.801  0.1733 -0.0043 -0.3831
 9650TIP3    H128893   5.478   1.996   6.768  0.6436 -0.3960 -0.2737
 9650TIP3    H228894   5.615   2.059   6.756  0.5733 -0.1170  0.3890
 9651TIP3   OH228895   6.722   1.092   6.016 -0.1863  0.7453 -0.2244
 9651TIP3    H128896   6.669   1.015   5.997 -0.3099  0.9447 -0.6864
 9651TIP3    H228897   6.720   1.098   6.112 -1.0639  0.7917 -0.2341
 9652TIP3   OH228898   7.390   7.008   2.413  0.4654  0.3516 -0.0142
 9652TIP3    H128899   7.405   7.063   2.336 -0.6500  1.7712  0.7137
 9652TIP3    H228900   7.333   6.938   2.382 -1.3987  1.8579 -0.2044
 9653TIP3   OH228901   7.462   3.243   5.706  0.0584 -0.3348 -0.0818
 9653TIP3    H128902   7.487   3.275   5.619 -0.0525 -1.6482 -0.6228
 9653TIP3    H228903   7.511   3.162   5.717  0.1882 -0.1048  1.1582
 9654TIP3   OH228904   5.908   1.255   4.810  0.3962  0.5901 -0.0487
 9654TIP3    H128905   5.992   1.302   4.816 -0.1830  2.3713 -3.4276
 9654TIP3    H228906   5.919   1.194   4.737 -0.5088 -0.9829  1.0740
 9655TIP3   OH228907   1.397   7.335   0.823  0.1781  0.2450  0.2232
 9655TIP3    H128908   1.355   7.251   0.802  0.1846  0.4861 -0.8222
 9655TIP3    H228909   1.329   7.400   0.807 -0.2729  0.3864  2.3594
 9656TIP3   OH228910   6.983   2.432   2.354 -0.1671 -0.2829 -0.2771
 9656TIP3    H128911   6.906   2.478   2.387  0.6868  1.1253 -0.1344
 9656TIP3    H228912   6.949   2.357   2.307 -1.6404  0.5338 -0.5496
 9657TIP3   OH228913   1.460   7.499   3.065  0.3453 -0.4794  0.3316
 9657TIP3    H128914   1.488   7.576   3.114  0.2014 -0.0721 -0.2180
 9657TIP3    H228915   1.539   7.445   3.058  0.9233  0.4755 -0.8715
 9658TIP3   OH228916   2.149   7.291   0.224 -0.3452  0.4380  1.0846
 9658TIP3    H128917   2.150   7.196   0.221 -0.5803  0.2990 -4.7583
 9658TIP3    H228918   2.056   7.314   0.227 -0.4153  0.3585 -0.0885
 9659TIP3   OH228919   5.561   7.813   2.812 -0.0035 -0.1936 -0.5424
 9659TIP3    H128920   5.638   7.756   2.806  1.6070  1.9555 -2.0856
 9659TIP3    H228921   5.549   7.827   2.906  3.3256  1.5644 -0.2077
 9660TIP3   OH228922   6.124   3.488   1.123  0.0691  0.6497 -0.1326
 9660TIP3    H128923   6.046   3.481   1.178  0.9578 -0.4432  1.0461
 9660TIP3    H228924   6.095   3.457   1.037 -0.0715 -3.0844  1.0867
 9661TIP3   OH228925   7.981   6.236   0.957 -0.1967 -0.9862 -0.0326
 9661TIP3    H128926   7.941   6.183   0.887  2.5819 -1.2905 -1.5150
 9661TIP3    H228927   8.033   6.174   1.007 -1.3654 -0.5752  1.7868
 9662TIP3   OH228928   7.429   0.659   2.411  0.2397  0.1999 -0.2408
 9662TIP3    H128929   7.376   0.610   2.474 -0.6487  1.4218  0.0204
 9662TIP3    H228930   7.380   0.653   2.329 -0.3276  1.3177 -0.0043
 9663TIP3   OH228931   7.403   5.256   0.569  0.2110 -1.0770  0.2783
 9663TIP3    H128932   7.489   5.293   0.588  1.2697 -1.6392 -2.8417
 9663TIP3    H228933   7.354   5.328   0.529 -0.0980 -1.2695  0.3068
 9664TIP3   OH228934   3.391   3.282   1.173  0.0246 -0.1776 -0.5094
 9664TIP3    H128935   3.302   3.277   1.207 -0.3305 -2.4086 -1.5978
 9664TIP3    H228936   3.381   3.305   1.081  0.5596 -0.5659 -0.6733
 9665TIP3   OH228937   2.861   0.800   1.445  0.6527  0.6005 -0.3698
 9665TIP3    H128938   2.804   0.780   1.371  0.6111  1.2072 -0.5087
 9665TIP3    H228939   2.831   0.743   1.515  0.3003  0.4475 -0.6437
 9666TIP3   OH228940   3.233   3.108   6.125  0.2758  0.4723 -0.4685
 9666TIP3    H128941   3.219   3.013   6.116 -0.4721  0.4886  0.3673
 9666TIP3    H228942   3.201   3.128   6.212 -0.0470  1.5912 -0.8330
 9667TIP3   OH228943   8.100   4.341   0.986 -0.3234  0.0450  0.8274
 9667TIP3    H128944   8.133   4.361   0.898 -1.1950 -0.4853  0.3603
 9667TIP3    H228945   8.096   4.246   0.988 -0.8422  0.0749  1.2441
 9668TIP3   OH228946   4.459   4.190   3.171 -0.3253 -0.0137 -0.2385
 9668TIP3    H128947   4.455   4.221   3.080  1.6619  0.0569 -0.3520
 9668TIP3    H228948   4.471   4.095   3.164 -0.8498 -0.0981 -0.0275
 9669TIP3   OH228949   2.135   4.710   4.688 -0.7972 -0.4326  0.6942
 9669TIP3    H128950   2.198   4.644   4.715 -1.2278 -0.6870  1.1028
 9669TIP3    H228951   2.158   4.787   4.740  0.9714  0.4268 -1.2111
 9670TIP3   OH228952   2.100   0.553   0.540  0.7876  0.2421  0.2083
 9670TIP3    H128953   2.033   0.569   0.474  0.2112 -0.1363  0.6956
 9670TIP3    H228954   2.154   0.483   0.502 -1.1936 -1.9721  1.2667
 9671TIP3   OH228955   1.060   4.737   4.075  0.0109  0.7456 -0.1492
 9671TIP3    H128956   0.992   4.776   4.020 -0.6661  0.0048  0.1416
 9671TIP3    H228957   1.064   4.793   4.152 -0.7823  0.3829  0.1585
 9672TIP3   OH228958   4.076   6.048   6.168 -0.8256 -0.2336 -0.2275
 9672TIP3    H128959   4.064   6.121   6.108  0.8344  2.0813  2.0738
 9672TIP3    H228960   4.146   5.996   6.129 -0.0731  0.9777 -0.5346
 9673TIP3   OH228961   1.722   7.106   2.966 -0.1425 -0.7192  0.3245
 9673TIP3    H128962   1.768   7.065   2.893 -0.3320  0.2958 -0.3838
 9673TIP3    H228963   1.725   7.041   3.036 -1.5188 -2.4528 -1.1314
 9674TIP3   OH228964   1.901   7.768   4.442  0.0690  0.0048  0.2058
 9674TIP3    H128965   1.876   7.744   4.531  0.0601  1.1060  0.5159
 9674TIP3    H228966   1.933   7.858   4.449  0.0425  0.1226 -0.9122
 9675TIP3   OH228967   7.067   6.902   3.271  0.5510 -0.5216  0.3804
 9675TIP3    H128968   7.122   6.910   3.193  0.5749 -1.4020  0.2957
 9675TIP3    H228969   6.977   6.906   3.239  0.5632 -0.2570  0.3802
 9676TIP3   OH228970   8.151   4.893   2.020  0.0649 -0.2276  0.5090
 9676TIP3    H128971   8.148   4.851   2.106 -0.0478 -0.2228  0.5069
 9676TIP3    H228972   8.105   4.976   2.031 -0.7682 -0.6387  0.2168
 9677TIP3   OH228973   6.112   0.167   5.889  0.2218  0.3461 -0.0044
 9677TIP3    H128974   6.104   0.092   5.948 -1.2764  0.7537  0.3640
 9677TIP3    H228975   6.160   0.232   5.940  1.7754 -0.4184 -0.4247
 9678TIP3   OH228976   5.995   6.883   6.050  0.0139 -0.2118  0.1341
 9678TIP3    H128977   6.015   6.793   6.074 -0.4696 -0.7160 -1.2780
 9678TIP3    H228978   6.074   6.915   6.007  0.0889 -0.0417  0.3926
 9679TIP3   OH228979   6.402   6.739   3.510  0.4975 -0.3109 -0.2895
 9679TIP3    H128980   6.399   6.702   3.599 -2.6443 -1.6751 -0.8173
 9679TIP3    H228981   6.448   6.823   3.521 -0.5803  0.0297  2.8359
 9680TIP3   OH228982   2.564   7.662   1.302 -0.2140  0.0423  0.3879
 9680TIP3    H128983   2.545   7.702   1.387  1.1201  0.5608  0.4621
 9680TIP3    H228984   2.486   7.609   1.283 -0.5861 -0.0077  1.8841
 9681TIP3   OH228985   1.987   2.884   3.738  0.0949  0.0720  0.2104
 9681TIP3    H128986   2.001   2.940   3.814  0.6703  0.2036  0.0156
 9681TIP3    H228987   1.895   2.897   3.715  0.0888  0.5346  0.4830
 9682TIP3   OH228988   6.436   5.753   2.778 -0.0545  0.2393  0.8832
 9682TIP3    H128989   6.466   5.731   2.866 -2.2139  0.6463  1.7789
 9682TIP3    H228990   6.405   5.670   2.742  1.3237 -0.0329  0.2528
 9683TIP3   OH228991   4.869   5.447   6.611  0.1757 -0.1109  0.0158
 9683TIP3    H128992   4.880   5.354   6.594 -0.2691  0.1941 -2.1514
 9683TIP3    H228993   4.778   5.455   6.641  0.4807 -0.4546  1.0836
 9684TIP3   OH228994   7.371   1.751   0.542  0.3253 -0.0868  0.4784
 9684TIP3    H128995   7.298   1.695   0.519  0.7030 -0.2312 -0.3972
 9684TIP3    H228996   7.436   1.736   0.474  0.8031  0.7248  0.7336
 9685TIP3   OH228997   3.358   4.482   6.014 -0.0564 -0.0316  0.3135
 9685TIP3    H128998   3.322   4.394   6.023 -0.5030 -0.1563 -1.9896
 9685TIP3    H228999   3.282   4.540   6.016  0.0168  0.0933 -0.2374
 9686TIP3   OH229000   6.102   1.334   1.783  0.0420 -0.7255 -0.0863
 9686TIP3    H129001   6.182   1.381   1.759 -2.0501  2.0947 -2.3337
 9686TIP3    H229002   6.085   1.276   1.710  0.1881 -1.5794  0.5472
 9687TIP3   OH229003   4.072   5.839   3.638  0.3662  0.0179 -0.4957
 9687TIP3    H129004   3.988   5.804   3.609  2.3278 -2.3575 -4.1123
 9687TIP3    H229005   4.056   5.932   3.651 -2.4098  0.0631 -3.1352
 9688TIP3   OH229006   6.537   6.282   4.962 -0.1618 -0.8568  0.6187
 9688TIP3    H129007   6.604   6.216   4.982 -0.5036 -1.3713  0.0769
 9688TIP3    H229008   6.455   6.243   4.993 -0.1170  0.1659  2.1628
 9689TIP3   OH229009   2.929   0.109   6.522 -0.1412 -0.1149  0.5546
 9689TIP3    H129010   2.997   0.065   6.571  0.2274 -0.9627 -0.6695
 9689TIP3    H229011   2.929   0.067   6.436 -0.6677  1.3909 -0.2367
 9690TIP3   OH229012   1.177   3.688   4.869 -0.1903  0.3173 -0.2575
 9690TIP3    H129013   1.248   3.715   4.927 -0.2435 -0.8079  0.3609
 9690TIP3    H229014   1.187   3.593   4.862 -0.0909  0.4162 -2.2232
 9691TIP3   OH229015   7.701   1.733   0.032  0.2236  0.1689 -0.1396
 9691TIP3    H129016   7.611   1.749   0.060 -0.4284 -1.1265 -1.3902
 9691TIP3    H229017   7.703   1.639   0.011  1.5786  0.3897 -1.1014
 9692TIP3   OH229018   3.389   2.932   6.302 -0.4558  0.2105  0.6341
 9692TIP3    H129019   3.413   2.871   6.232 -1.9380 -0.0151  0.2773
 9692TIP3    H229020   3.395   3.019   6.262  1.1670  0.2995  0.9977
 9693TIP3   OH229021   4.177   1.231   2.929 -0.2713  0.0668  0.1506
 9693TIP3    H129022   4.200   1.202   3.017 -1.3805 -0.8290  0.1700
 9693TIP3    H229023   4.260   1.258   2.890  0.5274 -1.3269  0.8213
 9694TIP3   OH229024   7.120   6.964   2.272  0.2312 -0.6622  0.3478
 9694TIP3    H129025   7.042   7.009   2.242  1.0297  1.0909  0.7402
 9694TIP3    H229026   7.167   6.942   2.192  0.5405  0.6084  0.1474
 9695TIP3   OH229027   1.682   1.923   3.389  0.4527 -0.2295  0.4052
 9695TIP3    H129028   1.763   1.969   3.412  1.4828 -2.2768  1.0702
 9695TIP3    H229029   1.684   1.918   3.293  0.4019  0.9265  0.3304
 9696TIP3   OH229030   5.495   0.158   2.937 -0.0745  0.0904  0.3807
 9696TIP3    H129031   5.439   0.102   2.882 -0.9248  2.1421 -0.9435
 9696TIP3    H229032   5.583   0.145   2.903 -0.4182  0.3814 -0.6434
 9697TIP3   OH229033   3.352   2.721   0.143  0.0843 -0.1443  0.2834
 9697TIP3    H129034   3.293   2.776   0.195  0.1076  0.3515 -0.2182
 9697TIP3    H229035   3.434   2.770   0.139  0.5512 -0.8313  0.9756
 9698TIP3   OH229036   0.888   3.787   2.934  0.7748  0.3315 -0.4374
 9698TIP3    H129037   0.940   3.842   2.875  0.1249  0.6010 -0.7640
 9698TIP3    H229038   0.887   3.701   2.892  0.1899  0.5609 -0.8988
 9699TIP3   OH229039   4.386   3.540   4.674  0.5084  0.3689 -0.5302
 9699TIP3    H129040   4.411   3.462   4.625  1.7300 -0.2348  0.9514
 9699TIP3    H229041   4.382   3.511   4.765  0.3807  1.8863 -0.0167
 9700TIP3   OH229042   0.761   5.871   3.893 -0.4243  0.7600 -0.0293
 9700TIP3    H129043   0.711   5.898   3.816  1.8015  0.3007 -1.7423
 9700TIP3    H229044   0.834   5.932   3.898 -0.1958  0.4183  1.3801
 9701TIP3   OH229045   3.537   2.733   2.643 -0.8529  0.3682  0.2444
 9701TIP3    H129046   3.548   2.700   2.732  0.0836 -0.9755 -0.3357
 9701TIP3    H229047   3.443   2.748   2.633 -0.8439  1.6614  1.8257
 9702TIP3   OH229048   3.536   0.280   6.414  0.0371  0.2182  0.1197
 9702TIP3    H129049   3.462   0.252   6.362  0.4053 -1.1439  0.2846
 9702TIP3    H229050   3.593   0.202   6.419  0.0396  0.2909  2.4809
 9703TIP3   OH229051   5.440   2.311   2.974 -0.1694 -0.1974 -0.8122
 9703TIP3    H129052   5.355   2.352   2.957 -0.8769 -1.7146 -1.1192
 9703TIP3    H229053   5.429   2.268   3.059  0.8854  1.0387 -0.0138
 9704TIP3   OH229054   2.638   5.119   1.683  0.0268 -0.1666 -0.5602
 9704TIP3    H129055   2.641   5.032   1.643  0.5459 -0.0584 -0.7643
 9704TIP3    H229056   2.592   5.174   1.619 -0.9518 -0.4471 -0.1156
 9705TIP3   OH229057   6.461   6.774   0.923  0.1147 -0.7080 -0.4574
 9705TIP3    H129058   6.399   6.845   0.907  0.9238  0.0503 -0.2518
 9705TIP3    H229059   6.439   6.742   1.010 -0.6362 -1.1200 -0.7867
 9706TIP3   OH229060   5.499   6.654   5.876 -0.0442 -0.0911 -0.0522
 9706TIP3    H129061   5.570   6.591   5.885  0.1997 -0.2220 -2.2163
 9706TIP3    H229062   5.423   6.610   5.914  0.2898 -1.4191 -0.8397
 9707TIP3   OH229063   6.225   1.900   3.618 -0.2737  0.3626 -0.3619
 9707TIP3    H129064   6.314   1.913   3.586 -0.0526 -0.4590 -0.0904
 9707TIP3    H229065   6.203   1.811   3.593 -0.4709  0.0508  0.8585
 9708TIP3   OH229066   6.196   2.557   0.593 -0.1953 -0.3325  0.3342
 9708TIP3    H129067   6.251   2.530   0.667 -1.3202 -0.2900  1.2171
 9708TIP3    H229068   6.160   2.475   0.559  0.8253 -0.4099 -0.5922
 9709TIP3   OH229069   7.807   0.117   2.363 -0.4076 -0.1285 -0.0874
 9709TIP3    H129070   7.823   0.080   2.276 -2.6532 -1.3879 -0.0583
 9709TIP3    H229071   7.733   0.177   2.349 -0.5534 -0.0714  0.8992
 9710TIP3   OH229072   0.426   4.524   6.305  0.4148  0.1919  0.2739
 9710TIP3    H129073   0.519   4.506   6.289 -0.1103 -1.9266 -0.6595
 9710TIP3    H229074   0.389   4.439   6.328 -2.0829  0.0999 -3.4081
 9711TIP3   OH229075   6.421   6.923   6.713 -0.2091  0.0879 -0.3602
 9711TIP3    H129076   6.382   6.942   6.628  2.0947  1.5949 -1.1902
 9711TIP3    H229077   6.505   6.970   6.712 -0.3570  0.6752  3.0001
 9712TIP3   OH229078   6.420   0.184   5.902 -0.7730 -0.1492  0.0709
 9712TIP3    H129079   6.508   0.166   5.935 -0.6226  0.3284 -0.0721
 9712TIP3    H229080   6.374   0.223   5.977 -0.7751 -0.1282  0.0585
 9713TIP3   OH229081   3.151   3.053   3.491  0.3451  0.1643  0.7240
 9713TIP3    H129082   3.059   3.049   3.516  0.6556 -2.2945  1.8356
 9713TIP3    H229083   3.199   3.040   3.573  1.6236 -0.2838 -0.0515
 9714TIP3   OH229084   3.056   4.896   4.284  0.1938 -0.3456  0.1021
 9714TIP3    H129085   2.969   4.917   4.318  0.0587 -0.2914 -0.2805
 9714TIP3    H229086   3.076   4.810   4.322  1.2172  0.8957  2.5925
 9715TIP3   OH229087   7.586   4.441   1.558 -0.9019  0.1847  0.1943
 9715TIP3    H129088   7.551   4.416   1.472  0.9517  1.7136 -1.0724
 9715TIP3    H229089   7.509   4.472   1.606 -2.1678 -1.7296 -0.4664
 9716TIP3   OH229090   4.194   6.181   4.768 -0.1855  0.0126  0.8359
 9716TIP3    H129091   4.204   6.117   4.838 -0.2806  0.1870  1.0091
 9716TIP3    H229092   4.259   6.249   4.788 -0.8146  0.4986  1.2403
 9717TIP3   OH229093   0.197   3.044   6.369 -0.2081  0.4522  0.4246
 9717TIP3    H129094   0.228   2.969   6.320  0.2765  1.0501 -0.2081
 9717TIP3    H229095   0.129   3.009   6.426 -0.4295 -0.3459 -0.3082
 9718TIP3   OH229096   7.512   3.229   4.660 -0.3109 -0.1969  0.1271
 9718TIP3    H129097   7.535   3.160   4.597 -0.3702  0.4912 -0.6553
 9718TIP3    H229098   7.490   3.305   4.606 -0.4568  0.3766  0.9791
 9719TIP3   OH229099   6.915   3.069   4.969 -0.1087  0.2463  0.1848
 9719TIP3    H129100   6.980   3.083   4.900  2.0296  1.8789  2.3675
 9719TIP3    H229101   6.948   2.993   5.018 -2.2598 -1.6942 -1.1639
 9720TIP3   OH229102   7.104   2.535   3.621  0.0170  0.4705  0.0105
 9720TIP3    H129103   7.023   2.505   3.580  0.5919  0.1402 -0.9210
 9720TIP3    H229104   7.156   2.456   3.634  0.4313  0.7417  0.0488
 9721TIP3   OH229105   1.986   1.223   5.626  0.2611 -0.2089 -0.3030
 9721TIP3    H129106   2.044   1.148   5.611 -0.6577 -0.5464 -2.4640
 9721TIP3    H229107   1.996   1.242   5.719  2.6997 -1.1803 -0.2815
 9722TIP3   OH229108   7.980   3.866   1.403  0.1159 -0.3672 -0.2670
 9722TIP3    H129109   7.966   3.956   1.374  0.4385 -0.4398 -0.6490
 9722TIP3    H229110   8.058   3.837   1.356 -0.4749 -1.1302 -0.7946
 9723TIP3   OH229111   7.269   5.893   4.123  0.5649  0.5284  0.3719
 9723TIP3    H129112   7.180   5.926   4.113  0.0424 -0.6836  0.8104
 9723TIP3    H229113   7.265   5.803   4.091  1.6370  0.4544  0.4010
 9724TIP3   OH229114   6.405   5.349   3.686 -0.5250 -0.3502 -0.4870
 9724TIP3    H129115   6.361   5.286   3.629 -0.0764 -1.5994  0.5002
 9724TIP3    H229116   6.446   5.411   3.626  0.9513 -2.2808 -1.6037
 9725TIP3   OH229117   4.891   0.849   4.388 -0.3523  0.0057 -0.0928
 9725TIP3    H129118   4.921   0.848   4.478 -0.0216 -0.9757 -0.1991
 9725TIP3    H229119   4.956   0.901   4.341  0.5120 -1.0382 -0.0909
 9726TIP3   OH229120   0.191   7.749   6.307  0.0858 -0.0460  0.4779
 9726TIP3    H129121   0.137   7.726   6.231 -0.7466 -0.9832  1.3391
 9726TIP3    H229122   0.279   7.762   6.270 -0.7246  1.8744 -1.0191
 9727TIP3   OH229123   6.875   2.844   4.392  0.2411  0.2732 -0.6574
 9727TIP3    H129124   6.801   2.850   4.331  0.1394  1.0200 -0.4705
 9727TIP3    H229125   6.855   2.769   4.448 -0.2790  0.3504 -0.7389
 9728TIP3   OH229126   2.933   1.619   5.312  0.1143  0.7007 -0.0566
 9728TIP3    H129127   2.937   1.573   5.228  1.8246  1.7587 -0.5954
 9728TIP3    H229128   2.903   1.707   5.291 -1.8615  0.3132  0.8116
 9729TIP3   OH229129   5.981   3.889   2.980  0.1170 -0.5633 -0.3751
 9729TIP3    H129130   6.052   3.880   2.916  0.6807  1.1707 -0.0351
 9729TIP3    H229131   5.990   3.812   3.037  0.4504 -1.4108 -1.5332
 9730TIP3   OH229132   4.734   5.322   6.320 -0.2393  0.2709 -0.1886
 9730TIP3    H129133   4.742   5.395   6.259 -1.7783 -0.1294 -0.9115
 9730TIP3    H229134   4.705   5.249   6.266  1.1909 -0.8682  0.5464
 9731TIP3   OH229135   6.822   5.704   2.475 -0.4288 -0.4708  0.3121
 9731TIP3    H129136   6.769   5.748   2.541 -1.1612 -0.3046 -0.3683
 9731TIP3    H229137   6.911   5.735   2.491 -0.5563 -0.5996  1.3439
 9732TIP3   OH229138   5.132   1.426   2.164  0.0862 -0.8080  0.3609
 9732TIP3    H129139   5.137   1.402   2.071  1.3866 -1.3071  0.5483
 9732TIP3    H229140   5.038   1.422   2.184 -0.0948 -2.0145 -0.5850
 9733TIP3   OH229141   2.536   0.908   1.826 -0.5374  0.4501 -0.5551
 9733TIP3    H129142   2.509   0.993   1.861  1.4963  0.7603  0.3839
 9733TIP3    H229143   2.511   0.911   1.734 -0.5489  2.0426 -0.5247
 9734TIP3   OH229144   5.960   7.556   1.629 -0.0831  0.5551 -0.0490
 9734TIP3    H129145   5.999   7.597   1.706 -2.6756  0.6958  1.2944
 9734TIP3    H229146   5.982   7.463   1.637 -0.3777  0.5624  0.8963
 9735TIP3   OH229147   4.642   3.824   2.797  0.1757  0.0308 -0.3804
 9735TIP3    H129148   4.627   3.731   2.785  0.1220  0.2130 -1.9792
 9735TIP3    H229149   4.690   3.831   2.880  0.7696 -1.4599 -0.5770
 9736TIP3   OH229150   6.171   7.408   3.896 -0.2278  0.3187 -0.3080
 9736TIP3    H129151   6.088   7.364   3.916 -0.9432  1.4290 -0.7199
 9736TIP3    H229152   6.176   7.479   3.960 -0.0398  0.7894 -0.8374
 9737TIP3   OH229153   6.646   5.734   1.223 -0.1712  0.0583  0.3169
 9737TIP3    H129154   6.586   5.804   1.250 -0.4072  0.7607 -1.8750
 9737TIP3    H229155   6.731   5.778   1.215 -0.6905  0.7135 -3.0718
 9738TIP3   OH229156   1.859   6.742   4.663  0.2049 -0.1951 -0.0824
 9738TIP3    H129157   1.801   6.817   4.671 -0.7302 -0.9375  0.3262
 9738TIP3    H229158   1.867   6.726   4.569 -1.7768 -1.2088 -0.1231
 9739TIP3   OH229159   3.768   5.529   0.066 -0.0841  0.2143 -0.6517
 9739TIP3    H129160   3.712   5.463   0.024 -0.9604 -0.6115  1.6368
 9739TIP3    H229161   3.707   5.598   0.093  0.5198  0.9506 -1.1348
 9740TIP3   OH229162   5.977  -0.003   3.345 -0.2528 -0.1368  0.1743
 9740TIP3    H129163   5.919   0.072   3.356  1.6527  1.3671  0.5226
 9740TIP3    H229164   5.938  -0.054   3.274 -0.8033  1.9958 -1.1274
 9741TIP3   OH229165   6.570   2.940   0.108  0.1079 -0.0426  0.4632
 9741TIP3    H129166   6.623   2.870   0.070  1.1772  0.1699  1.4959
 9741TIP3    H229167   6.603   2.949   0.197 -0.4881  1.3046  0.5704
 9742TIP3   OH229168   8.030   3.921   0.682  0.0163 -0.2564  0.4984
 9742TIP3    H129169   8.000   4.011   0.668  2.0080  0.1314 -1.7736
 9742TIP3    H229170   7.987   3.870   0.613  0.3985 -0.7118  0.5935
 9743TIP3   OH229171   0.961   2.125   0.665 -0.4525  0.6283 -0.4269
 9743TIP3    H129172   0.928   2.114   0.576 -0.7671 -0.3265 -0.1954
 9743TIP3    H229173   1.016   2.049   0.680 -1.7198 -0.0918  0.7775
 9744TIP3   OH229174   7.324   0.197   6.538 -0.3133  0.0036 -0.1416
 9744TIP3    H129175   7.229   0.189   6.537 -0.1711 -3.2477 -1.3771
 9744TIP3    H229176   7.354   0.132   6.475  2.7481  1.4056 -0.3145
 9745TIP3   OH229177   3.201   1.902   2.645  0.3105  0.3265 -0.2781
 9745TIP3    H129178   3.243   1.935   2.724 -0.4118 -0.7167  0.5889
 9745TIP3    H229179   3.272   1.890   2.582  1.4582 -1.7740  1.2594
 9746TIP3   OH229180   0.153   5.564   4.128  0.4103  0.4647 -0.1843
 9746TIP3    H129181   0.156   5.525   4.041 -2.4380  1.2617 -0.7503
 9746TIP3    H229182   0.203   5.646   4.119  2.3541 -0.6614 -0.2667
 9747TIP3   OH229183   8.149   5.467   6.164  0.4214 -0.0761 -0.2323
 9747TIP3    H129184   8.224   5.490   6.221 -0.6907  0.9303  0.8959
 9747TIP3    H229185   8.135   5.545   6.111  1.2840 -0.9213 -1.7670
 9748TIP3   OH229186   6.236   4.403   2.309 -0.3529  0.3399 -0.4111
 9748TIP3    H129187   6.233   4.396   2.213  2.6009  0.4581 -0.5923
 9748TIP3    H229188   6.193   4.487   2.328 -0.8203  0.4020 -1.6203
 9749TIP3   OH229189   7.430   1.738   2.539  0.1296 -0.4374  0.0407
 9749TIP3    H129190   7.523   1.756   2.525  0.2923 -0.5032  0.9686
 9749TIP3    H229191   7.422   1.643   2.537  0.6006 -0.6102  2.7894
 9750TIP3   OH229192   7.011   2.082   5.729  0.6913  0.1391 -0.1664
 9750TIP3    H129193   6.974   2.069   5.816  1.0560  0.6762  0.0775
 9750TIP3    H229194   6.935   2.082   5.671  0.2841  1.2521  0.3286
 9751TIP3   OH229195   6.627   1.662   0.553 -0.3414 -0.3641 -0.7933
 9751TIP3    H129196   6.706   1.713   0.534 -1.0831  1.1116 -0.0950
 9751TIP3    H229197   6.640   1.630   0.642 -1.0141  0.8880 -0.2233
 9752TIP3   OH229198   6.045   2.221   2.400 -0.0757 -0.0762 -0.3691
 9752TIP3    H129199   6.038   2.169   2.480  1.9838  0.4424  0.2208
 9752TIP3    H229200   5.998   2.302   2.421  0.0388 -0.1395  0.1568
 9753TIP3   OH229201   7.022   0.826   0.028  0.2911  0.5352 -0.1003
 9753TIP3    H129202   6.935   0.817   0.069 -0.7934 -0.3349 -2.4340
 9753TIP3    H229203   7.083   0.812   0.100 -1.5021 -1.4579  1.1709
 9754TIP3   OH229204   0.444   4.324   2.444  0.2357  0.8424  0.4355
 9754TIP3    H129205   0.408   4.398   2.493 -0.3656  0.6009  0.3672
 9754TIP3    H229206   0.419   4.247   2.494 -0.3828  0.5943 -0.2227
 9755TIP3   OH229207   1.284   3.556   2.075 -0.1827  0.7108  0.2173
 9755TIP3    H129208   1.277   3.578   1.982  2.7137  1.3787  0.0640
 9755TIP3    H229209   1.265   3.462   2.078  0.7270  0.4452 -1.2248
 9756TIP3   OH229210   6.931   0.609   4.403 -0.5857  0.1324  0.4924
 9756TIP3    H129211   6.938   0.569   4.489  0.5265 -0.3831  0.1840
 9756TIP3    H229212   6.957   0.701   4.417  0.2085 -0.1013  0.6116
 9757TIP3   OH229213   3.775   3.009   0.538  0.0757  0.2841 -0.4732
 9757TIP3    H129214   3.776   2.933   0.596 -0.6506 -1.3780 -2.4715
 9757TIP3    H229215   3.735   3.079   0.590  0.0815 -0.8964  1.2013
 9758TIP3   OH229216   0.422   6.634   5.144  0.6411 -0.0196  0.4577
 9758TIP3    H129217   0.433   6.729   5.143  2.0274 -0.1576 -0.5333
 9758TIP3    H229218   0.361   6.618   5.216 -0.7320  1.7146 -0.2288
 9759TIP3   OH229219   0.819   1.960   6.103 -0.4435 -0.5827  0.3427
 9759TIP3    H129220   0.769   1.986   6.025  0.0706 -0.2882  0.1085
 9759TIP3    H229221   0.752   1.949   6.171 -0.7310  1.0734  0.3797
 9760TIP3   OH229222   7.842   5.251   5.146 -0.1640 -0.7199  0.1949
 9760TIP3    H129223   7.895   5.251   5.066  1.0552  0.4181  0.9635
 9760TIP3    H229224   7.761   5.295   5.121  1.0808  1.6614  0.0766
 9761TIP3   OH229225   6.024   4.547   1.680 -0.1734  0.0323  0.0886
 9761TIP3    H129226   6.094   4.588   1.630 -0.5938  0.4573 -0.1588
 9761TIP3    H229227   5.955   4.613   1.683 -0.0805  0.0844  1.4057
 9762TIP3   OH229228   3.249   6.135   2.567  0.4280 -0.1747 -0.3761
 9762TIP3    H129229   3.283   6.095   2.487  0.2447 -0.5936 -0.2464
 9762TIP3    H229230   3.301   6.214   2.579  1.0070 -0.5423 -0.4636
 9763TIP3   OH229231   4.255   0.295   0.461  0.7536  0.0533  0.0746
 9763TIP3    H129232   4.312   0.219   0.452  1.4889  0.6082 -0.0773
 9763TIP3    H229233   4.216   0.306   0.374  1.8910  0.7948 -0.3697
 9764TIP3   OH229234   1.976   6.928   3.060 -0.5596  0.7250  0.1240
 9764TIP3    H129235   1.967   6.891   2.973 -1.5610  2.2058 -0.4485
 9764TIP3    H229236   2.039   6.872   3.104  0.5735  0.3975 -1.8028
 9765TIP3   OH229237   7.984   2.186   6.152  0.0226  0.5569 -0.3473
 9765TIP3    H129238   7.910   2.134   6.182  0.9957  0.3387  1.9565
 9765TIP3    H229239   7.955   2.276   6.159 -1.1528  0.4432 -2.8768
 9766TIP3   OH229240   3.478   1.049   3.392  0.5078  0.0879  0.1188
 9766TIP3    H129241   3.526   1.132   3.394  3.4225 -1.4359 -0.1977
 9766TIP3    H229242   3.511   1.004   3.313 -0.2721 -1.7385  0.7743
 9767TIP3   OH229243   2.704   4.113   4.998 -0.1971  0.5024  0.4897
 9767TIP3    H129244   2.774   4.159   5.044 -0.2866  1.4959 -0.3318
 9767TIP3    H229245   2.730   4.115   4.906 -0.7730 -0.0685  0.3054
 9768TIP3   OH229246   5.314  -0.003   1.542  0.4163  0.0733  0.6512
 9768TIP3    H129247   5.320   0.080   1.495 -0.9329  0.6450  1.4446
 9768TIP3    H229248   5.372   0.008   1.618 -1.7376  1.3634  2.2247
 9769TIP3   OH229249   1.257   1.442   2.293  0.5601  0.4839 -0.2273
 9769TIP3    H129250   1.198   1.408   2.360  1.2440  0.1313  0.2062
 9769TIP3    H229251   1.248   1.537   2.299  0.5151  0.4478  0.2681
 9770TIP3   OH229252   1.499   4.886   0.026  0.5288  0.1101 -0.0431
 9770TIP3    H129253   1.444   4.818   0.066 -0.3804  0.3023 -0.9233
 9770TIP3    H229254   1.573   4.894   0.085  1.4778 -2.7594 -0.6595
 9771TIP3   OH229255   7.233   7.459   4.607 -0.5849 -0.3314 -0.4711
 9771TIP3    H129256   7.186   7.532   4.647  3.2706  2.1178  0.1346
 9771TIP3    H229257   7.198   7.453   4.518 -0.3940  3.0516 -0.8977
 9772TIP3   OH229258   2.842   0.084   4.430  0.6799 -0.3508  0.1028
 9772TIP3    H129259   2.801  -0.001   4.442  1.6080 -0.8890 -0.3873
 9772TIP3    H229260   2.903   0.072   4.357  1.1682  0.5988  0.3254
 9773TIP3   OH229261   6.532   1.619   4.440 -0.1960 -0.3151 -0.2804
 9773TIP3    H129262   6.443   1.585   4.433  0.1607 -1.0854 -1.3180
 9773TIP3    H229263   6.537   1.656   4.528 -1.0963 -1.5597  0.3195
 9774TIP3   OH229264   3.749   4.777   3.339  0.1843  0.6040 -0.0734
 9774TIP3    H129265   3.761   4.753   3.247 -2.0212 -2.4055  0.2690
 9774TIP3    H229266   3.789   4.706   3.388 -0.7108  0.9602  1.2325
 9775TIP3   OH229267   8.216   5.036   2.392  0.0141 -0.0750  0.1192
 9775TIP3    H129268   8.282   5.013   2.326  0.1727 -0.1413  0.3007
 9775TIP3    H229269   8.133   5.038   2.343  0.2638  0.8655 -0.2825
 9776TIP3   OH229270   4.345   3.988   4.175 -0.4484  0.3368 -0.4086
 9776TIP3    H129271   4.378   3.899   4.165  2.1998  1.0296  1.2323
 9776TIP3    H229272   4.400   4.041   4.117 -0.9720  1.1414 -0.1927
 9777TIP3   OH229273   2.347   0.092   1.163  0.0876 -0.4680 -1.2189
 9777TIP3    H129274   2.366  -0.001   1.175 -1.0916 -1.0277 -3.1673
 9777TIP3    H229275   2.383   0.134   1.241 -0.1329 -2.6477  0.1549
 9778TIP3   OH229276   2.023   2.533   2.222 -0.1948 -0.7275  0.2984
 9778TIP3    H129277   2.083   2.501   2.155  0.4088 -0.6374  0.7899
 9778TIP3    H229278   1.937   2.530   2.180  0.2282 -0.2264 -0.6386
 9779TIP3   OH229279   3.038   5.703   5.724 -0.6898  0.7225 -0.5170
 9779TIP3    H129280   2.947   5.675   5.737 -0.3561  0.0304  0.4407
 9779TIP3    H229281   3.074   5.639   5.662 -1.0745  1.4838 -1.5468
 9780TIP3   OH229282   5.500   5.692   1.283  0.1269 -0.0577 -0.2721
 9780TIP3    H129283   5.505   5.601   1.252 -1.5084 -0.2263 -0.1363
 9780TIP3    H229284   5.452   5.686   1.365 -0.0351  0.9390 -0.2877
 9781TIP3   OH229285   2.477   5.397   3.838 -0.6140  0.2314 -0.0375
 9781TIP3    H129286   2.511   5.312   3.866 -0.0951  0.8808  1.4006
 9781TIP3    H229287   2.505   5.405   3.747  2.6639  0.4559  0.8634
 9782TIP3   OH229288   7.242   4.794   1.937  0.1076  0.6738 -0.3274
 9782TIP3    H129289   7.193   4.814   2.017 -2.6654  0.6397 -1.8847
 9782TIP3    H229290   7.232   4.699   1.927  1.5940  0.4674 -0.0548
 9783TIP3   OH229291   3.366   1.808   5.487  0.2072 -0.4278 -0.7315
 9783TIP3    H129292   3.325   1.790   5.572  0.3877 -2.7371 -1.0675
 9783TIP3    H229293   3.304   1.865   5.442  0.3741  1.3425  1.1161
 9784TIP3   OH229294   6.253   0.364   3.627 -0.5481 -0.1195 -0.3906
 9784TIP3    H129295   6.181   0.321   3.581 -0.1049 -0.1322 -1.0874
 9784TIP3    H229296   6.329   0.308   3.611  0.0870  1.0136 -1.4989
 9785TIP3   OH229297   5.890   2.040   6.327  0.1521 -0.1945 -0.0290
 9785TIP3    H129298   5.887   2.037   6.232 -1.5173  0.1677 -0.0282
 9785TIP3    H229299   5.882   2.133   6.349  2.3164 -0.0813  0.4702
 9786TIP3   OH229300   0.422   4.887   1.932  0.1317  0.0112 -0.1738
 9786TIP3    H129301   0.389   4.963   1.980 -0.5112  0.7264 -1.6817
 9786TIP3    H229302   0.492   4.921   1.877 -0.1811 -0.4715 -0.8911
 9787TIP3   OH229303   0.613   3.156   3.698  0.3393 -0.8810 -0.7571
 9787TIP3    H129304   0.706   3.157   3.674  0.2272 -2.0118 -1.2895
 9787TIP3    H229305   0.574   3.091   3.640 -0.5480 -1.3556  0.3263
 9788TIP3   OH229306   6.066   2.592   0.887  0.3116 -0.3680 -0.8378
 9788TIP3    H129307   5.975   2.609   0.912  0.1995  0.2651 -1.6106
 9788TIP3    H229308   6.059   2.534   0.811  0.6697 -3.1654  1.0961
 9789TIP3   OH229309   6.256   3.144   5.048 -0.3900 -0.3967  0.1333
 9789TIP3    H129310   6.293   3.073   5.100 -0.6077  0.1041  0.9907
 9789TIP3    H229311   6.288   3.224   5.090 -1.9170  0.0430  0.5221
 9790TIP3   OH229312   1.170   3.786   2.163 -0.0173  0.3022 -0.1523
 9790TIP3    H129313   1.256   3.825   2.176  0.4555 -0.4669 -0.9099
 9790TIP3    H229314   1.187   3.703   2.118 -1.1104 -0.1033  0.1332
 9791TIP3   OH229315   7.888   4.870   2.996 -0.1711 -0.2558  0.0929
 9791TIP3    H129316   7.938   4.814   3.056  0.7805 -0.4714 -0.8769
 9791TIP3    H229317   7.930   4.955   3.003 -0.8888  0.0621  0.6918
 9792TIP3   OH229318   6.013   1.692   0.535  0.3823 -0.1482 -0.3040
 9792TIP3    H129319   6.040   1.783   0.548  0.6053 -0.2010 -0.3943
 9792TIP3    H229320   6.090   1.640   0.557  0.6214 -0.2564 -1.3392
 9793TIP3   OH229321   0.557   2.384   4.006  0.4622 -0.1118 -0.3067
 9793TIP3    H129322   0.614   2.436   3.951  0.3134  0.6916  0.2836
 9793TIP3    H229323   0.532   2.309   3.951  0.2425  0.7099 -1.3565
 9794TIP3   OH229324   6.693   7.519   5.788  0.4128  0.6621 -0.0360
 9794TIP3    H129325   6.611   7.533   5.835 -0.3629 -1.2959 -0.7413
 9794TIP3    H229326   6.759   7.515   5.857 -0.2319  1.1219  0.6224
 9795TIP3   OH229327   4.509   2.179   6.522 -0.4773  0.2431 -0.0771
 9795TIP3    H129328   4.558   2.112   6.570 -1.3462  0.5002  1.2470
 9795TIP3    H229329   4.421   2.143   6.514 -1.0345  1.3169  0.9244
 9796TIP3   OH229330   4.809   1.771   6.339 -0.0759 -0.0527 -0.0403
 9796TIP3    H129331   4.865   1.798   6.266  1.0683 -3.0082 -0.4164
 9796TIP3    H229332   4.869   1.763   6.413  0.4248 -4.1309 -0.6553
 9797TIP3   OH229333   4.049   0.861   3.672 -0.2004  0.2450  0.5006
 9797TIP3    H129334   3.998   0.924   3.621 -0.7407 -0.6210 -0.0650
 9797TIP3    H229335   4.139   0.893   3.667 -0.6823  1.8448  1.5919
 9798TIP3   OH229336   5.751   4.622   2.143 -0.2768 -0.0640 -0.3011
 9798TIP3    H129337   5.751   4.581   2.230 -1.4835 -2.2622 -1.2479
 9798TIP3    H229338   5.808   4.565   2.091  2.2390  2.4543 -0.5083
 9799TIP3   OH229339   0.975   2.308   1.081  0.0458  0.1706  0.2725
 9799TIP3    H129340   0.903   2.345   1.132 -0.4478 -1.1896  0.6029
 9799TIP3    H229341   0.935   2.283   0.997  0.0612 -0.7748  0.5318
 9800TIP3   OH229342   0.520   6.878   6.474  0.0662  0.0384 -0.4285
 9800TIP3    H129343   0.523   6.935   6.398 -1.7864  1.1287  0.2443
 9800TIP3    H229344   0.489   6.934   6.545  1.6571 -0.9552  1.1488
 9801TIP3   OH229345   7.215   7.655   1.347  0.2711 -0.3211  0.2571
 9801TIP3    H129346   7.196   7.720   1.413  0.5379 -0.4775  0.4919
 9801TIP3    H229347   7.271   7.591   1.391 -2.3346 -2.3001  0.9048
 9802TIP3   OH229348   5.132   6.088   0.625 -0.4647  0.3423  0.4403
 9802TIP3    H129349   5.208   6.091   0.684 -0.5197  1.3926  0.4813
 9802TIP3    H229350   5.123   5.996   0.603 -0.3871 -0.0758  2.0101
 9803TIP3   OH229351   5.206   0.660   1.595 -0.3820 -0.0077  0.0680
 9803TIP3    H129352   5.247   0.645   1.680 -1.6550  0.4717  0.7960
 9803TIP3    H229353   5.115   0.679   1.615 -0.5598  0.8431 -1.3519
 9804TIP3   OH229354   6.341   1.065   2.442 -0.4793  0.4101 -0.5649
 9804TIP3    H129355   6.351   1.003   2.514 -0.2626 -1.2206 -1.9345
 9804TIP3    H229356   6.247   1.079   2.434 -0.5231  0.3139 -0.1951
 9805TIP3   OH229357   2.166   5.976   1.250 -0.3866 -0.3863 -0.2266
 9805TIP3    H129358   2.259   5.959   1.269 -0.2901  2.1201  2.2451
 9805TIP3    H229359   2.120   5.908   1.299  0.0858 -1.6636 -1.4843
 9806TIP3   OH229360   7.992   3.095   5.797 -0.6190  0.5915 -0.4917
 9806TIP3    H129361   7.999   3.067   5.706  0.6836  0.6371 -0.4168
 9806TIP3    H229362   7.998   3.190   5.794  1.2707  0.5195 -0.2369
 9807TIP3   OH229363   3.744   6.830   2.134 -0.2653  0.1394 -0.0241
 9807TIP3    H129364   3.719   6.758   2.191 -1.9374 -1.2720 -2.3388
 9807TIP3    H229365   3.839   6.823   2.126 -0.1172 -0.1994  1.7710
 9808TIP3   OH229366   2.139   7.617   2.429  0.1325  0.2076  0.3831
 9808TIP3    H129367   2.197   7.542   2.446  1.1120  0.8912  0.1168
 9808TIP3    H229368   2.195   7.693   2.437 -0.4389  0.8338 -1.1236
 9809TIP3   OH229369   4.941   1.305   1.803  0.8974 -0.4244 -0.1807
 9809TIP3    H129370   5.024   1.331   1.843 -0.3358  2.2883  0.8334
 9809TIP3    H229371   4.955   1.320   1.709  1.2399  1.2105  0.0884
 9810TIP3   OH229372   4.662   4.393   2.861 -0.5506  0.2008  0.4410
 9810TIP3    H129373   4.754   4.372   2.844 -0.1486  1.8333  0.3946
 9810TIP3    H229374   4.615   4.312   2.844  0.7357 -0.3083 -0.9215
 9811TIP3   OH229375   7.754   6.852   3.704 -0.8003  0.0854  0.5977
 9811TIP3    H129376   7.704   6.770   3.707 -1.6462  0.5284 -0.6610
 9811TIP3    H229377   7.844   6.823   3.691 -1.1912 -0.6572 -0.6900
 9812TIP3   OH229378   0.382   4.112   3.427  0.0812  0.2720 -0.0262
 9812TIP3    H129379   0.386   4.018   3.442 -2.6046  0.1489  0.5500
 9812TIP3    H229380   0.423   4.125   3.342  2.0380 -1.1398  0.6254
 9813TIP3   OH229381   5.206   6.690   2.300  0.2470 -0.0814 -0.2624
 9813TIP3    H129382   5.168   6.769   2.339  0.2555  0.0385 -0.4980
 9813TIP3    H229383   5.299   6.695   2.322 -0.0822 -1.1281  1.6236
 9814TIP3   OH229384   2.699   0.418   2.112 -0.2013  0.2826 -0.1319
 9814TIP3    H129385   2.723   0.366   2.036  0.7269 -0.3539  0.5609
 9814TIP3    H229386   2.683   0.506   2.078  0.5348  0.0880 -1.0180
 9815TIP3   OH229387   0.751   0.890   0.980  0.3702  0.2110  0.4457
 9815TIP3    H129388   0.703   0.809   0.995  0.2323 -0.0024 -1.0318
 9815TIP3    H229389   0.685   0.959   0.985  0.0369 -0.0066 -0.7419
 9816TIP3   OH229390   3.558   3.676   3.447 -0.2149 -0.3504  0.5569
 9816TIP3    H129391   3.497   3.730   3.498 -1.2450 -1.4065  0.4653
 9816TIP3    H229392   3.562   3.719   3.362 -0.4305  0.0020  0.7219
 9817TIP3   OH229393   1.216   7.102   4.020  0.0869  0.3672 -0.0887
 9817TIP3    H129394   1.141   7.047   4.044  0.0197  0.9657  1.1576
 9817TIP3    H229395   1.236   7.077   3.930 -1.1752 -0.2927 -0.2112
 9818TIP3   OH229396   8.167   1.968   0.781  0.0628 -0.0989  0.0263
 9818TIP3    H129397   8.262   1.959   0.773 -0.1247 -1.5754 -0.9821
 9818TIP3    H229398   8.149   1.960   0.875  0.9206 -0.0196  0.1981
 9819TIP3   OH229399   0.556   5.825   3.324 -0.0486 -0.3405  0.4568
 9819TIP3    H129400   0.582   5.777   3.402  0.1666  0.9262  1.2082
 9819TIP3    H229401   0.611   5.904   3.325 -0.4215 -0.0359 -0.6860
 9820TIP3   OH229402   7.264   6.865   2.048  0.5681 -0.0191  0.3032
 9820TIP3    H129403   7.244   6.771   2.043  0.8101 -0.0249 -0.7531
 9820TIP3    H229404   7.356   6.868   2.075  1.1904 -0.1628 -1.6237
 9821TIP3   OH229405   5.645   2.497   5.404  0.0539 -0.5019  0.1713
 9821TIP3    H129406   5.684   2.414   5.430  1.8200 -0.0940 -1.0482
 9821TIP3    H229407   5.559   2.497   5.448  0.7926 -2.0737  1.7535
 9822TIP3   OH229408   8.135   1.115   3.357 -0.1414  0.4455  0.0579
 9822TIP3    H129409   8.157   1.104   3.450  0.1596 -0.1488 -0.0759
 9822TIP3    H229410   8.190   1.051   3.312 -0.8825  0.1577 -0.4584
 9823TIP3   OH229411   4.749   5.371   5.862  0.1514 -0.3037  0.8132
 9823TIP3    H129412   4.763   5.438   5.929  0.7079 -0.2349  0.6350
 9823TIP3    H229413   4.745   5.420   5.780  2.3979 -0.6154  0.4606
 9824TIP3   OH229414   1.275   7.020   3.765  0.3408  0.1177  0.5552
 9824TIP3    H129415   1.212   6.949   3.760 -1.6338  1.8112  0.0870
 9824TIP3    H229416   1.352   6.987   3.719 -1.1951 -1.0220 -1.3538
 9825TIP3   OH229417   6.198   0.852   2.982  0.0484  0.8015  0.2950
 9825TIP3    H129418   6.227   0.846   2.891  0.1194  0.4718  0.3395
 9825TIP3    H229419   6.274   0.886   3.029 -0.1381  1.4354  0.1573
 9826TIP3   OH229420   7.580   2.204   4.721  0.1594  0.2901 -0.3780
 9826TIP3    H129421   7.489   2.176   4.721 -0.1723  1.2735  1.0354
 9826TIP3    H229422   7.614   2.175   4.805  1.3834 -0.7031 -1.1787
 9827TIP3   OH229423   1.229   4.090   1.868  0.0186  0.5552 -0.2416
 9827TIP3    H129424   1.233   4.185   1.877 -2.1952  0.6888 -0.1668
 9827TIP3    H229425   1.153   4.063   1.921  0.6451 -1.2661 -0.1885
 9828TIP3   OH229426   8.217   4.379   0.745  0.1508  0.2670 -0.5402
 9828TIP3    H129427   8.288   4.430   0.783 -0.2142  0.6116 -0.3183
 9828TIP3    H229428   8.250   4.289   0.744  0.1699  0.2449  0.6091
 9829TIP3   OH229429   6.682   5.434   6.341  0.0479  0.0514  0.3354
 9829TIP3    H129430   6.777   5.440   6.339 -0.0352  1.3712 -1.2972
 9829TIP3    H229431   6.654   5.519   6.376 -0.5421 -0.0913  0.2184
 9830TIP3   OH229432   2.116   5.307   6.023  0.6324  0.7325 -0.1402
 9830TIP3    H129433   2.146   5.370   6.087  1.5429 -0.1843  0.3728
 9830TIP3    H229434   2.063   5.245   6.073  0.8573  0.3435 -0.3772
 9831TIP3   OH229435   5.252   4.680   0.140  0.8349 -0.1029  0.1150
 9831TIP3    H129436   5.329   4.628   0.162  0.7268 -0.2937  0.0512
 9831TIP3    H229437   5.280   4.771   0.147  1.0220 -0.1720  0.2463
 9832TIP3   OH229438   0.972   3.094   2.392  0.0837 -0.1025 -0.1861
 9832TIP3    H129439   0.943   3.088   2.483  1.1220 -1.9584  0.0768
 9832TIP3    H229440   0.902   3.055   2.341 -0.6118  1.1673 -0.2429
 9833TIP3   OH229441   1.257   3.151   5.561 -0.1962  0.3707 -0.5466
 9833TIP3    H129442   1.208   3.088   5.508 -0.4195 -0.4365  0.5765
 9833TIP3    H229443   1.190   3.210   5.595  0.0353  1.3512 -1.7493
 9834TIP3   OH229444   2.440   1.173   2.926  0.4946  0.1075 -0.2553
 9834TIP3    H129445   2.345   1.182   2.938  0.1311 -1.7960 -1.2244
 9834TIP3    H229446   2.462   1.092   2.972  1.8453  0.9857  0.7168
 9835TIP3   OH229447   4.368   0.031   4.887  0.0227  0.0139  0.3987
 9835TIP3    H129448   4.441   0.091   4.869  1.9077 -2.8274 -2.5586
 9835TIP3    H229449   4.406  -0.037   4.943 -0.5722 -1.0291 -0.4307
 9836TIP3   OH229450   2.348   2.122   4.030  0.5107  0.3833  0.2400
 9836TIP3    H129451   2.387   2.040   3.999  1.4595  0.6673  0.6669
 9836TIP3    H229452   2.263   2.125   3.986  0.3972 -0.8948  0.3159
 9837TIP3   OH229453   5.399   2.066   1.126 -0.2276  0.0874 -0.2454
 9837TIP3    H129454   5.416   2.151   1.167  0.4807 -0.1535 -0.0326
 9837TIP3    H229455   5.477   2.048   1.074  0.1801 -0.9953  0.6817
 9838TIP3   OH229456   0.700   4.149   1.866 -0.4536  0.0494 -0.1563
 9838TIP3    H129457   0.779   4.136   1.813 -0.6482  2.8794 -1.3110
 9838TIP3    H229458   0.628   4.129   1.806 -0.6608 -0.7167  0.3323
 9839TIP3   OH229459   5.573   4.797   2.560  0.3472  0.5238  0.8007
 9839TIP3    H129460   5.596   4.868   2.500 -1.3630  0.4625  0.0277
 9839TIP3    H229461   5.496   4.830   2.607 -0.5174 -0.8195  0.3743
 9840TIP3   OH229462   2.435   5.416   2.670  0.3034  0.2648  0.2144
 9840TIP3    H129463   2.430   5.509   2.649  1.3423  0.4493  0.7010
 9840TIP3    H229464   2.390   5.407   2.754 -1.4927 -0.0218 -0.7287
 9841TIP3   OH229465   6.637   1.954   1.152  0.5851  0.0455  0.1667
 9841TIP3    H129466   6.636   2.003   1.234  1.5050  0.3150  0.0287
 9841TIP3    H229467   6.722   1.911   1.151 -0.4958 -2.2119  0.6436
 9842TIP3   OH229468   1.985   2.521   5.261 -0.0008  0.4549 -0.7462
 9842TIP3    H129469   2.060   2.574   5.233  0.5090 -0.4428 -1.1319
 9842TIP3    H229470   2.015   2.477   5.341 -0.5081  0.9466 -0.2866
 9843TIP3   OH229471   1.796   7.560   1.778  0.0828 -0.2503 -0.2302
 9843TIP3    H129472   1.811   7.530   1.867 -0.3244 -0.9647 -0.3911
 9843TIP3    H229473   1.861   7.513   1.725 -1.1844 -1.6471 -0.6177
 9844TIP3   OH229474   3.051   6.981   1.250  0.1251  0.0029 -0.1987
 9844TIP3    H129475   3.020   7.071   1.259 -1.1244 -0.5702  1.9018
 9844TIP3    H229476   3.137   6.982   1.292  0.2198  0.2672 -0.3960
 9845TIP3   OH229477   5.483   4.500   0.529  0.4874 -0.6315 -0.5172
 9845TIP3    H129478   5.499   4.549   0.449  0.1240  1.0031  0.3698
 9845TIP3    H229479   5.432   4.560   0.584 -1.0511 -2.4536  0.1500
 9846TIP3   OH229480   4.247   1.131   1.814 -0.5942  0.0506  0.4733
 9846TIP3    H129481   4.234   1.197   1.882  1.1188 -0.4316  1.3462
 9846TIP3    H229482   4.180   1.066   1.831  0.0718 -0.2910  2.0557
 9847TIP3   OH229483   0.847   6.637   3.103  0.3093  0.2466  0.3063
 9847TIP3    H129484   0.920   6.691   3.074 -0.9215  2.1418  0.5864
 9847TIP3    H229485   0.884   6.579   3.169  1.6516  0.7844  0.0426
 9848TIP3   OH229486   1.302   6.421   1.345  0.0594 -0.3761  0.2012
 9848TIP3    H129487   1.249   6.351   1.382 -0.3829  0.0464  0.3840
 9848TIP3    H229488   1.264   6.438   1.259  1.1996 -1.4793 -0.5550
 9849TIP3   OH229489   7.500   4.059   5.361  0.2525 -0.4836 -0.2774
 9849TIP3    H129490   7.553   4.023   5.433  0.2358 -0.0403 -0.0444
 9849TIP3    H229491   7.418   4.086   5.402  0.7963  1.1149 -0.1871
 9850TIP3   OH229492   3.847   4.475   0.631 -0.1308 -0.4805 -0.6049
 9850TIP3    H129493   3.788   4.550   0.645  1.6085  0.7408  0.6493
 9850TIP3    H229494   3.899   4.500   0.555  2.1272  0.8474  1.2196
 9851TIP3   OH229495   1.434   7.510   4.353 -0.3931  0.4332  0.5421
 9851TIP3    H129496   1.351   7.503   4.400  0.4511 -2.1270  1.8454
 9851TIP3    H229497   1.415   7.476   4.266 -1.0260  1.3340  0.3069
 9852TIP3   OH229498   2.144   1.025   5.311  0.2007 -0.1350 -0.5148
 9852TIP3    H129499   2.208   0.965   5.349 -1.2400 -1.2166  0.2924
 9852TIP3    H229500   2.066   1.015   5.365 -0.2202  2.2021 -0.5969
 9853TIP3   OH229501   6.592   5.330   2.597 -0.0546  0.2826 -0.7726
 9853TIP3    H129502   6.650   5.254   2.584  1.2459  1.0474  0.3574
 9853TIP3    H229503   6.620   5.368   2.680 -2.0664  0.8203 -0.2807
 9854TIP3   OH229504   6.499   4.709   0.216  0.1159 -0.3735  0.1795
 9854TIP3    H129505   6.581   4.692   0.169  0.3817  0.9803  0.1089
 9854TIP3    H229506   6.432   4.663   0.165  0.4910  0.4888 -1.1592
 9855TIP3   OH229507   7.148   3.695   1.239 -0.6262 -0.3592 -0.7875
 9855TIP3    H129508   7.166   3.631   1.170 -0.5191  0.4438 -1.5175
 9855TIP3    H229509   7.053   3.707   1.236 -0.7878 -1.3453  0.1343
 9856TIP3   OH229510   7.596   4.323   3.248 -0.1847 -0.2212  0.2935
 9856TIP3    H129511   7.605   4.262   3.175 -0.4523  0.8482 -0.6600
 9856TIP3    H229512   7.663   4.296   3.310  0.6152 -0.6415 -0.7215
 9857TIP3   OH229513   1.996   4.734   1.021  0.1392  0.2014 -0.5707
 9857TIP3    H129514   2.023   4.745   1.112  0.1207  2.7816 -0.8185
 9857TIP3    H229515   1.950   4.650   1.020  0.0087  0.1839  1.8153
 9858TIP3   OH229516   2.341   4.194   0.658  0.0109 -0.0144 -0.1868
 9858TIP3    H129517   2.257   4.187   0.703  0.2417  0.3470  0.3064
 9858TIP3    H229518   2.318   4.201   0.566 -0.5483  0.8886  0.0015
 9859TIP3   OH229519   1.122   3.516   5.622  0.4714 -0.3657  0.0012
 9859TIP3    H129520   1.091   3.430   5.650  0.2724  0.1780  1.5185
 9859TIP3    H229521   1.042   3.566   5.604  0.5891 -0.6115 -1.3550
 9860TIP3   OH229522   6.838   1.391   6.567  0.2612 -0.5592 -0.3241
 9860TIP3    H129523   6.843   1.341   6.648  0.8426  0.6121  0.3837
 9860TIP3    H229524   6.745   1.400   6.549  0.0789 -3.7651 -1.6936
 9861TIP3   OH229525   5.708   6.234   4.484 -0.0828 -0.3863 -0.2862
 9861TIP3    H129526   5.772   6.182   4.533  0.0631 -0.0700 -0.1385
 9861TIP3    H229527   5.759   6.305   4.447 -0.3550 -0.1204 -0.1509
 9862TIP3   OH229528   1.429   7.548   3.766 -0.0480 -0.2313  0.1513
 9862TIP3    H129529   1.362   7.492   3.805 -0.7172  0.6380  0.2986
 9862TIP3    H229530   1.446   7.509   3.681 -1.8722  0.3258 -0.5413
 9863TIP3   OH229531   7.670   0.695   3.902 -0.1123  0.5385  0.2047
 9863TIP3    H129532   7.651   0.698   3.809 -1.8653  0.9374  0.5223
 9863TIP3    H229533   7.688   0.785   3.927 -1.4066  0.7321  0.5340
 9864TIP3   OH229534   1.567   1.396   1.166 -0.0422 -0.0457  0.0560
 9864TIP3    H129535   1.583   1.489   1.183 -0.1781  0.2564 -1.3626
 9864TIP3    H229536   1.620   1.350   1.232 -1.3302  1.0167  1.9180
 9865TIP3   OH229537   4.426   0.781   1.312 -0.3131  0.0892  0.2106
 9865TIP3    H129538   4.358   0.795   1.247 -0.8014  0.2915  0.7555
 9865TIP3    H229539   4.379   0.756   1.391  0.2985 -0.5488  0.3793
 9866TIP3   OH229540   6.537   6.127   5.934 -0.5299 -0.3004 -0.1473
 9866TIP3    H129541   6.506   6.090   5.852 -0.9654  0.7732 -0.4785
 9866TIP3    H229542   6.553   6.219   5.914 -0.1153 -0.1529  0.8310
 9867TIP3   OH229543   6.392   6.731   4.278 -0.7490 -0.1158  0.2992
 9867TIP3    H129544   6.402   6.656   4.219  0.2833 -0.4374  0.8652
 9867TIP3    H229545   6.394   6.694   4.366  0.4865  0.6277  0.6087
 9868TIP3   OH229546   4.457   3.723   3.575 -0.0453 -0.7694  0.0654
 9868TIP3    H129547   4.475   3.644   3.523 -0.4586  0.0531 -1.3940
 9868TIP3    H229548   4.383   3.764   3.530  1.6491  1.6820 -0.6315
 9869TIP3   OH229549   2.757   5.248   3.721 -0.8774  0.7865  0.3043
 9869TIP3    H129550   2.701   5.302   3.665 -1.8981  1.2900  1.7282
 9869TIP3    H229551   2.729   5.158   3.704 -0.5801  0.8582 -0.6021
 9870TIP3   OH229552   5.583   2.336   6.211  0.1602 -0.1702 -0.0325
 9870TIP3    H129553   5.571   2.430   6.202  1.2232 -0.0477 -0.3126
 9870TIP3    H229554   5.517   2.309   6.275  0.5018  0.9157  0.7955
 9871TIP3   OH229555   4.336   6.517   5.664 -0.5370  0.1544  0.4253
 9871TIP3    H129556   4.369   6.472   5.586  1.2157  0.5575  0.8976
 9871TIP3    H229557   4.242   6.525   5.648 -0.7891 -2.7590 -0.1415
 9872TIP3   OH229558   3.483   4.885   5.981  0.0828  0.0413 -0.7802
 9872TIP3    H129559   3.508   4.818   6.045 -3.5647  0.7368  1.7266
 9872TIP3    H229560   3.534   4.962   6.006  0.2096 -0.2754 -0.0365
 9873TIP3   OH229561   0.917   0.071   1.059  0.0378 -0.3678 -0.2612
 9873TIP3    H129562   0.862   0.014   1.005  0.0535 -1.1660  0.5452
 9873TIP3    H229563   0.857   0.108   1.123  0.2368 -0.3650 -0.0763
 9874TIP3   OH229564   0.187   2.886  -0.007 -0.2242  0.6721 -0.2644
 9874TIP3    H129565   0.282   2.882  -0.019 -0.0771  1.9487  0.2405
 9874TIP3    H229566   0.172   2.843   0.077 -0.2598 -0.6669 -0.9331
 9875TIP3   OH229567   6.968   4.271   2.797  0.7350 -0.1382 -0.6013
 9875TIP3    H129568   7.064   4.270   2.788  0.8213  1.0889  0.0150
 9875TIP3    H229569   6.945   4.179   2.810  2.2459 -0.1757  3.0332
 9876TIP3   OH229570   1.723   3.407   3.669 -0.1318  0.2068 -0.1860
 9876TIP3    H129571   1.788   3.347   3.707 -0.9676  0.1108  1.1725
 9876TIP3    H229572   1.775   3.480   3.636  0.8041 -0.6901 -0.7539
 9877TIP3   OH229573   6.544   4.872   4.862  0.1089  0.4124  0.2594
 9877TIP3    H129574   6.514   4.800   4.918 -0.0090  0.3364  0.0989
 9877TIP3    H229575   6.550   4.834   4.775  1.6552  0.1542  0.4431
 9878TIP3   OH229576   2.864   0.418   6.483 -0.5210 -0.2672  0.5931
 9878TIP3    H129577   2.873   0.326   6.508 -0.8727 -0.0217  1.6603
 9878TIP3    H229578   2.894   0.421   6.392 -0.6600 -1.4604  0.4963
 9879TIP3   OH229579   6.331   2.468   6.506 -0.0316 -0.2102 -0.4708
 9879TIP3    H129580   6.389   2.397   6.532  1.4275  0.4095 -1.8952
 9879TIP3    H229581   6.307   2.512   6.588  0.1753 -1.4591  0.2806
 9880TIP3   OH229582   2.623   3.512   6.540 -0.4918 -0.7795  0.2406
 9880TIP3    H129583   2.535   3.474   6.543 -2.1259  2.1901 -2.7064
 9880TIP3    H229584   2.653   3.496   6.450  1.4078 -0.5046  0.7760
 9881TIP3   OH229585   6.365   6.385   4.758  0.0013  0.0966  0.3173
 9881TIP3    H129586   6.434   6.382   4.824 -1.4016  0.7791  1.8980
 9881TIP3    H229587   6.284   6.390   4.808 -1.1157  1.0766 -1.4620
 9882TIP3   OH229588   6.470   5.546   3.506  0.0322 -0.5718 -0.3409
 9882TIP3    H129589   6.556   5.585   3.523 -0.5291  1.2467 -1.3939
 9882TIP3    H229590   6.487   5.478   3.441  0.8848 -1.4010  0.7174
 9883TIP3   OH229591   6.972   2.592   2.046  0.2996  0.2263  0.1541
 9883TIP3    H129592   7.035   2.552   2.105  0.9370  4.2816  2.6235
 9883TIP3    H229593   6.888   2.586   2.093 -0.0566 -0.2143 -0.5253
 9884TIP3   OH229594   1.004   3.849   3.525 -0.5788  0.3495  0.2020
 9884TIP3    H129595   1.083   3.820   3.479 -0.9356 -0.7691  0.2662
 9884TIP3    H229596   1.027   3.934   3.562  0.4622  0.2128 -0.1165
 9885TIP3   OH229597   3.117   3.627   5.530 -0.1705  0.0496 -0.5886
 9885TIP3    H129598   3.171   3.696   5.567 -1.3055 -0.1949  1.7188
 9885TIP3    H229599   3.079   3.666   5.451  0.4344  1.5095 -0.1901
 9886TIP3   OH229600   2.127   0.786   5.019 -0.2303  0.2145  0.3456
 9886TIP3    H129601   2.033   0.773   5.009 -0.3475  1.0674  0.1795
 9886TIP3    H229602   2.152   0.837   4.941  0.4861 -0.5250  0.0715
 9887TIP3   OH229603   1.477   2.539   0.039  0.2821  0.0524  0.4798
 9887TIP3    H129604   1.392   2.583   0.046 -0.0741 -0.7836  1.7014
 9887TIP3    H229605   1.516   2.547   0.127  0.6433 -1.1798  0.4488
 9888TIP3   OH229606   0.395   5.811   2.610 -0.4589  0.1144  0.2917
 9888TIP3    H129607   0.454   5.885   2.603 -0.2071  0.0186  1.1978
 9888TIP3    H229608   0.314   5.840   2.568  0.3106  0.1323 -1.2294
 9889TIP3   OH229609   7.100   6.714   1.255 -0.0991 -0.0627 -0.4659
 9889TIP3    H129610   7.137   6.725   1.167 -1.7408 -1.6592 -1.4248
 9889TIP3    H229611   7.099   6.803   1.292  1.2523  0.5395 -1.7757
 9890TIP3   OH229612   1.599   7.698   1.158 -0.2027  0.4699  0.1174
 9890TIP3    H129613   1.619   7.639   1.086  0.1008 -0.3400  0.8562
 9890TIP3    H229614   1.674   7.691   1.216 -1.3671 -0.5205  1.5755
 9891TIP3   OH229615   5.759   2.836   1.362  0.0435 -0.4196  0.0057
 9891TIP3    H129616   5.691   2.897   1.390  0.7662  0.4943 -0.1575
 9891TIP3    H229617   5.831   2.892   1.332  1.1232 -1.3425  0.7630
 9892TIP3   OH229618   2.143   5.618   2.855 -0.2209  0.6247  0.0006
 9892TIP3    H129619   2.066   5.563   2.870 -0.2171  0.7684  0.5995
 9892TIP3    H229620   2.179   5.633   2.943  1.1252 -0.3218 -0.3713
 9893TIP3   OH229621   2.293   1.732   6.239  0.1277 -0.0022 -0.4378
 9893TIP3    H129622   2.248   1.794   6.296  0.1154  0.1179 -0.5796
 9893TIP3    H229623   2.376   1.774   6.218  0.0809  0.0047 -0.6067
 9894TIP3   OH229624   6.988   4.191   5.467 -0.4198 -0.5687  0.3893
 9894TIP3    H129625   7.016   4.103   5.494 -0.4147  0.1348  2.8926
 9894TIP3    H229626   6.908   4.175   5.416 -0.5693 -2.0459  1.0139
 9895TIP3   OH229627   6.895   0.470   1.501  0.5248 -0.0966 -0.0231
 9895TIP3    H129628   6.958   0.478   1.430 -0.7397 -0.7140 -1.2599
 9895TIP3    H229629   6.815   0.437   1.459 -1.4442  2.9141  1.0282
 9896TIP3   OH229630   3.528   4.684   3.705  0.3770 -0.3160  0.4374
 9896TIP3    H129631   3.504   4.737   3.781 -0.2769  0.7351 -0.4778
 9896TIP3    H229632   3.452   4.688   3.647  1.1566 -0.4199 -0.6343
 9897TIP3   OH229633   6.423   0.437   1.267 -0.4655 -0.5747 -0.2884
 9897TIP3    H129634   6.372   0.517   1.252  0.4587  0.1197  0.1564
 9897TIP3    H229635   6.484   0.461   1.337  1.5805 -0.8673 -1.8745
 9898TIP3   OH229636   3.491   5.644   0.436  0.5407 -0.2027  0.0780
 9898TIP3    H129637   3.509   5.730   0.397 -0.6542 -0.2361 -0.5732
 9898TIP3    H229638   3.418   5.609   0.386  0.5086 -1.2784  0.8381
 9899TIP3   OH229639   5.334   7.572   0.378 -0.2876  0.1054  0.2658
 9899TIP3    H129640   5.286   7.548   0.457  0.0386 -2.2300 -0.1760
 9899TIP3    H229641   5.281   7.538   0.306  0.0660  1.0444 -0.4656
 9900TIP3   OH229642   7.918   0.810   4.059 -0.1823 -0.0549  0.7914
 9900TIP3    H129643   7.902   0.842   3.970 -0.2683 -0.5105  0.6392
 9900TIP3    H229644   7.880   0.877   4.116  0.0615  0.3474  0.4936
 9901TIP3   OH229645   4.041   3.956   4.750 -0.3001 -0.3170 -0.0712
 9901TIP3    H129646   3.953   3.994   4.744  0.3455  2.3140  3.4719
 9901TIP3    H229647   4.057   3.950   4.844  3.0337 -1.5828 -0.5992
 9902TIP3   OH229648   0.244   7.623   2.952  0.3250 -0.3032  0.2638
 9902TIP3    H129649   0.213   7.645   3.040  0.7621 -0.9563  0.5858
 9902TIP3    H229650   0.181   7.559   2.919  0.2093 -0.1223  0.1305
 9903TIP3   OH229651   7.120   7.389   4.380  0.4790  0.2731 -0.4229
 9903TIP3    H129652   7.109   7.378   4.285  0.0605  0.8149 -0.4468
 9903TIP3    H229653   7.031   7.389   4.414  0.6152  0.4076 -0.0673
 9904TIP3   OH229654   1.252   7.135   4.493 -0.0438  0.5536 -0.1640
 9904TIP3    H129655   1.237   7.129   4.399  0.3034 -0.2636 -0.1737
 9904TIP3    H229656   1.175   7.181   4.527  0.8897  2.9654 -1.1172
 9905TIP3   OH229657   1.589   7.269   4.037  0.2714  0.1182  0.1078
 9905TIP3    H129658   1.611   7.351   3.994 -0.2380 -0.8303 -2.0828
 9905TIP3    H229659   1.497   7.278   4.063  0.3707  0.4211  0.3623
 9906TIP3   OH229660   4.894   4.351   1.407 -0.1309 -0.3762 -0.2671
 9906TIP3    H129661   4.873   4.431   1.358  0.8589 -0.2578 -0.5248
 9906TIP3    H229662   4.864   4.280   1.350  1.3712 -0.2524 -1.2633
 9907TIP3   OH229663   5.531   1.185   3.603 -0.3468 -0.3011 -0.2265
 9907TIP3    H129664   5.468   1.216   3.668  0.7105 -1.6522  1.5492
 9907TIP3    H229665   5.585   1.121   3.650  1.9914  0.3688 -1.7908
 9908TIP3   OH229666   7.500   2.270   4.317 -0.2594 -0.2401  0.1467
 9908TIP3    H129667   7.532   2.185   4.288  1.7710  0.2445  0.7901
 9908TIP3    H229668   7.574   2.309   4.364 -2.1965  0.4933  2.8422
 9909TIP3   OH229669   4.578   2.912   1.581  0.0124  0.1908  0.2000
 9909TIP3    H129670   4.587   2.943   1.492 -1.8394  0.5570  0.1020
 9909TIP3    H229671   4.483   2.904   1.595  0.2844 -1.5168  1.5562
 9910TIP3   OH229672   2.753   4.617   6.405 -0.2660 -0.0445 -0.7962
 9910TIP3    H129673   2.754   4.539   6.460  1.8404  0.0970 -0.5572
 9910TIP3    H229674   2.757   4.583   6.315 -2.0149 -0.2349 -0.8277
 9911TIP3   OH229675   7.818   7.487   4.076  0.3561 -0.2526 -0.1906
 9911TIP3    H129676   7.807   7.581   4.093 -0.5786 -0.5837  1.2029
 9911TIP3    H229677   7.776   7.473   3.992  3.0341  1.0427 -1.9049
 9912TIP3   OH229678   5.495   1.299   3.290 -0.4671  0.8869  0.8754
 9912TIP3    H129679   5.522   1.380   3.334 -0.9509  1.1957  0.6161
 9912TIP3    H229680   5.507   1.316   3.197  0.7739  0.1502  0.8810
 9913TIP3   OH229681   6.948   0.172   1.235  0.3489  0.5606  0.6043
 9913TIP3    H129682   6.900   0.253   1.248  1.0447  1.0773  0.0016
 9913TIP3    H229683   7.021   0.195   1.177 -1.1926 -1.0936 -2.2360
 9914TIP3   OH229684   3.608   5.546   3.554 -0.0537 -0.1052 -0.4496
 9914TIP3    H129685   3.554   5.516   3.480 -1.6622 -0.7550  0.9385
 9914TIP3    H229686   3.547   5.559   3.626  1.2038  2.2988  0.3197
 9915TIP3   OH229687   3.041   5.374   5.216 -0.8245  0.1362  0.4200
 9915TIP3    H129688   3.035   5.453   5.271 -1.1793 -0.9135  1.9736
 9915TIP3    H229689   2.958   5.372   5.168  0.0207  1.7583 -1.1856
 9916TIP3   OH229690   7.775   3.783   2.480 -0.8961 -0.4497  0.1708
 9916TIP3    H129691   7.696   3.729   2.473 -0.6543 -0.7735 -0.1000
 9916TIP3    H229692   7.743   3.868   2.511 -1.3201 -0.6517  0.3029
 9917TIP3   OH229693   0.773   5.814   1.925 -0.3414 -0.5745  0.5928
 9917TIP3    H129694   0.779   5.906   1.896 -2.3775 -0.7534 -0.6302
 9917TIP3    H229695   0.713   5.817   1.999  0.5195 -0.8098  1.3167
 9918TIP3   OH229696   4.110   2.616   6.410  0.1002  0.5524  0.4995
 9918TIP3    H129697   4.057   2.562   6.468  1.6159 -1.0460  0.4793
 9918TIP3    H229698   4.087   2.587   6.322  0.1920  0.6524  0.4426
 9919TIP3   OH229699   5.832   5.981   4.287  0.0966  1.1566  0.4991
 9919TIP3    H129700   5.812   5.891   4.313  0.9191  0.7293 -0.2788
 9919TIP3    H229701   5.866   6.022   4.366 -1.0054  1.0263  1.0632
 9920TIP3   OH229702   3.008   2.040   6.543 -0.2717 -0.1322  0.0957
 9920TIP3    H129703   3.054   2.005   6.619 -1.0500  0.0465  0.6527
 9920TIP3    H229704   2.915   2.027   6.562 -0.4760 -2.4191 -1.9055
 9921TIP3   OH229705   0.339   1.356   5.090 -0.1452 -0.3972 -0.1495
 9921TIP3    H129706   0.311   1.425   5.151  0.2882 -0.4741  0.1380
 9921TIP3    H229707   0.274   1.359   5.020  0.0037  0.4690 -0.2622
 9922TIP3   OH229708   0.733   6.912   6.148 -0.2647  0.2887 -0.4079
 9922TIP3    H129709   0.801   6.852   6.178 -0.1878  1.5909  2.2809
 9922TIP3    H229710   0.771   6.999   6.157 -1.2293  0.9206 -1.8961
 9923TIP3   OH229711   6.838   4.222   3.876 -0.1614  0.2414 -0.4004
 9923TIP3    H129712   6.769   4.272   3.834  0.3626  0.6866 -0.7520
 9923TIP3    H229713   6.831   4.245   3.969 -0.3857  0.3995 -0.4570
 9924TIP3   OH229714   4.188   5.528   5.646 -0.1808  0.3834  0.4242
 9924TIP3    H129715   4.253   5.518   5.578 -1.2620 -3.6292 -0.2622
 9924TIP3    H229716   4.228   5.491   5.725  0.3752  3.2931  1.6599
 9925TIP3   OH229717   3.902   7.418   5.595 -0.2618 -0.6926 -0.5482
 9925TIP3    H129718   3.874   7.363   5.668 -3.4437 -0.6615 -1.6054
 9925TIP3    H229719   3.933   7.356   5.529  1.0189 -0.8219  0.1412
 9926TIP3   OH229720   3.118   2.722   5.364 -0.1566 -0.2288  0.4380
 9926TIP3    H129721   3.046   2.670   5.399  0.1511 -0.4325  0.7816
 9926TIP3    H229722   3.180   2.658   5.329 -0.3811 -0.0287 -0.3212
 9927TIP3   OH229723   3.597   6.716   0.808 -0.0362  0.1787 -0.0799
 9927TIP3    H129724   3.663   6.669   0.860  1.2552  1.7384 -0.2471
 9927TIP3    H229725   3.602   6.674   0.722 -0.7963 -1.1073  0.4640
 9928TIP3   OH229726   1.641   1.591   0.888 -0.1355  0.4653 -0.4867
 9928TIP3    H129727   1.614   1.610   0.978  1.8014 -2.0641  0.7883
 9928TIP3    H229728   1.614   1.500   0.874  2.2474 -0.1989 -1.2612
 9929TIP3   OH229729   1.724   1.702   1.174  0.4847 -0.1320 -0.5075
 9929TIP3    H129730   1.722   1.663   1.261  1.2374  0.3355 -0.2657
 9929TIP3    H229731   1.690   1.791   1.187 -0.9461 -0.5813 -0.9977
 9930TIP3   OH229732   2.237   2.762   2.949  0.0065 -0.2548  0.0545
 9930TIP3    H129733   2.289   2.697   2.902  0.1779 -1.9888  2.4146
 9930TIP3    H229734   2.224   2.832   2.886  0.6204 -2.1393 -2.3534
 9931TIP3   OH229735   4.200   6.715   1.663  0.1808  0.4017 -0.3847
 9931TIP3    H129736   4.224   6.712   1.755 -1.5888  0.1714  0.1071
 9931TIP3    H229737   4.166   6.803   1.649 -1.9973 -0.3298 -0.1017
 9932TIP3   OH229738   2.442   4.810   4.285  0.0175  0.5105 -0.1037
 9932TIP3    H129739   2.503   4.813   4.359  0.0751  0.2394 -0.1377
 9932TIP3    H229740   2.452   4.721   4.250  0.1721  0.7184 -0.5903
 9933TIP3   OH229741   3.183   0.561   4.809  0.3767 -0.4099  0.5862
 9933TIP3    H129742   3.123   0.635   4.810  0.6213 -0.1949  0.0505
 9933TIP3    H229743   3.183   0.528   4.899  0.8237  0.6980  1.0109
 9934TIP3   OH229744   5.673   1.376   0.141 -0.3336 -0.0272  0.0960
 9934TIP3    H129745   5.596   1.418   0.181 -0.1332  0.2047  0.2383
 9934TIP3    H229746   5.645   1.356   0.052 -0.5355  0.1297  0.1221
 9935TIP3   OH229747   8.138   1.594   0.070 -0.0700 -1.0278  0.3074
 9935TIP3    H129748   8.189   1.662   0.114  0.3221 -1.1984  0.1221
 9935TIP3    H229749   8.203   1.540   0.026 -0.3120 -1.9843  1.0919
 9936TIP3   OH229750   6.703   7.792   3.626  0.3268  0.1962  0.4794
 9936TIP3    H129751   6.624   7.745   3.597 -0.6037  1.5544  0.7167
 9936TIP3    H229752   6.683   7.820   3.715  0.4568  1.8185  0.0379
 9937TIP3   OH229753   3.152   5.452   3.159  0.2425  0.3214  0.4339
 9937TIP3    H129754   3.104   5.531   3.134 -0.4059  0.2074  1.2481
 9937TIP3    H229755   3.163   5.403   3.078 -0.9543  0.4012  0.2003
 9938TIP3   OH229756   2.880   1.111   2.895  0.2499  0.5230 -0.4467
 9938TIP3    H129757   2.914   1.084   2.810  0.3679 -0.9234  0.0266
 9938TIP3    H229758   2.958   1.138   2.944  0.5509 -1.1176  0.0449
 9939TIP3   OH229759   3.530   5.237   6.219 -0.2850  0.8008  0.2671
 9939TIP3    H129760   3.565   5.326   6.219  0.2933  0.5778  0.0454
 9939TIP3    H229761   3.461   5.239   6.152 -1.0465  1.3714  1.0620
 9940TIP3   OH229762   4.057   4.596   4.874  0.1076  0.2043 -0.0754
 9940TIP3    H129763   4.042   4.540   4.951  0.0141  1.2019  0.6506
 9940TIP3    H229764   4.134   4.559   4.832  1.1128  0.5618  1.3846
 9941TIP3   OH229765   6.251   5.678   4.887  0.0120  0.8738  0.1796
 9941TIP3    H129766   6.187   5.636   4.944 -1.4996  0.2831 -1.8190
 9941TIP3    H229767   6.333   5.631   4.902 -1.0555 -1.2255 -0.2283
 9942TIP3   OH229768   2.904   0.358   4.477 -0.0062 -0.2107  0.3825
 9942TIP3    H129769   2.924   0.320   4.392 -1.0919 -0.0744  0.0472
 9942TIP3    H229770   2.987   0.391   4.510  0.3117  0.3189 -0.9120
 9943TIP3   OH229771   7.181   2.920   2.199  0.3247  0.1210 -0.5043
 9943TIP3    H129772   7.145   3.001   2.161  1.6759 -0.4153 -3.0930
 9943TIP3    H229773   7.245   2.951   2.263 -0.5282  1.0789 -0.0816
 9944TIP3   OH229774   7.072   7.663   4.742 -0.3811  0.3214  0.1760
 9944TIP3    H129775   7.086   7.611   4.820  0.7556  0.0505 -0.1883
 9944TIP3    H229776   7.023   7.740   4.772 -0.3840 -0.0193  1.0532
 9945TIP3   OH229777   4.978   6.782   6.433  0.0109  0.0735  0.0129
 9945TIP3    H129778   4.916   6.728   6.384  0.5769  0.7398 -1.4816
 9945TIP3    H229779   4.957   6.872   6.410  0.9065  0.3566  0.2425
 9946TIP3   OH229780   5.391   4.653   3.659 -0.3685 -0.0322 -0.2569
 9946TIP3    H129781   5.357   4.675   3.572 -2.1471  0.9776  0.6398
 9946TIP3    H229782   5.313   4.643   3.714  0.7273  0.9053  1.5820
 9947TIP3   OH229783   3.556   3.601   5.066  0.2565 -0.3750 -1.4167
 9947TIP3    H129784   3.645   3.636   5.076  0.3270 -0.2226 -2.4848
 9947TIP3    H229785   3.561   3.514   5.104  0.9506 -0.4827 -1.7312
 9948TIP3   OH229786   7.118   2.566   5.720 -0.6142  0.0305  0.2922
 9948TIP3    H129787   7.132   2.619   5.799 -1.4397 -1.2054  1.3110
 9948TIP3    H229788   7.054   2.615   5.669  1.3157  1.7972 -0.5999
 9949TIP3   OH229789   1.520   3.048   2.502  0.0491  0.8956 -0.8210
 9949TIP3    H129790   1.595   2.999   2.537  0.0180  2.1035  1.0593
 9949TIP3    H229791   1.559   3.127   2.465 -0.2726  1.4666  0.0483
 9950TIP3   OH229792   1.955   0.717   2.931 -0.1294  0.0378 -0.1093
 9950TIP3    H129793   2.025   0.780   2.948  0.3031 -0.7498  1.2353
 9950TIP3    H229794   1.901   0.758   2.864  0.8444  1.2709 -0.1753
 9951TIP3   OH229795   6.672   4.371   0.035 -0.0535 -1.3635  0.2754
 9951TIP3    H129796   6.632   4.311   0.099 -0.1389 -1.5148  0.0821
 9951TIP3    H229797   6.642   4.458   0.062  0.4973 -1.3517  0.8726
 9952TIP3   OH229798   4.619   3.973   3.461 -0.2575  0.2419  0.2086
 9952TIP3    H129799   4.566   4.039   3.507 -1.7203  0.5209 -1.7660
 9952TIP3    H229800   4.582   3.889   3.488 -0.0228  0.3183  0.7895
 9953TIP3   OH229801   8.009   5.372   3.134 -0.2180  0.1092 -0.5947
 9953TIP3    H129802   8.101   5.391   3.151 -0.1625  0.0107 -0.7804
 9953TIP3    H229803   8.006   5.277   3.120 -0.6034 -0.1388  1.0348
 9954TIP3   OH229804   4.652   1.868   1.590  0.0215  0.3339  0.6172
 9954TIP3    H129805   4.738   1.870   1.632  2.2791 -0.2125 -3.4560
 9954TIP3    H229806   4.611   1.788   1.623  1.6812 -0.1345  1.6220
 9955TIP3   OH229807   1.196   5.774   5.389  0.1490 -0.0936 -0.3268
 9955TIP3    H129808   1.253   5.698   5.396  0.0945 -0.1810 -0.8583
 9955TIP3    H229809   1.254   5.849   5.404  0.3764 -0.1893 -0.7249
 9956TIP3   OH229810   2.467   1.814   4.208 -0.4892 -0.5351 -0.9190
 9956TIP3    H129811   2.379   1.805   4.173 -0.6888  2.0316 -1.1976
 9956TIP3    H229812   2.454   1.836   4.301 -0.1479 -0.0610 -0.9822
 9957TIP3   OH229813   7.075   2.455   4.204  0.0384 -0.0953  0.0187
 9957TIP3    H129814   7.159   2.481   4.167 -0.1596  0.0058 -0.3717
 9957TIP3    H229815   7.010   2.503   4.152 -0.2611 -0.1993  0.2910
 9958TIP3   OH229816   7.521   3.059   6.721 -0.1350  0.2152  0.0172
 9958TIP3    H129817   7.560   3.125   6.664  0.1280 -1.3126 -1.6438
 9958TIP3    H229818   7.427   3.074   6.715 -0.0544  0.7717  0.0981
 9959TIP3   OH229819   4.400   3.433   2.446 -0.1938 -0.2313  0.1294
 9959TIP3    H129820   4.392   3.514   2.395 -0.7424  0.5600  1.4338
 9959TIP3    H229821   4.468   3.452   2.510  1.8952 -1.8869 -1.4602
 9960TIP3   OH229822   3.891   6.538   5.912  0.0627 -0.4820 -0.3393
 9960TIP3    H129823   3.938   6.565   5.990  1.7766 -0.4013 -1.3344
 9960TIP3    H229824   3.943   6.465   5.877 -1.6429 -1.6986 -0.4703
 9961TIP3   OH229825   1.269   2.644   4.069  0.4520 -0.4055 -0.3729
 9961TIP3    H129826   1.269   2.564   4.122 -1.2307 -0.6744 -0.7148
 9961TIP3    H229827   1.231   2.711   4.127  0.6454 -0.1628 -0.5242
 9962TIP3   OH229828   4.092   2.603   1.719  0.3656 -0.4277 -0.7652
 9962TIP3    H129829   4.055   2.516   1.733 -2.5962  0.8314  0.0793
 9962TIP3    H229830   4.058   2.631   1.634  0.8645  0.1201 -0.7948
 9963TIP3   OH229831   1.613   0.166   5.796 -0.1350  0.2179  0.0792
 9963TIP3    H129832   1.701   0.200   5.783 -0.3314  0.2518 -1.4475
 9963TIP3    H229833   1.563   0.201   5.722 -0.7795 -1.8798 -0.5619
 9964TIP3   OH229834   0.490   4.796   3.584 -0.1207  0.0335 -0.0562
 9964TIP3    H129835   0.561   4.841   3.630  0.2115  1.6300 -2.0125
 9964TIP3    H229836   0.515   4.704   3.587  0.6347  0.2420  1.5850
 9965TIP3   OH229837   7.605   6.010   6.087 -0.6657 -0.4268 -0.1143
 9965TIP3    H129838   7.525   5.971   6.051 -1.7276  1.6098 -0.0630
 9965TIP3    H229839   7.575   6.057   6.165  0.5251  0.7211 -0.3316
 9966TIP3   OH229840   7.026   3.711   3.085  0.0595 -0.6232 -0.4932
 9966TIP3    H129841   7.002   3.647   3.018 -0.0658  0.1088 -1.1594
 9966TIP3    H229842   7.013   3.665   3.168 -1.8335 -0.8847 -0.8858
 9967TIP3   OH229843   0.165   7.096   6.481  0.2332 -0.1477 -0.0521
 9967TIP3    H129844   0.166   7.178   6.530 -0.5519  1.0377 -1.9331
 9967TIP3    H229845   0.085   7.052   6.510  0.4016 -0.0361  0.6041
 9968TIP3   OH229846   6.430   2.622   2.210  0.3108  0.1442  0.2604
 9968TIP3    H129847   6.403   2.533   2.186  1.5102 -0.4888  1.1437
 9968TIP3    H229848   6.422   2.672   2.129 -1.9943 -0.3334  0.1328
 9969TIP3   OH229849   0.654   0.708   5.996  0.4771 -0.3439  0.0491
 9969TIP3    H129850   0.703   0.755   5.928 -2.2920  1.6122 -0.7820
 9969TIP3    H229851   0.662   0.616   5.972 -0.2349  0.2561 -2.9148
 9970TIP3   OH229852   0.958   7.752   2.427 -0.1171  0.0588  0.0581
 9970TIP3    H129853   0.867   7.740   2.401 -0.6569  0.0535  1.7926
 9970TIP3    H229854   0.978   7.676   2.481  0.6574  0.4667  0.3653
 9971TIP3   OH229855   3.938   2.044   2.350  0.1784  0.0425 -0.1910
 9971TIP3    H129856   3.871   2.109   2.370  0.9430  0.8364 -0.1843
 9971TIP3    H229857   4.017   2.075   2.394  0.8975 -0.1878 -1.2705
 9972TIP3   OH229858   7.703   7.285   2.855  0.0692 -0.1612  0.1535
 9972TIP3    H129859   7.787   7.296   2.811 -0.8747  0.3161 -1.6382
 9972TIP3    H229860   7.687   7.369   2.897  0.1051  0.0390 -0.2262
 9973TIP3   OH229861   7.145   3.619   4.654  0.1945 -0.0867  0.1930
 9973TIP3    H129862   7.118   3.549   4.595 -0.2011  0.1216  0.1218
 9973TIP3    H229863   7.228   3.589   4.690 -0.1109 -0.7314  0.3855
 9974TIP3   OH229864   6.700   1.367   5.600 -0.2575  0.0920  0.1053
 9974TIP3    H129865   6.696   1.459   5.573 -0.4953 -0.5953 -2.4251
 9974TIP3    H229866   6.785   1.336   5.567 -1.6635 -1.4623 -2.3550
 9975TIP3   OH229867   4.921   5.390   1.271  0.0354  0.0074 -0.2540
 9975TIP3    H129868   4.996   5.444   1.296 -0.3082  0.6336 -0.5656
 9975TIP3    H229869   4.897   5.421   1.184  0.5649 -1.4291 -0.9511
 9976TIP3   OH229870   6.167   4.067   6.219 -0.6375  0.5687 -0.2218
 9976TIP3    H129871   6.135   4.123   6.291 -1.2394 -0.2456  0.1546
 9976TIP3    H229872   6.091   4.017   6.192  0.2607 -1.3353  0.6239
 9977TIP3   OH229873   6.756   7.715   1.684  0.5353 -0.3191  0.0634
 9977TIP3    H129874   6.759   7.800   1.640  0.7847  0.9189  2.3484
 9977TIP3    H229875   6.809   7.658   1.628 -2.1196  0.0895 -3.2097
 9978TIP3   OH229876   4.365   4.420   0.402  0.3080 -0.2802 -0.3289
 9978TIP3    H129877   4.370   4.498   0.346  3.0408 -0.4831 -0.5195
 9978TIP3    H229878   4.309   4.360   0.354 -1.2470  1.2437 -0.5414
 9979TIP3   OH229879   6.167   0.896   2.572 -0.2734 -0.1079 -0.4039
 9979TIP3    H129880   6.135   0.919   2.485  0.9592  1.6259 -0.4455
 9979TIP3    H229881   6.104   0.936   2.632 -0.3426 -0.0869 -0.4908
 9980TIP3   OH229882   5.543   4.017   4.209  0.0137  0.1794 -0.3897
 9980TIP3    H129883   5.584   3.939   4.170 -0.5614 -0.2606 -0.1210
 9980TIP3    H229884   5.609   4.086   4.198  0.1405 -0.0942 -1.5306
 9981TIP3   OH229885   5.220   5.385   0.773 -0.3266  0.1179 -0.0595
 9981TIP3    H129886   5.244   5.476   0.756  2.9709 -0.4217  0.9323
 9981TIP3    H229887   5.248   5.338   0.694  0.3095 -0.3484  0.4387
 9982TIP3   OH229888   3.834   1.297   1.753 -0.0271  0.6110 -0.4205
 9982TIP3    H129889   3.837   1.370   1.815  1.5075 -1.4319  2.1574
 9982TIP3    H229890   3.925   1.288   1.724  0.0982 -1.0518  0.3871
 9983TIP3   OH229891   1.701   5.041   3.762 -0.3718  0.3037 -0.0380
 9983TIP3    H129892   1.702   5.017   3.669 -0.8299 -0.6568  0.1957
 9983TIP3    H229893   1.780   5.002   3.799  0.0629  1.0939 -0.1124
 9984TIP3   OH229894   5.161   5.546   5.695  0.2284  0.6317  0.3238
 9984TIP3    H129895   5.239   5.531   5.640  0.1662  1.6334 -0.0578
 9984TIP3    H229896   5.157   5.469   5.752  0.6785 -0.1211 -0.6244
 9985TIP3   OH229897   7.548   6.975   2.633 -0.5941 -0.0713  0.1704
 9985TIP3    H129898   7.488   7.012   2.567  0.6956  0.6602 -0.6272
 9985TIP3    H229899   7.628   7.027   2.625  0.0165 -0.7400  1.5230
 9986TIP3   OH229900   5.657   4.754   0.503  0.0382  0.4367 -0.1819
 9986TIP3    H129901   5.716   4.813   0.457 -1.4349  1.8337 -0.3670
 9986TIP3    H229902   5.571   4.795   0.496 -0.6639 -0.5734  1.6879
 9987TIP3   OH229903   3.251   3.082   2.948 -0.2659 -0.4741 -0.5270
 9987TIP3    H129904   3.208   3.165   2.929 -2.3520 -1.4979 -0.5033
 9987TIP3    H229905   3.185   3.030   2.994  1.9639 -1.0719  2.3020
 9988TIP3   OH229906   4.670   6.451   3.103  0.2837 -0.0421  0.2840
 9988TIP3    H129907   4.687   6.541   3.077  0.9594 -0.6511 -1.5920
 9988TIP3    H229908   4.586   6.455   3.149 -0.0822  1.4325 -0.4383
 9989TIP3   OH229909   5.882   3.336   4.158  0.7484  0.0607  0.0842
 9989TIP3    H129910   5.874   3.252   4.203  0.9550  0.2408  0.4617
 9989TIP3    H229911   5.918   3.314   4.072 -0.7033 -0.4029 -0.4283
 9990TIP3   OH229912   3.159   1.341   0.295  0.0705 -0.0520 -0.0961
 9990TIP3    H129913   3.100   1.304   0.230  1.7891  0.3532 -2.0003
 9990TIP3    H229914   3.192   1.422   0.255  2.4501 -0.6406  0.4816
 9991TIP3   OH229915   0.311   6.325   3.633 -0.1171  0.2468 -0.2646
 9991TIP3    H129916   0.267   6.284   3.708  2.3714 -0.4540  0.9390
 9991TIP3    H229917   0.355   6.252   3.588  2.0240  1.1431  0.2303
 9992TIP3   OH229918   1.200   0.902   5.073  0.2722 -0.3866 -0.2787
 9992TIP3    H129919   1.164   0.822   5.111  0.4246 -1.0964 -1.5576
 9992TIP3    H229920   1.290   0.879   5.048  1.5800  1.2441  2.5054
 9993TIP3   OH229921   6.977   4.699   3.181 -0.3379  0.1866  0.1009
 9993TIP3    H129922   7.055   4.656   3.146 -1.4018 -1.3812 -0.4713
 9993TIP3    H229923   6.926   4.723   3.103 -1.8634 -1.6568  0.4689
 9994TIP3   OH229924   3.673   5.837   2.734 -0.0778 -0.2331 -0.1336
 9994TIP3    H129925   3.651   5.909   2.675 -0.5958  0.0376  0.3816
 9994TIP3    H229926   3.674   5.759   2.678 -1.5269 -0.1348 -0.3271
 9995TIP3   OH229927   4.613   3.744   0.204 -0.0205  0.0624  0.0786
 9995TIP3    H129928   4.562   3.806   0.256  2.3324  2.6030 -0.4171
 9995TIP3    H229929   4.547   3.692   0.157 -2.1665  2.6372  0.0063
 9996TIP3   OH229930   1.071   0.454   0.539 -0.5630  0.1993 -0.2601
 9996TIP3    H129931   1.010   0.468   0.611  0.9477  2.2680  0.7238
 9996TIP3    H229932   1.029   0.494   0.463 -0.5723  1.3651  0.3424
 9997TIP3   OH229933   7.633   2.128   2.367 -0.0222  0.1660 -0.0017
 9997TIP3    H129934   7.579   2.183   2.424 -1.8363 -1.1578 -0.3545
 9997TIP3    H229935   7.713   2.179   2.353 -0.7112  1.7333  1.4324
 9998TIP3   OH229936   4.955   6.547   4.621 -0.1431 -0.1295 -0.9588
 9998TIP3    H129937   5.050   6.545   4.633 -0.2152  0.4570 -0.2257
 9998TIP3    H229938   4.932   6.640   4.623 -0.6488 -0.2212 -1.8911
 9999TIP3   OH229939   0.584   3.973   6.427  0.4233  0.6123 -0.8262
 9999TIP3    H129940   0.604   4.066   6.433 -1.8064  1.1639 -1.0391
 9999TIP3    H229941   0.607   3.949   6.338  2.5178  0.5153 -0.3123
10000TIP3   OH229942   2.167   2.477   3.542  0.1024  0.1567 -0.3636
10000TIP3    H129943   2.181   2.385   3.519 -0.4530 -0.1616  0.5251
10000TIP3    H229944   2.235   2.497   3.606 -0.7157 -0.0979  0.6075
10001TIP3   OH229945   5.802   1.304   2.245 -0.2465 -0.7269 -0.2349
10001TIP3    H129946   5.822   1.271   2.158  0.4081 -0.6393 -0.1209
10001TIP3    H229947   5.738   1.375   2.229  0.5395 -0.1110 -0.7241
10002TIP3   OH229948   3.596   3.920   0.218  0.0645 -0.0652 -0.7332
10002TIP3    H129949   3.530   3.978   0.254 -0.6055 -1.4933  0.4646
10002TIP3    H229950   3.549   3.865   0.156  0.5705  0.2848 -1.4401
10003TIP3   OH229951   5.631   0.087   5.085  0.5009 -0.1749  0.8067
10003TIP3    H129952   5.673   0.002   5.073  0.5518 -0.1292  0.6648
10003TIP3    H229953   5.697   0.140   5.131  0.3860 -0.2814  1.0928
10004TIP3   OH229954   1.969   1.276   2.637  0.2562  0.1525  0.2405
10004TIP3    H129955   1.932   1.194   2.671 -1.0323  0.1338 -1.0883
10004TIP3    H229956   2.062   1.258   2.627  0.1040 -0.9144  0.6366
10005TIP3   OH229957   7.470   1.826   4.503 -0.0366  0.5994  0.0640
10005TIP3    H129958   7.563   1.836   4.525  0.1023 -2.0053  0.9327
10005TIP3    H229959   7.431   1.784   4.579 -1.8116  0.9358 -0.5921
10006TIP3   OH229960   5.398   3.883   2.822 -0.1486  0.3974 -0.0961
10006TIP3    H129961   5.319   3.832   2.841  0.2226  0.0055  0.4349
10006TIP3    H229962   5.470   3.823   2.841  0.2971  1.1391  0.6179
10007TIP3   OH229963   4.380   4.381   5.936 -0.1164  0.6181 -0.3768
10007TIP3    H129964   4.393   4.437   5.860  2.2648  0.0224 -0.4867
10007TIP3    H229965   4.310   4.321   5.910  2.3695 -1.3269 -3.2523
10008TIP3   OH229966   7.668   0.527   4.865  0.4010 -0.0763  0.1176
10008TIP3    H129967   7.601   0.549   4.930 -1.1980 -1.1905 -1.0975
10008TIP3    H229968   7.646   0.580   4.789  1.0590 -0.2704 -0.2129
10009TIP3   OH229969   1.138   5.107   0.230 -0.3043 -0.5085  0.4645
10009TIP3    H129970   1.085   5.089   0.153 -1.4228  0.4933  0.9673
10009TIP3    H229971   1.104   5.189   0.265  1.6123  0.2165  0.7971
10010TIP3   OH229972   0.957   4.305   6.343 -0.2008  0.1355 -0.2125
10010TIP3    H129973   1.038   4.311   6.292  1.2425 -0.2799  1.8879
10010TIP3    H229974   0.984   4.265   6.426 -2.6343 -0.2711  0.4497
10011TIP3   OH229975   4.129   6.897   4.137  0.1481 -0.1122  0.6044
10011TIP3    H129976   4.077   6.962   4.088  0.4740  0.0686  0.4904
10011TIP3    H229977   4.140   6.825   4.075  2.7653  1.1873 -0.5901
10012TIP3   OH229978   7.645   2.116   0.239 -0.3475  0.2298  0.1902
10012TIP3    H129979   7.719   2.172   0.216  0.2834 -0.8951 -0.6088
10012TIP3    H229980   7.636   2.124   0.334  0.6802  0.5100  0.2688
10013TIP3   OH229981   2.523   1.080   5.474  0.2962  1.2094  0.1575
10013TIP3    H129982   2.547   1.033   5.553  1.0336  0.6123 -0.4100
10013TIP3    H229983   2.469   1.018   5.424  1.5838  0.7838 -0.7682
10014TIP3   OH229984   6.895   7.560   5.401  0.0590 -0.2447  0.1567
10014TIP3    H129985   6.834   7.492   5.428  1.1752 -0.7665  1.4925
10014TIP3    H229986   6.867   7.584   5.312 -0.8841 -1.8214 -0.0024
10015TIP3   OH229987   5.619   5.045   6.681 -0.1331 -0.1224 -0.1909
10015TIP3    H129988   5.693   5.053   6.742  0.1360  0.6881 -0.6097
10015TIP3    H229989   5.554   5.106   6.713 -0.5240 -0.6441  0.0223
10016TIP3   OH229990   8.220   5.401   0.159  0.0117 -0.1155 -0.0447
10016TIP3    H129991   8.224   5.381   0.066  1.1236 -1.3486  0.2472
10016TIP3    H229992   8.180   5.323   0.199  3.5507 -1.5856  1.0019
10017TIP3   OH229993   3.372   4.047   2.785  0.7246  0.2368 -0.2048
10017TIP3    H129994   3.440   4.100   2.743  0.2630  1.2156  0.2342
10017TIP3    H229995   3.319   4.111   2.833 -0.3416 -0.5382 -0.3223
10018TIP3   OH229996   5.303   1.078   4.690 -0.4034  0.4112  0.4455
10018TIP3    H129997   5.372   1.032   4.739  0.4395  1.3414  0.1797
10018TIP3    H229998   5.306   1.039   4.603 -0.9007 -0.2430  0.7229
10019TIP3   OH229999   4.809   1.634   4.286 -0.5690  0.0603  0.5833
10019TIP3    H130000   4.719   1.660   4.266 -0.5086  0.1918  0.4830
10019TIP3    H230001   4.828   1.673   4.370 -0.5334  0.2063  0.5071
10020TIP3   OH230002   6.438   4.473   0.972  0.1754 -0.1144  0.3168
10020TIP3    H130003   6.380   4.549   0.964 -0.2322 -0.2681  1.6332
10020TIP3    H230004   6.453   4.445   0.882  0.4019  1.5703 -0.2195
10021TIP3   OH230005   5.875   6.028   3.761  0.3887  0.0197  0.6411
10021TIP3    H130006   5.824   6.108   3.753  1.0324  0.3338 -0.5001
10021TIP3    H230007   5.965   6.055   3.745  0.5893 -0.9520  0.0467
10022TIP3   OH230008   2.598   6.817   2.877  0.2275  0.3956  0.0854
10022TIP3    H130009   2.574   6.899   2.835 -0.8057  0.7044  1.2255
10022TIP3    H230010   2.523   6.760   2.864 -0.6030  0.8705  2.4056
10023TIP3   OH230011   1.782   3.433   2.488 -0.0534 -1.0067  0.0541
10023TIP3    H130012   1.750   3.499   2.426 -0.4788 -0.8491  0.4359
10023TIP3    H230013   1.866   3.467   2.518 -1.9129  1.4359  3.2364
10024TIP3   OH230014   3.837   3.664   5.093 -0.0303  0.1294 -0.0920
10024TIP3    H130015   3.857   3.586   5.145  0.9907  0.1885 -0.3804
10024TIP3    H230016   3.919   3.685   5.048 -0.7347  0.4134 -1.2963
10025TIP3   OH230017   3.850   0.339   2.903 -0.1372 -0.0735  0.4322
10025TIP3    H130018   3.812   0.252   2.910 -0.2426 -0.4838 -3.2045
10025TIP3    H230019   3.802   0.392   2.967  0.1455 -2.6474  2.9625
10026TIP3   OH230020   5.497   4.930   4.416 -0.6094  0.3764  0.1769
10026TIP3    H130021   5.441   4.995   4.458 -1.8475  0.0711 -0.9545
10026TIP3    H230022   5.507   4.961   4.326 -2.9237 -1.9857 -1.0079
10027TIP3   OH230023   5.719   3.137   4.768 -0.2318  0.2946 -0.3040
10027TIP3    H130024   5.693   3.224   4.799 -0.7157 -0.3206  1.1448
10027TIP3    H230025   5.757   3.095   4.845  1.3288 -0.2947 -1.3487
10028TIP3   OH230026   1.860   2.643   2.651  0.0931 -0.5823 -1.0629
10028TIP3    H130027   1.947   2.648   2.688 -0.5950 -1.7247  0.8428
10028TIP3    H230028   1.802   2.681   2.717 -0.9889 -0.9507 -1.7537
10029TIP3   OH230029   3.524   0.616   3.686 -0.4771 -0.0940 -0.6516
10029TIP3    H130030   3.480   0.559   3.749 -0.6472  0.4877 -0.2379
10029TIP3    H230031   3.609   0.576   3.671 -0.7568 -0.6811 -0.6865
10030TIP3   OH230032   6.173   7.715   5.132 -0.3707  0.2504  0.0433
10030TIP3    H130033   6.246   7.711   5.194 -0.5853 -0.7792  0.2530
10030TIP3    H230034   6.198   7.782   5.069  0.7371 -0.0500  0.1499
10031TIP3   OH230035   2.252   5.893   5.286 -0.3170 -0.3676 -0.2803
10031TIP3    H130036   2.300   5.906   5.368  1.3442 -1.4308 -1.0355
10031TIP3    H230037   2.274   5.970   5.234 -0.4294 -0.2594 -0.1693
10032TIP3   OH230038   6.431   3.608   4.627 -0.4391 -0.1728 -0.8916
10032TIP3    H130039   6.466   3.634   4.712  0.8533 -0.6171 -1.2655
10032TIP3    H230040   6.419   3.690   4.579  0.0954 -0.0147 -0.7557
10033TIP3   OH230041   3.199   7.742   4.181  0.3613  0.3473 -0.4261
10033TIP3    H130042   3.149   7.808   4.134  1.4225  1.6954  0.2509
10033TIP3    H230043   3.261   7.708   4.117  0.2099  0.4361 -0.6206
10034TIP3   OH230044   7.749   0.318   5.667 -0.4180 -0.2156 -0.4758
10034TIP3    H130045   7.813   0.359   5.610 -0.7409 -1.1498 -1.5512
10034TIP3    H230046   7.753   0.225   5.645 -1.4237 -0.4276  0.1519
10035TIP3   OH230047   4.022   6.101   1.405  0.2455 -0.2775 -0.6796
10035TIP3    H130048   4.052   6.122   1.317 -0.8319  1.9748 -0.5833
10035TIP3    H230049   4.016   6.006   1.407  0.9338 -0.4116 -2.8049
10036TIP3   OH230050   6.435   4.506   1.464 -0.0523  0.3732 -0.1836
10036TIP3    H130051   6.468   4.421   1.432 -2.5067 -0.9277  0.4765
10036TIP3    H230052   6.382   4.540   1.393 -2.8594 -0.9684  1.1044
10037TIP3   OH230053   1.863   2.220   4.459  0.2399 -0.2042  0.2152
10037TIP3    H130054   1.946   2.261   4.434  0.4549 -1.8062 -2.1152
10037TIP3    H230055   1.886   2.163   4.533  1.2302 -0.5506 -0.3342
10038TIP3   OH230056   2.654   7.206   0.932  0.1434 -0.3826 -0.1023
10038TIP3    H130057   2.639   7.114   0.953 -0.2785 -0.3212 -0.1352
10038TIP3    H230058   2.658   7.208   0.836  1.9522 -0.6445 -0.0800
10039TIP3   OH230059   6.521   2.602   3.941  0.1749  0.0169 -0.5855
10039TIP3    H130060   6.483   2.690   3.945 -2.2972 -0.9039 -1.9851
10039TIP3    H230061   6.509   2.568   4.030 -1.2950  0.1885 -0.6878
10040TIP3   OH230062   0.947   6.261   3.982 -0.5267  0.8281  0.3035
10040TIP3    H130063   1.017   6.196   3.977 -0.5089  0.7296  1.5325
10040TIP3    H230064   0.948   6.303   3.896  1.9444  1.7606  0.7037
10041TIP3   OH230065   1.011   5.533   2.721 -0.2043 -0.5180 -0.2142
10041TIP3    H130066   1.038   5.520   2.812 -0.7902  1.0271  0.1984
10041TIP3    H230067   1.093   5.540   2.673  0.2219  2.2375  0.7538
10042TIP3   OH230068   2.035   6.942   6.329 -0.0101  0.8188 -0.6872
10042TIP3    H130069   2.043   6.847   6.336 -0.8277  0.7995  0.1377
10042TIP3    H230070   1.958   6.956   6.273  0.4306  1.0008 -1.2567
10043TIP3   OH230071   0.306   3.337   5.895 -0.4069 -0.7507 -0.3311
10043TIP3    H130072   0.234   3.372   5.948  0.7820 -0.0311  0.8717
10043TIP3    H230073   0.318   3.248   5.927  0.5519 -0.1931  0.9034
10044TIP3   OH230074   7.267   7.247   4.752  0.0063 -0.2769 -0.0704
10044TIP3    H130075   7.296   7.239   4.843 -0.3791  0.6816  0.1495
10044TIP3    H230076   7.272   7.340   4.734 -0.9259 -0.3304 -0.6916
10045TIP3   OH230077   3.285   3.667   6.052  0.2811  0.6841 -0.5562
10045TIP3    H130078   3.308   3.577   6.072  0.7243  1.0441  0.6577
10045TIP3    H230079   3.207   3.660   5.997  0.1029 -0.4244 -0.1915
10046TIP3   OH230080   1.011   1.669   0.263  0.2452  0.5478  0.1201
10046TIP3    H130081   0.999   1.644   0.171 -1.6204  1.4281  0.0748
10046TIP3    H230082   1.086   1.728   0.263 -0.6119  1.6917 -1.0991
10047TIP3   OH230083   3.056   4.773   5.223  0.0010  0.1529  0.5501
10047TIP3    H130084   3.139   4.821   5.223  0.4385 -0.4627 -1.7975
10047TIP3    H230085   3.082   4.681   5.226 -0.4280 -0.1243 -2.0204
10048TIP3   OH230086   4.107   0.673   6.266  0.1018  0.1994 -0.7450
10048TIP3    H130087   4.134   0.626   6.186 -1.9331 -0.2642 -1.2059
10048TIP3    H230088   4.019   0.641   6.284  0.9261 -0.5623  2.3939
10049TIP3   OH230089   3.589   2.085   6.106 -0.2672  0.4845  0.4907
10049TIP3    H130090   3.537   2.046   6.036  0.6464 -1.8676  1.0158
10049TIP3    H230091   3.621   2.167   6.070 -0.2486 -0.4089 -1.6794
10050TIP3   OH230092   6.750   4.532   3.254  0.0882  0.2192 -0.0066
10050TIP3    H130093   6.749   4.471   3.181  0.9812 -1.1307  1.0600
10050TIP3    H230094   6.837   4.572   3.250  0.1114  0.1948  0.2762
10051TIP3   OH230095   4.827   4.929   6.281 -0.5518 -0.3821  0.1577
10051TIP3    H130096   4.898   4.963   6.335  0.4414 -0.0967 -1.2721
10051TIP3    H230097   4.752   4.985   6.300 -0.1424 -0.1109  1.0010
10052TIP3   OH230098   0.635   4.075   5.887 -0.3816  0.5648 -0.2021
10052TIP3    H130099   0.541   4.064   5.871 -0.4566  1.9668 -0.8036
10052TIP3    H230100   0.651   4.026   5.968 -1.6030  0.2460 -0.1318
10053TIP3   OH230101   8.100   1.268   5.148 -0.0327 -0.2448 -0.6826
10053TIP3    H130102   8.110   1.355   5.109 -1.1322  0.8712  1.3458
10053TIP3    H230103   8.161   1.268   5.222  0.0420 -1.2502 -0.7331
10054TIP3   OH230104   3.964   3.290   0.797 -0.4686 -0.2226  0.4720
10054TIP3    H130105   4.057   3.284   0.819 -0.4035  1.6700  0.8756
10054TIP3    H230106   3.920   3.244   0.868  0.1041  0.0868  1.0504
10055TIP3   OH230107   5.663   7.265   0.440 -0.6395 -0.9631  0.1438
10055TIP3    H130108   5.569   7.284   0.439 -0.4011  0.3018  0.1803
10055TIP3    H230109   5.668   7.170   0.445 -1.9146 -1.0039  1.0359
10056TIP3   OH230110   1.565   6.007   5.726 -0.1245  0.9038 -0.1078
10056TIP3    H130111   1.599   6.031   5.640 -2.0348  1.1135 -0.8752
10056TIP3    H230112   1.472   6.032   5.722 -1.0154 -1.8670  0.8956
10057TIP3   OH230113   2.546   4.033   5.410  0.3101 -0.1130  0.2858
10057TIP3    H130114   2.541   3.937   5.404  3.3840 -0.3373 -0.1545
10057TIP3    H230115   2.526   4.063   5.322  2.2781 -0.6002 -0.3702
10058TIP3   OH230116   5.143   4.365   4.530  0.8213  0.1873 -0.5638
10058TIP3    H130117   5.105   4.427   4.592 -0.7576 -2.3792  1.2349
10058TIP3    H230118   5.150   4.414   4.448 -0.5464  2.6359  0.6813
10059TIP3   OH230119   3.636   1.126   1.764 -0.2481 -0.3425 -0.0174
10059TIP3    H130120   3.619   1.095   1.675  0.7106 -1.9015  0.3131
10059TIP3    H230121   3.688   1.205   1.752 -1.9888  0.7564 -0.8597
10060TIP3   OH230122   3.268   7.018   0.363 -0.4864 -0.3963  0.4693
10060TIP3    H130123   3.340   7.067   0.323 -2.3868  1.1519 -1.2324
10060TIP3    H230124   3.259   7.055   0.451 -0.5306  0.8667 -0.0509
10061TIP3   OH230125   4.741   5.679   1.236  0.6284 -0.2789 -0.1991
10061TIP3    H130126   4.815   5.618   1.241  0.9075  0.0288 -0.4922
10061TIP3    H230127   4.694   5.668   1.318  1.1095 -0.3465  0.0678
10062TIP3   OH230128   5.238   1.774   2.805 -0.3798  0.2088  0.1239
10062TIP3    H130129   5.193   1.744   2.884 -0.1454 -1.1995 -0.2540
10062TIP3    H230130   5.227   1.869   2.806 -0.5629  0.1955  1.7266
10063TIP3   OH230131   6.034   5.408   4.907  0.2443  0.1955 -0.1277
10063TIP3    H130132   5.974   5.455   4.850 -0.2799  0.8204  0.8914
10063TIP3    H230133   6.040   5.464   4.985  0.3077 -1.0180  0.7549
10064TIP3   OH230134   0.024   5.607   6.288 -0.3258 -0.0356 -0.4303
10064TIP3    H130135   0.009   5.702   6.287 -2.7831 -0.3604 -0.4619
10064TIP3    H230136   0.109   5.596   6.245  0.6254  2.2009  0.6790
10065TIP3   OH230137   6.154   6.836   2.334 -0.0578 -0.7509 -0.3067
10065TIP3    H130138   6.083   6.835   2.397  0.2329 -0.0473  0.0368
10065TIP3    H230139   6.182   6.744   2.328 -0.3260 -0.8753  0.3107
10066TIP3   OH230140   2.128   7.410   5.153  0.0476  0.1558  0.0531
10066TIP3    H130141   2.179   7.342   5.111 -1.8061 -1.3448  0.1104
10066TIP3    H230142   2.041   7.403   5.113 -0.6217  1.4389  1.1949
10067TIP3   OH230143   0.676   4.344   5.805 -0.0475 -0.0682  0.1383
10067TIP3    H130144   0.655   4.370   5.895 -1.9749  0.2826 -0.3628
10067TIP3    H230145   0.674   4.248   5.807  2.3758 -0.1503  0.9653
10068TIP3   OH230146   0.776   1.538   0.666 -0.0440  0.0540  0.4942
10068TIP3    H130147   0.835   1.611   0.644 -2.0468  1.8008  0.5941
10068TIP3    H230148   0.689   1.577   0.668 -1.4503 -2.7139 -1.0665
10069TIP3   OH230149   5.632   5.824   0.469 -0.4046 -0.4937 -0.3379
10069TIP3    H130150   5.673   5.742   0.440 -0.2770 -0.2062 -0.9806
10069TIP3    H230151   5.566   5.842   0.402 -0.5733 -0.1805 -0.0856
10070TIP3   OH230152   6.908   5.088   6.566  0.2780  0.0187 -0.2510
10070TIP3    H130153   6.863   5.171   6.550 -2.4683 -1.4167 -0.6631
10070TIP3    H230154   6.955   5.070   6.484 -0.9779  0.1327 -1.0263
10071TIP3   OH230155   2.085   5.236   3.031  0.0821  0.2126 -0.1903
10071TIP3    H130156   2.008   5.186   3.059  0.8280 -1.1986 -0.6113
10071TIP3    H230157   2.118   5.275   3.112 -0.1505 -0.4899  0.2566
10072TIP3   OH230158   4.236   2.508   5.668 -0.2247 -0.6233  0.0996
10072TIP3    H130159   4.261   2.434   5.612  1.4651 -0.8726  1.1292
10072TIP3    H230160   4.272   2.585   5.623  1.0025 -0.8078  0.7405
10073TIP3   OH230161   8.090   3.749   5.448  0.0920  0.0633  0.0896
10073TIP3    H130162   8.146   3.671   5.439  0.3737  0.3744 -1.0238
10073TIP3    H230163   8.146   3.821   5.420 -0.7526  0.4264 -0.6956
10074TIP3   OH230164   1.176   6.000   6.363  0.2330  0.1158 -0.1898
10074TIP3    H130165   1.146   6.090   6.374 -1.4742 -0.3793 -0.4568
10074TIP3    H230166   1.143   5.974   6.277 -2.6086 -1.9014  1.3292
10075TIP3   OH230167   5.100   6.116   3.099  0.2844 -0.0831 -0.2129
10075TIP3    H130168   5.075   6.077   3.182  1.9655  1.6137  1.1939
10075TIP3    H230169   5.024   6.167   3.072 -0.3441 -0.8139  0.1507
10076TIP3   OH230170   6.280   4.799   4.221 -0.3689  0.0877  0.2036
10076TIP3    H130171   6.311   4.875   4.270 -1.1490  0.6942 -0.2215
10076TIP3    H230172   6.291   4.726   4.282  1.0757  0.3946  0.3656
10077TIP3   OH230173   4.439   6.825   1.993  0.4984  0.0090  0.1721
10077TIP3    H130174   4.377   6.755   1.972  1.1606 -0.6939  0.5172
10077TIP3    H230175   4.487   6.840   1.912 -0.6721  1.1485 -0.3445
10078TIP3   OH230176   0.490   0.169   5.058 -0.3619 -0.0277 -0.0719
10078TIP3    H130177   0.531   0.127   5.133  1.4388  0.7975 -0.5398
10078TIP3    H230178   0.527   0.257   5.057 -0.4674  0.0236 -1.8369
10079TIP3   OH230179   5.051   5.834   0.877 -0.0594  0.2237  0.1858
10079TIP3    H130180   5.069   5.923   0.907  0.0630 -0.4034  2.1078
10079TIP3    H230181   5.066   5.779   0.954  0.5929 -1.5603 -1.1391
10080TIP3   OH230182   4.052   2.378   2.577  0.5306 -0.1248 -0.0057
10080TIP3    H130183   4.042   2.471   2.558 -0.9788 -0.3586 -0.4959
10080TIP3    H230184   3.966   2.350   2.608  0.8243 -1.4669 -0.3187
10081TIP3   OH230185   3.971   5.693   5.627  0.4360  0.0151  0.2837
10081TIP3    H130186   4.041   5.628   5.633  0.6736 -0.0507 -2.0490
10081TIP3    H230187   4.010   5.764   5.575 -0.3448  1.2965  1.3820
10082TIP3   OH230188   7.002   4.381   0.270  0.6107  0.2985  0.4504
10082TIP3    H130189   6.996   4.372   0.175 -1.7498 -0.1080  0.5593
10082TIP3    H230190   7.081   4.432   0.285  1.1829  0.1315 -1.7092
10083TIP3   OH230191   1.327   0.014   4.590 -0.3995 -0.5495 -0.0892
10083TIP3    H130192   1.367  -0.002   4.504  0.5449 -0.3513  0.3009
10083TIP3    H230193   1.399   0.043   4.645 -0.4969 -2.8625  1.4067
10084TIP3   OH230194   2.130   5.096   2.354 -0.1278  0.0217  0.3365
10084TIP3    H130195   2.199   5.041   2.391  1.4875  2.3240  0.9363
10084TIP3    H230196   2.070   5.113   2.427 -1.3130 -1.7488 -0.1214
10085TIP3   OH230197   6.988   7.487   3.482 -0.4712 -0.1477  0.3271
10085TIP3    H130198   7.018   7.405   3.442  0.3422 -0.3092  1.2299
10085TIP3    H230199   6.965   7.543   3.408  0.9245 -0.4656 -0.3830
10086TIP3   OH230200   3.141   3.788   5.040  0.2126 -0.1734  0.2741
10086TIP3    H130201   3.087   3.812   4.965  0.6309 -1.4124 -0.4598
10086TIP3    H230202   3.100   3.831   5.115 -0.3462  0.9091 -0.6246
10087TIP3   OH230203   5.930   7.525   1.989  0.2851  0.3136  0.2199
10087TIP3    H130204   5.905   7.617   1.983 -2.0459 -0.1635  1.5482
10087TIP3    H230205   5.862   7.479   1.939 -1.7794 -1.0421  3.9086
10088TIP3   OH230206   0.100   6.576   1.894 -0.1337  0.2382 -0.1999
10088TIP3    H130207   0.017   6.620   1.879 -0.3499 -0.3545 -0.7838
10088TIP3    H230208   0.134   6.558   1.807  0.9959  1.1748  0.0195
10089TIP3   OH230209   2.806   2.628   1.859  0.1046  0.1667  0.0756
10089TIP3    H130210   2.893   2.650   1.828  0.4492 -1.1951 -0.0178
10089TIP3    H230211   2.821   2.580   1.941 -0.6659  1.4890  1.0304
10090TIP3   OH230212   5.787   0.771   3.756  0.7443 -0.0658 -0.0031
10090TIP3    H130213   5.752   0.760   3.668 -1.6260  1.1085  0.7053
10090TIP3    H230214   5.770   0.687   3.799  0.2220 -0.0411 -0.1530
10091TIP3   OH230215   1.766   6.238   5.876 -0.2796 -0.4506  0.1279
10091TIP3    H130216   1.735   6.150   5.853 -0.7803 -0.6113  1.3510
10091TIP3    H230217   1.818   6.226   5.955 -0.6922  0.4017  0.5416
10092TIP3   OH230218   6.665   1.766   1.796 -0.2806  0.0446  0.5479
10092TIP3    H130219   6.657   1.802   1.708  0.5446 -0.9962  0.0169
10092TIP3    H230220   6.588   1.798   1.843 -2.3580 -1.7349 -1.4114
10093TIP3   OH230221   7.531   3.332   5.461  0.5334  0.2589  0.1683
10093TIP3    H130222   7.548   3.426   5.462  1.6649  0.0653  0.7070
10093TIP3    H230223   7.569   3.301   5.378 -0.5169  0.3662 -0.3831
10094TIP3   OH230224   0.061   4.605   1.881  0.1013 -0.1277  0.0483
10094TIP3    H130225   0.003   4.670   1.840  0.5390  0.5272  0.4460
10094TIP3    H230226   0.005   4.557   1.941 -0.4277 -0.7335 -0.9052
10095TIP3   OH230227   7.902   1.318   6.351 -0.4670 -0.5068  0.1934
10095TIP3    H130228   7.994   1.328   6.374 -0.6280 -0.2357  0.7385
10095TIP3    H230229   7.895   1.230   6.314  0.0279 -0.4807  0.0373
10096TIP3   OH230230   2.312   7.297   4.993 -0.0755 -0.0515 -0.1459
10096TIP3    H130231   2.314   7.252   4.909  2.0653  1.2141 -0.8513
10096TIP3    H230232   2.354   7.237   5.055  0.3162 -0.1088 -0.4685
10097TIP3   OH230233   5.944   3.711   0.611  0.2129  0.3362 -0.5543
10097TIP3    H130234   6.014   3.651   0.584 -0.2831 -0.8296  0.6626
10097TIP3    H230235   5.986   3.797   0.612  1.8431 -0.4162  0.7689
10098TIP3   OH230236   8.111   4.432   1.336 -0.6461  0.2772  0.2602
10098TIP3    H130237   8.116   4.453   1.429 -0.0423  0.6963  0.1346
10098TIP3    H230238   8.174   4.491   1.294 -0.5595 -0.2398 -0.3544
10099TIP3   OH230239   4.436   0.733   6.517 -0.5020  0.1101 -0.0038
10099TIP3    H130240   4.529   0.754   6.517  0.6959 -4.0897  1.6868
10099TIP3    H230241   4.426   0.670   6.445 -1.5205 -1.0474  1.0972
10100TIP3   OH230242   6.205   0.604   2.537  0.4238 -0.7444 -0.0466
10100TIP3    H130243   6.224   0.602   2.444 -1.9266  1.3085 -0.6959
10100TIP3    H230244   6.207   0.697   2.560 -2.0775 -0.9038  1.1735
10101TIP3   OH230245   7.233   7.783   4.974 -0.0796  0.0571  0.2191
10101TIP3    H130246   7.185   7.701   4.971  0.2992 -0.3346  2.9770
10101TIP3    H230247   7.263   7.796   4.883 -0.9185 -2.3404 -0.4748
10102TIP3   OH230248   7.179   2.869   0.830 -0.4579  0.2732 -0.5698
10102TIP3    H130249   7.222   2.953   0.842 -1.2047  0.4026  1.5584
10102TIP3    H230250   7.223   2.810   0.891 -3.2056  0.4221  1.7185
10103TIP3   OH230251   3.451   3.131   4.824 -0.1861 -0.0094 -0.3296
10103TIP3    H130252   3.533   3.082   4.817 -0.4176 -0.5253  0.4937
10103TIP3    H230253   3.420   3.138   4.733  0.7450  0.1736 -0.6460
10104TIP3   OH230254   1.048   3.288   2.869  0.2862 -0.1715 -0.2469
10104TIP3    H130255   1.025   3.247   2.786 -2.7053  0.6769  0.0491
10104TIP3    H230256   1.011   3.230   2.936 -2.3830  1.8634  0.2271
10105TIP3   OH230257   4.143   1.750   1.272 -0.1799 -0.1552  0.5854
10105TIP3    H130258   4.056   1.742   1.233  0.1399 -1.7341  0.1598
10105TIP3    H230259   4.163   1.844   1.265 -0.7591 -0.1435 -1.7024
10106TIP3   OH230260   6.712   5.270   3.794  0.3007  0.0358 -0.4508
10106TIP3    H130261   6.757   5.199   3.839 -0.1641 -1.5819 -2.3856
10106TIP3    H230262   6.750   5.270   3.706 -1.2602  0.7137 -1.1611
10107TIP3   OH230263   3.169   1.035   5.513  0.1771  0.9870  0.4670
10107TIP3    H130264   3.137   1.120   5.484  0.7873  1.0258 -0.1195
10107TIP3    H230265   3.092   0.990   5.547 -0.4437  1.2021 -0.6258
10108TIP3   OH230266   1.472   1.422   3.115 -0.5312 -0.1782 -0.0787
10108TIP3    H130267   1.400   1.463   3.163 -0.2488  0.7993 -0.4573
10108TIP3    H230268   1.528   1.384   3.183  0.1778  1.7091  0.4625
10109TIP3   OH230269   2.251   3.175   1.235  0.4047 -0.1608 -0.0005
10109TIP3    H130270   2.246   3.270   1.232 -0.6232 -0.1411  1.5434
10109TIP3    H230271   2.174   3.146   1.186  1.1715 -0.2458 -1.2110
10110TIP3   OH230272   0.923   2.998   6.612 -0.6142 -0.2028 -0.0549
10110TIP3    H130273   0.887   2.916   6.578 -2.4470  0.4162  0.2489
10110TIP3    H230274   1.016   2.996   6.588 -0.7073 -2.1743 -0.3748
10111TIP3   OH230275   8.099   2.772   2.986  0.5778  0.7491  0.1898
10111TIP3    H130276   8.051   2.851   3.014  1.7376  0.7151  2.4979
10111TIP3    H230277   8.040   2.700   3.009  1.3534  0.7454  2.4311
10112TIP3   OH230278   0.303   3.580   6.259 -0.4771 -0.1836  0.1083
10112TIP3    H130279   0.281   3.598   6.168 -1.0547  0.0630  0.2918
10112TIP3    H230280   0.394   3.550   6.256 -0.2945  0.4013 -0.4866
10113TIP3   OH230281   2.867   1.394   3.201  0.0878  0.1352 -0.3121
10113TIP3    H130282   2.783   1.362   3.169  0.1309  0.9686 -1.3042
10113TIP3    H230283   2.927   1.381   3.127  0.5392  0.6833 -0.0494
10114TIP3   OH230284   6.769   0.472   3.029 -0.1465 -0.2689 -0.2119
10114TIP3    H130285   6.734   0.559   3.052  1.0164  0.3308 -0.6383
10114TIP3    H230286   6.720   0.447   2.950 -1.6360 -0.7546  0.8184
10115TIP3   OH230287   8.196   3.470   0.798 -0.1060  0.4364  0.1639
10115TIP3    H130288   8.205   3.562   0.775  2.0702  0.1112 -0.4846
10115TIP3    H230289   8.286   3.438   0.806 -0.7923 -1.8149 -0.3913
10116TIP3   OH230290   0.406   2.446   1.157 -0.4833 -0.2525 -0.5416
10116TIP3    H130291   0.315   2.472   1.143 -0.6675 -0.4221  0.3083
10116TIP3    H230292   0.400   2.359   1.197  0.0221  0.0562  0.2294
10117TIP3   OH230293   2.896   0.603   5.218  0.1202  0.4508 -0.1552
10117TIP3    H130294   2.919   0.579   5.128 -0.0584  1.8829 -0.5961
10117TIP3    H230295   2.976   0.641   5.255  0.9042 -2.1023  1.0835
10118TIP3   OH230296   1.888   5.756   5.691  0.4495  0.2979 -0.0162
10118TIP3    H130297   1.884   5.661   5.700 -0.1809  0.3499  0.3199
10118TIP3    H230298   1.830   5.789   5.760 -0.7557  0.8759 -1.2678
10119TIP3   OH230299   6.429   5.667   4.614  0.3287  0.3039  0.0650
10119TIP3    H130300   6.337   5.640   4.617  0.3661  0.2414  1.3994
10119TIP3    H230301   6.476   5.589   4.584  0.0452  0.0141  0.3657
10120TIP3   OH230302   8.043   4.731   1.135 -0.2665  0.7335  0.1378
10120TIP3    H130303   8.013   4.738   1.044 -0.0094  0.0819 -0.0040
10120TIP3    H230304   7.964   4.738   1.187 -0.9199 -2.2018 -0.2739
10121TIP3   OH230305   5.946   4.559   6.279  0.5766 -0.1296 -0.4188
10121TIP3    H130306   5.883   4.512   6.225 -0.4866  0.3774  0.3642
10121TIP3    H230307   5.895   4.625   6.326  1.1349 -1.5935  2.4715
10122TIP3   OH230308   7.828   6.269   1.176  0.2835 -0.0092 -0.2919
10122TIP3    H130309   7.855   6.267   1.084 -0.8160 -1.9735 -0.6420
10122TIP3    H230310   7.733   6.262   1.173  0.2047  0.2832  1.0053
10123TIP3   OH230311   2.810   6.769   5.204 -0.7841 -0.8985  0.1199
10123TIP3    H130312   2.777   6.720   5.279 -1.8616 -1.7413 -0.8662
10123TIP3    H230313   2.886   6.719   5.175  0.0957 -0.1626  1.0616
10124TIP3   OH230314   5.703   4.348   5.445 -0.7520 -0.3878 -0.2970
10124TIP3    H130315   5.699   4.427   5.499  2.1975 -0.5652  0.3472
10124TIP3    H230316   5.712   4.380   5.355 -0.6060  0.0111 -0.1413
10125TIP3   OH230317   1.004   0.233   0.853  0.4075  0.6621  0.3044
10125TIP3    H130318   0.972   0.154   0.898 -2.1266  1.5497  0.2174
10125TIP3    H230319   1.041   0.199   0.771 -2.7870 -0.3913 -0.8652
10126TIP3   OH230320   7.885   5.736   0.451  0.3871  0.3357  0.5921
10126TIP3    H130321   7.919   5.658   0.407 -0.6725  0.6593 -0.8783
10126TIP3    H230322   7.828   5.701   0.520 -0.4771 -0.2267 -0.3735
10127TIP3   OH230323   5.123   4.464   5.439 -0.6332  0.2497 -0.6073
10127TIP3    H130324   5.214   4.434   5.438 -0.8693 -0.6075 -2.5522
10127TIP3    H230325   5.120   4.530   5.508  1.2444 -0.3321  0.1032
10128TIP3   OH230326   8.208   2.274   3.171  0.0121  0.1863 -0.2490
10128TIP3    H130327   8.255   2.266   3.253  0.2998  0.2750 -0.4059
10128TIP3    H230328   8.142   2.204   3.174 -1.3644  1.4697  0.9634
10129TIP3   OH230329   4.108   0.795   2.140  0.0325 -0.8625 -0.3844
10129TIP3    H130330   4.056   0.845   2.204 -1.2641 -1.5845 -0.8302
10129TIP3    H230331   4.194   0.786   2.181 -0.4400 -0.3634  0.7725
10130TIP3   OH230332   7.960   3.408   3.775  0.5008  0.4562 -0.0647
10130TIP3    H130333   7.913   3.477   3.727  1.2582  0.7972 -0.3327
10130TIP3    H230334   8.049   3.412   3.741  1.3299  1.3540  2.0309
10131TIP3   OH230335   5.429   4.470   4.900 -0.1182 -0.5853  0.0269
10131TIP3    H130336   5.408   4.454   4.808  0.2167  0.0911 -0.1760
10131TIP3    H230337   5.479   4.393   4.927 -2.3413 -1.9724  0.3648
10132TIP3   OH230338   4.466   3.228   0.579 -0.5336  0.2826  0.1093
10132TIP3    H130339   4.467   3.169   0.504  1.1738  0.1847  0.1881
10132TIP3    H230340   4.475   3.315   0.540  0.7182  0.2072  0.1962
10133TIP3   OH230341   4.085   4.968   0.414 -0.0621  0.2998  0.3936
10133TIP3    H130342   4.043   5.036   0.466  1.3177 -0.6180  2.8929
10133TIP3    H230343   4.014   4.926   0.366 -1.1759  2.2593  0.2616
10134TIP3   OH230344   0.423   6.383   3.060  0.0263  0.6792  0.0988
10134TIP3    H130345   0.451   6.364   3.150 -0.6559  0.2498  0.2289
10134TIP3    H230346   0.329   6.397   3.067  0.3957  4.2039  0.0311
10135TIP3   OH230347   2.583   7.074   4.580  0.1739 -0.4410 -0.1571
10135TIP3    H130348   2.637   7.034   4.647  0.4739 -1.8375 -1.1787
10135TIP3    H230349   2.502   7.023   4.581 -1.2964  1.7623  1.5067
10136TIP3   OH230350   2.501   3.179   2.125 -0.4658  0.4711 -0.4787
10136TIP3    H130351   2.489   3.232   2.045  0.1969  0.1960 -0.7665
10136TIP3    H230352   2.422   3.195   2.176 -0.9527  0.5589 -1.2472
10137TIP3   OH230353   0.879   0.656   5.436  0.3656  0.1248 -0.5340
10137TIP3    H130354   0.937   0.719   5.478 -0.8957  1.6525 -0.9856
10137TIP3    H230355   0.791   0.692   5.448 -0.3008 -0.9854 -1.7697
10138TIP3   OH230356   0.633   7.570   0.886  0.1347  0.3119  0.1051
10138TIP3    H130357   0.574   7.597   0.957 -1.5092 -0.3644 -0.9547
10138TIP3    H230358   0.616   7.477   0.876  1.5695  0.0575 -0.1012
10139TIP3   OH230359   1.201   2.111   4.603 -0.5766  0.0215  0.0964
10139TIP3    H130360   1.279   2.107   4.659 -1.2306  0.4888  1.0577
10139TIP3    H230361   1.170   2.020   4.599 -0.1011 -0.1343 -0.1261
10140TIP3   OH230362   3.852   4.808   6.029 -0.1173 -0.0441 -0.5642
10140TIP3    H130363   3.808   4.893   6.019  1.1682  0.6829 -0.2695
10140TIP3    H230364   3.917   4.823   6.097  1.3014 -0.7701 -1.7099
10141TIP3   OH230365   4.587   4.707   2.220 -0.5351 -0.1561 -0.8180
10141TIP3    H130366   4.626   4.794   2.224 -0.2252 -0.3295  0.9736
10141TIP3    H230367   4.588   4.676   2.311 -0.1846 -2.2312 -1.4688
10142TIP3   OH230368   2.296   1.895   3.005  0.3001 -0.3273 -0.9753
10142TIP3    H130369   2.309   1.927   2.916  0.6586 -1.0887 -1.2095
10142TIP3    H230370   2.262   1.806   2.993 -1.8168  0.3554 -0.3519
10143TIP3   OH230371   4.550   5.722   4.277  0.3006  1.0014 -0.3450
10143TIP3    H130372   4.508   5.753   4.197 -1.9548  0.5968  0.5924
10143TIP3    H230373   4.616   5.660   4.248 -1.4768 -0.2734 -1.8757
10144TIP3   OH230374   4.754   3.964   4.661 -0.0471 -0.5792  0.5718
10144TIP3    H130375   4.826   4.022   4.636 -0.5845 -0.8575 -1.8778
10144TIP3    H230376   4.676   4.019   4.659 -0.2264 -0.8246  0.7351
10145TIP3   OH230377   5.765   7.386   1.809 -0.1661 -0.4349  0.0558
10145TIP3    H130378   5.816   7.325   1.756  0.3876 -1.3837  1.5975
10145TIP3    H230379   5.675   7.372   1.781  0.1382 -0.7070 -0.8234
10146TIP3   OH230380   0.653   4.239   3.503  0.8649 -0.3304 -0.9222
10146TIP3    H130381   0.592   4.301   3.463 -0.4386 -2.3903 -2.3704
10146TIP3    H230382   0.596   4.169   3.535  2.0905  0.0739  2.5033
10147TIP3   OH230383   0.488   4.967   2.491 -0.5718  0.1736  0.1939
10147TIP3    H130384   0.568   4.950   2.541 -0.1561  0.2807 -0.4233
10147TIP3    H230385   0.518   4.976   2.401 -1.2852  0.2089 -0.0446
10148TIP3   OH230386   0.091   0.268   2.168 -0.2318  0.3284  0.0275
10148TIP3    H130387   0.136   0.324   2.106 -1.0992  1.0818  0.0571
10148TIP3    H230388   0.002   0.303   2.173 -0.5319 -0.4770  0.7526
10149TIP3   OH230389   2.237   0.553   4.781 -0.2961  0.2191  0.5783
10149TIP3    H130390   2.331   0.560   4.763  0.3204 -3.4748  1.6210
10149TIP3    H230391   2.195   0.596   4.706  2.1943  0.9875 -0.4824
10150TIP3   OH230392   6.474   1.694   5.078  0.5044 -0.1619  0.1104
10150TIP3    H130393   6.399   1.741   5.115 -0.2268 -0.0907 -1.4090
10150TIP3    H230394   6.494   1.740   4.996  2.1070 -0.2955  0.3896
10151TIP3   OH230395   1.629   7.520   3.944 -0.0577 -0.2509  0.0792
10151TIP3    H130396   1.558   7.540   3.883 -1.4412 -0.0620  1.6832
10151TIP3    H230397   1.646   7.603   3.989  1.0322 -0.3554 -0.1129
10152TIP3   OH230398   8.217   1.837   5.208  0.7425  0.3558  0.4075
10152TIP3    H130399   8.144   1.899   5.207  0.1992 -0.2691  0.9637
10152TIP3    H230400   8.271   1.863   5.134 -1.8371 -1.3159 -2.2891
10153TIP3   OH230401   8.257   1.274   4.751 -0.6156  0.1213  0.2269
10153TIP3    H130402   8.297   1.322   4.824 -0.2892 -0.7344  0.6239
10153TIP3    H230403   8.314   1.290   4.676 -0.1929 -0.1101  0.4966
10154TIP3   OH230404   3.287   2.736   4.546  0.3298  0.5386  0.1336
10154TIP3    H130405   3.337   2.677   4.490  0.9973  0.2807  0.9965
10154TIP3    H230406   3.196   2.726   4.517  0.9298  2.7093 -3.0496
10155TIP3   OH230407   5.499   4.885   1.427 -0.1369 -0.0627  0.2868
10155TIP3    H130408   5.592   4.905   1.414 -0.1786  0.2300  0.4506
10155TIP3    H230409   5.488   4.797   1.389 -0.2734  0.8017 -1.8219
10156TIP3   OH230410   7.039   1.412   3.786  0.4016  0.0839 -0.2680
10156TIP3    H130411   7.009   1.414   3.695 -1.4958  1.0639  0.3200
10156TIP3    H230412   7.006   1.329   3.820  0.4597  0.0563 -0.2795
10157TIP3   OH230413   5.638   1.506   6.246 -0.4965  0.3019  0.3317
10157TIP3    H130414   5.634   1.458   6.163  1.1941  0.0889  0.3354
10157TIP3    H230415   5.717   1.560   6.238 -0.8662  1.0334  1.4197
10158TIP3   OH230416   6.482   5.984   5.679  0.0209  0.2119 -0.2211
10158TIP3    H130417   6.429   5.906   5.663 -0.0314  0.3764 -0.8699
10158TIP3    H230418   6.573   5.953   5.674  0.0274  0.4093 -1.7158
10159TIP3   OH230419   0.705   1.313   2.545  0.5035 -0.4873  0.2310
10159TIP3    H130420   0.787   1.286   2.587  0.3848 -0.2528  0.6192
10159TIP3    H230421   0.638   1.298   2.611  0.3677  0.2602  0.2724
10160TIP3   OH230422   1.647   5.088   5.210  0.0872  0.3227 -0.2245
10160TIP3    H130423   1.553   5.103   5.205  0.3683  3.5681  1.5583
10160TIP3    H230424   1.684   5.142   5.141  0.6878 -2.0019 -1.8485
10161TIP3   OH230425   4.659   2.465   5.136  0.3050  0.5674 -0.3831
10161TIP3    H130426   4.743   2.438   5.173  0.9107  1.8196 -0.7872
10161TIP3    H230427   4.660   2.429   5.047  0.1979  0.1625 -0.2202
10162TIP3   OH230428   6.023   2.971   3.759  0.0412  0.5434 -0.2282
10162TIP3    H130429   5.950   3.004   3.811 -1.4034 -0.0273 -1.7782
10162TIP3    H230430   6.091   3.038   3.768  0.7032 -0.4115  3.8854
10163TIP3   OH230431   4.353   6.185   0.185  0.1594 -0.1430  0.8757
10163TIP3    H130432   4.413   6.120   0.222 -0.5927 -0.0863  2.2573
10163TIP3    H230433   4.379   6.268   0.225 -1.2887 -0.2375  2.1091
10164TIP3   OH230434   4.867   3.545   2.284 -0.3765 -0.4489 -0.0744
10164TIP3    H130435   4.857   3.586   2.198  1.7632  0.3567  0.0005
10164TIP3    H230436   4.788   3.569   2.332 -0.7580  0.6574 -1.2050
10165TIP3   OH230437   7.326   1.242   3.590 -0.2793 -0.1370  0.0492
10165TIP3    H130438   7.268   1.238   3.665 -1.0290 -1.0254 -0.5439
10165TIP3    H230439   7.385   1.315   3.608 -0.9325  0.1425  1.1309
10166TIP3   OH230440   6.224   6.635   1.981 -0.4559 -0.2664  0.5767
10166TIP3    H130441   6.276   6.671   2.053 -0.2900 -1.8349  1.2962
10166TIP3    H230442   6.236   6.540   1.989 -2.1643 -0.5818 -0.2136
10167TIP3   OH230443   1.369   2.674   3.707 -0.6900  0.7967 -0.2647
10167TIP3    H130444   1.440   2.610   3.709  0.7805  2.3705  0.2318
10167TIP3    H230445   1.299   2.635   3.759  0.4625 -0.0818  0.6731
10168TIP3   OH230446   5.237   2.844   0.177  0.1722 -0.1636 -0.3473
10168TIP3    H130447   5.191   2.893   0.245  1.2603  1.9695 -1.0745
10168TIP3    H230448   5.167   2.798   0.129 -0.8299  0.2549  0.6683
10169TIP3   OH230449   5.362   1.031   5.294  0.2683  0.0507  0.6224
10169TIP3    H130450   5.391   1.042   5.385  0.8811  2.2304  0.2213
10169TIP3    H230451   5.327   1.117   5.270  0.0444 -0.5134 -1.1836
10170TIP3   OH230452   3.031   3.997   1.767  0.0299  0.0157  0.8404
10170TIP3    H130453   3.092   3.924   1.779 -1.0665 -0.9116  0.9568
10170TIP3    H230454   2.981   3.974   1.689 -2.3773 -0.9037  2.5419
10171TIP3   OH230455   1.022   7.420   4.851 -0.5107  0.3271 -0.1278
10171TIP3    H130456   1.023   7.510   4.817 -1.3487 -0.3996 -2.2102
10171TIP3    H230457   0.929   7.395   4.848 -0.8514  0.5438  3.8432
10172TIP3   OH230458   4.498   1.162   0.477  0.5930 -0.0249  0.1595
10172TIP3    H130459   4.500   1.254   0.452 -0.8503 -0.0585 -0.1577
10172TIP3    H230460   4.405   1.141   0.484  0.9106 -1.3232  0.7371
10173TIP3   OH230461   2.131   1.205   0.675  0.0079 -0.7568 -0.2276
10173TIP3    H130462   2.053   1.213   0.730  1.8775  0.5977  2.4965
10173TIP3    H230463   2.173   1.124   0.704  0.6418 -0.4208 -0.1885
10174TIP3   OH230464   1.159   5.791   5.921 -0.5490  0.0595  0.0640
10174TIP3    H130465   1.233   5.768   5.977 -2.3995  0.0554  2.7167
10174TIP3    H230466   1.150   5.718   5.860 -1.1818 -2.3771  2.8162
10175TIP3   OH230467   4.245   5.236   1.535  0.2657  0.0364  0.0145
10175TIP3    H130468   4.198   5.207   1.613 -2.2923  3.5657  0.0364
10175TIP3    H230469   4.324   5.278   1.568 -0.2214  0.4766  0.6407
10176TIP3   OH230470   3.144   6.365   4.332  0.2632 -0.1659  0.0838
10176TIP3    H130471   3.120   6.359   4.424 -0.8648  0.9096 -0.1075
10176TIP3    H230472   3.082   6.428   4.295  0.7680 -0.4857 -1.3874
10177TIP3   OH230473   5.634   2.646   6.222  0.1424  0.3365 -0.6657
10177TIP3    H130474   5.671   2.617   6.305 -2.7466  2.6288  1.6708
10177TIP3    H230475   5.686   2.724   6.199  0.1526  0.4417 -0.2977
10178TIP3   OH230476   7.667   5.599   2.799  0.2632 -0.0827  0.0870
10178TIP3    H130477   7.690   5.539   2.870 -0.6669 -0.6579 -0.0748
10178TIP3    H230478   7.581   5.569   2.770 -1.9011  3.3620  2.2387
10179TIP3   OH230479   6.605   5.341   5.074  0.1767  0.0909  0.4539
10179TIP3    H130480   6.541   5.282   5.115  0.9799 -1.3524 -0.2743
10179TIP3    H230481   6.684   5.332   5.128  0.5353 -0.0838 -0.0931
10180TIP3   OH230482   1.132   1.879   0.751  0.1609 -0.1468 -0.5946
10180TIP3    H130483   1.156   1.824   0.825 -0.8737 -0.0484 -0.1705
10180TIP3    H230484   1.085   1.822   0.692  0.4760 -0.0846 -0.9120
10181TIP3   OH230485   1.636   6.937   2.215  0.0141  0.1871  0.1348
10181TIP3    H130486   1.639   6.996   2.140  1.0219  0.8098  0.6495
10181TIP3    H230487   1.569   6.974   2.272  0.7311  0.9306  0.5155
10182TIP3   OH230488   7.390   5.467   2.758 -0.0518  0.3480  0.0769
10182TIP3    H130489   7.312   5.483   2.811 -0.5311 -2.6833  0.4419
10182TIP3    H230490   7.449   5.418   2.816  0.8888 -0.0018 -1.1253
10183TIP3   OH230491   3.717   0.740   0.726 -0.3576  0.1326  0.4453
10183TIP3    H130492   3.802   0.716   0.762 -0.0166  0.2161 -0.2830
10183TIP3    H230493   3.709   0.688   0.646 -0.8020  0.4483  0.2793
10184TIP3   OH230494   0.239   5.443   5.629  0.3535  0.3607 -0.1492
10184TIP3    H130495   0.193   5.456   5.712  0.4311 -2.3089  0.3855
10184TIP3    H230496   0.171   5.410   5.569  0.9496 -0.8414 -0.1849
10185TIP3   OH230497   6.402   0.453   5.144  0.7775  0.2832 -0.4717
10185TIP3    H130498   6.444   0.409   5.070 -0.1515 -0.8567 -0.3522
10185TIP3    H230499   6.465   0.443   5.216  1.0881  0.1965 -0.7488
10186TIP3   OH230500   2.744   6.907   6.661  0.0184 -0.3025 -0.0811
10186TIP3    H130501   2.831   6.868   6.670 -0.5060 -1.2447  1.1715
10186TIP3    H230502   2.683   6.833   6.669 -0.9582  0.5747  0.9100
10187TIP3   OH230503   0.976   2.328   3.031 -0.3581 -0.4373  0.2934
10187TIP3    H130504   0.963   2.363   3.119  1.8176  0.6796  0.2289
10187TIP3    H230505   1.016   2.242   3.045 -0.4972 -0.4853  0.3978
10188TIP3   OH230506   3.605   0.585   1.085 -0.0104 -0.5634 -0.0360
10188TIP3    H130507   3.526   0.625   1.048  0.5495  1.5508  0.8938
10188TIP3    H230508   3.576   0.546   1.168 -0.5944 -2.3665 -1.0275
10189TIP3   OH230509   6.441   5.489   4.887 -0.3238 -0.1516 -0.2375
10189TIP3    H130510   6.492   5.472   4.966 -1.2051  0.4430  0.4730
10189TIP3    H230511   6.507   5.504   4.819  0.5479  3.0117  1.1594
10190TIP3   OH230512   7.605   3.162   2.352  0.3052 -0.5644 -0.2093
10190TIP3    H130513   7.519   3.144   2.315 -0.0797  1.0020 -0.1561
10190TIP3    H230514   7.630   3.081   2.396 -0.9693 -1.1616 -0.5345
10191TIP3   OH230515   7.768   6.218   5.795 -0.6810 -0.7302 -0.1343
10191TIP3    H130516   7.761   6.274   5.718  2.1284  0.3059  0.2555
10191TIP3    H230517   7.678   6.199   5.819 -1.6534 -0.1192 -2.9616
10192TIP3   OH230518   3.469   1.096   2.006 -0.8218 -0.1163 -0.1348
10192TIP3    H130519   3.489   1.132   1.919 -0.5452  0.4477  0.1545
10192TIP3    H230520   3.554   1.077   2.045 -0.7671  2.0726  1.0107
10193TIP3   OH230521   7.651   0.422   0.014  0.0370  0.2617 -0.4957
10193TIP3    H130522   7.693   0.427   0.101  0.2103 -3.1192 -0.2446
10193TIP3    H230523   7.725   0.419  -0.047  0.0600 -0.7013 -0.4431
10194TIP3   OH230524   3.466   3.504   2.319 -0.4518  0.2142  0.9182
10194TIP3    H130525   3.451   3.512   2.413 -0.2858 -0.8814  1.0515
10194TIP3    H230526   3.538   3.564   2.301 -0.8460  0.8378  1.3897
10195TIP3   OH230527   5.308   4.483   1.615 -0.1774 -0.4152  0.7178
10195TIP3    H130528   5.307   4.392   1.584  0.2662 -0.7024  1.4953
10195TIP3    H230529   5.220   4.498   1.650 -0.7454 -0.0213 -0.8114
10196TIP3   OH230530   2.033   4.668   6.204 -0.4288 -0.1600 -0.6350
10196TIP3    H130531   1.976   4.608   6.253  0.8823 -1.0097 -0.0968
10196TIP3    H230532   2.047   4.625   6.120 -0.4423 -0.0230 -0.7085
10197TIP3   OH230533   3.763   5.914   5.970 -0.1180  0.5459  0.0896
10197TIP3    H130534   3.775   5.996   6.017  0.9015  0.5478 -0.1507
10197TIP3    H230535   3.683   5.928   5.918 -1.0259  0.6877  1.4715
10198TIP3   OH230536   2.887   1.103   1.185  0.1753 -0.3504  0.3667
10198TIP3    H130537   2.935   1.181   1.213 -0.5162  0.3670 -0.3857
10198TIP3    H230538   2.834   1.079   1.261  1.4971 -1.0018  1.1197
10199TIP3   OH230539   6.642   1.349   6.242  0.2367 -0.0649  0.4260
10199TIP3    H130540   6.621   1.363   6.335  0.8500 -0.4080  0.6226
10199TIP3    H230541   6.633   1.435   6.202  1.6857  0.4453  1.1515
10200TIP3   OH230542   6.569   5.211   0.408 -0.1704 -0.0821 -0.0853
10200TIP3    H130543   6.559   5.136   0.349 -1.5077 -0.5957  0.7310
10200TIP3    H230544   6.489   5.263   0.393 -1.0810 -0.7851  1.9804
10201TIP3   OH230545   2.223   6.962   5.834 -0.4401  0.3132  0.0158
10201TIP3    H130546   2.198   6.916   5.754  0.3897  0.4737 -0.3425
10201TIP3    H230547   2.315   6.984   5.822 -0.0380 -0.4774  1.4072
10202TIP3   OH230548   5.800   5.966   2.879 -0.6538 -0.2703 -0.2508
10202TIP3    H130549   5.816   5.875   2.854  0.4526 -0.1400 -0.0453
10202TIP3    H230550   5.817   6.017   2.800  0.0225 -0.1207 -0.0090
10203TIP3   OH230551   8.188   1.308   6.403  0.3430 -1.1753  0.0352
10203TIP3    H130552   8.182   1.220   6.364  1.7589 -1.8843  1.3304
10203TIP3    H230553   8.265   1.346   6.362 -0.2507 -0.5045 -0.4986
10204TIP3   OH230554   8.046   5.833   3.762 -0.2373 -0.4709 -0.4640
10204TIP3    H130555   8.137   5.814   3.739  0.1969  0.4178  0.4454
10204TIP3    H230556   8.002   5.847   3.678  0.1885 -2.0280 -0.9710
10205TIP3   OH230557   2.680   0.429   2.849 -0.3816  0.1019  0.2593
10205TIP3    H130558   2.706   0.434   2.757 -1.7326 -0.6805 -0.1839
10205TIP3    H230559   2.586   0.413   2.847 -0.6525  1.2711  1.8066
10206TIP3   OH230560   0.870   2.943   3.120 -0.1494  0.6457  0.0155
10206TIP3    H130561   0.850   2.871   3.180 -0.2929  2.0453  1.7360
10206TIP3    H230562   0.785   2.980   3.098 -0.0689  0.3740 -0.7752
10207TIP3   OH230563   2.259   1.179   5.629  0.4401 -0.0291  0.9388
10207TIP3    H130564   2.291   1.267   5.650  0.3773  0.3816 -0.5559
10207TIP3    H230565   2.320   1.147   5.563  0.7017 -1.2988  1.7548
10208TIP3   OH230566   0.254   2.730   5.239  0.5305 -0.7425 -0.0162
10208TIP3    H130567   0.311   2.696   5.170  1.9242  0.3839  0.5483
10208TIP3    H230568   0.309   2.790   5.289 -1.3422  0.9858  0.0986
10209TIP3   OH230569   7.158   0.927   6.366 -0.1863 -0.3729  0.2485
10209TIP3    H130570   7.146   1.013   6.325  2.1789  0.1258  0.4842
10209TIP3    H230571   7.120   0.866   6.303  1.6524  0.5240 -1.9044
10210TIP3   OH230572   1.041   3.164   4.244 -0.2777 -0.3478 -0.2096
10210TIP3    H130573   0.949   3.190   4.236 -0.0551  0.6211  0.2266
10210TIP3    H230574   1.089   3.227   4.190  0.2082 -0.2628  0.3114
10211TIP3   OH230575   2.176   1.311   0.989 -0.0441 -0.6714  0.1300
10211TIP3    H130576   2.102   1.353   0.945  0.3923  0.7330  0.6827
10211TIP3    H230577   2.234   1.383   1.012  0.5853 -1.5550  1.4192
10212TIP3   OH230578   1.632   4.326   1.018  0.7821 -0.7919  0.2489
10212TIP3    H130579   1.610   4.398   1.077  1.7773 -0.8024  0.6461
10212TIP3    H230580   1.600   4.247   1.063 -0.6204 -0.5938 -0.3431
10213TIP3   OH230581   4.480   4.557   4.973  0.1123 -0.0049 -0.0114
10213TIP3    H130582   4.410   4.615   5.003  0.7147  0.2017  1.0171
10213TIP3    H230583   4.448   4.523   4.889 -1.0555  0.3631  0.2678
10214TIP3   OH230584   7.106   0.472   1.327 -0.5860 -0.0119  0.3255
10214TIP3    H130585   7.141   0.406   1.267  0.7523  0.6250  0.3677
10214TIP3    H230586   7.157   0.462   1.407 -1.3572  0.1237  0.8459
10215TIP3   OH230587   5.815   7.709   2.509 -0.6650  0.0362  0.5564
10215TIP3    H130588   5.867   7.774   2.556  1.6455 -0.3480 -1.3104
10215TIP3    H230589   5.855   7.625   2.531 -0.1407 -0.2338 -1.2452
10216TIP3   OH230590   8.146   5.565   1.474  0.3082  0.5992 -0.2851
10216TIP3    H130591   8.208   5.577   1.546 -0.1504  0.5417  0.1322
10216TIP3    H230592   8.137   5.652   1.435  2.8907  0.0772 -2.2695
10217TIP3   OH230593   0.458   7.181   0.381 -0.1200  0.0393 -0.4903
10217TIP3    H130594   0.534   7.235   0.403 -0.7786  0.4892  0.6958
10217TIP3    H230595   0.474   7.156   0.289  1.0195  0.8415 -0.5410
10218TIP3   OH230596   6.785   4.414   2.994  0.3698  0.1870 -0.0937
10218TIP3    H130597   6.826   4.389   2.911 -0.2564  1.2779 -0.7536
10218TIP3    H230598   6.742   4.334   3.024 -0.9571  0.2031 -1.7665
10219TIP3   OH230599   6.182   2.574   5.134 -0.0647 -0.0474 -0.3905
10219TIP3    H130600   6.227   2.655   5.108 -0.8981 -0.0227 -1.8371
10219TIP3    H230601   6.099   2.576   5.086 -0.5303 -1.3001  0.3137
10220TIP3   OH230602   1.988   5.275   2.034 -0.0403  0.0154 -0.0254
10220TIP3    H130603   1.997   5.367   2.008 -0.3019 -0.4050 -1.6823
10220TIP3    H230604   1.910   5.274   2.090  1.4253  1.1925  2.2465
10221TIP3   OH230605   1.245   4.127   3.138 -0.2944  0.1074 -0.2490
10221TIP3    H130606   1.308   4.060   3.112  1.2530  0.7418  1.5708
10221TIP3    H230607   1.209   4.159   3.056  0.6900 -1.2971 -1.2851
10222TIP3   OH230608   1.569   3.560   4.708 -0.0228 -0.0039  0.3902
10222TIP3    H130609   1.625   3.615   4.653 -1.2695  1.9963  1.0311
10222TIP3    H230610   1.616   3.477   4.714  0.5827 -0.0273 -2.9558
10223TIP3   OH230611   6.877   0.604   2.099 -0.0038  0.2375  0.1019
10223TIP3    H130612   6.800   0.573   2.147  1.0868 -0.8993  1.2096
10223TIP3    H230613   6.938   0.530   2.102  1.3909  1.3313 -0.1709
10224TIP3   OH230614   1.450   5.591   3.529 -0.5337 -0.4627  0.2202
10224TIP3    H130615   1.464   5.521   3.594  1.3342  1.2095  1.7348
10224TIP3    H230616   1.417   5.665   3.581 -1.1821  0.2352 -1.1301
10225TIP3   OH230617   7.223   5.493   3.209 -0.0559 -0.8622 -0.2256
10225TIP3    H130618   7.146   5.491   3.266 -0.2824 -0.9474 -0.5323
10225TIP3    H230619   7.235   5.402   3.182  1.2358 -1.1606  1.2532
10226TIP3   OH230620   4.707   6.987   5.163 -0.6163  0.5248  0.1321
10226TIP3    H130621   4.728   6.906   5.208  0.9813  0.2076 -1.1230
10226TIP3    H230622   4.659   7.039   5.229 -0.4808 -0.8641  1.3752
10227TIP3   OH230623   2.921   4.232   6.446  0.1400  0.3523  0.1980
10227TIP3    H130624   2.927   4.234   6.350 -0.8691 -0.5781  0.1002
10227TIP3    H230625   3.005   4.266   6.476 -0.4376  3.1271 -1.0105
10228TIP3   OH230626   5.874   0.051   3.977  0.0660 -0.2449 -0.6503
10228TIP3    H130627   5.795   0.103   3.988 -0.5621 -0.9139 -1.7662
10228TIP3    H230628   5.929   0.104   3.918 -1.1972 -1.4128 -3.0063
10229TIP3   OH230629   1.725   5.294   1.171 -0.3883  0.1431 -0.6782
10229TIP3    H130630   1.658   5.231   1.200  0.1816  0.0539  0.5276
10229TIP3    H230631   1.789   5.240   1.124 -0.3684 -0.0249 -0.4608
10230TIP3   OH230632   5.889   7.268   0.946  0.1080  0.1947  0.5481
10230TIP3    H130633   5.880   7.361   0.965  0.9521  0.0408  1.8022
10230TIP3    H230634   5.844   7.256   0.862 -0.8623  1.5418  0.8433
10231TIP3   OH230635   4.683   1.318   3.192  0.8396  0.5311  0.0373
10231TIP3    H130636   4.705   1.232   3.227  0.0789  0.1469 -0.3845
10231TIP3    H230637   4.702   1.311   3.098 -1.5076 -0.0250 -0.4685
10232TIP3   OH230638   2.417   3.116   5.056 -0.2198 -0.0020 -0.1944
10232TIP3    H130639   2.391   3.195   5.009 -1.4277 -1.3044 -1.8987
10232TIP3    H230640   2.474   3.070   4.994  0.0311 -0.7138  0.5514
10233TIP3   OH230641   5.742   2.970   3.114  0.7796  0.4704 -0.0102
10233TIP3    H130642   5.712   2.903   3.054  3.5935 -0.1459 -0.8686
10233TIP3    H230643   5.818   3.009   3.071  0.6561  2.6094  1.5208
10234TIP3   OH230644   2.316   5.392   0.487  0.1853  0.5966 -0.4795
10234TIP3    H130645   2.311   5.416   0.395 -0.7276  0.4443 -0.4806
10234TIP3    H230646   2.300   5.473   0.535  0.0067  0.5513 -0.4618
10235TIP3   OH230647   5.763   1.560   4.710  0.0979 -0.1553  0.1725
10235TIP3    H130648   5.698   1.492   4.693  0.5813 -0.5012 -0.2991
10235TIP3    H230649   5.814   1.566   4.629  0.8501 -0.0991  0.6445
10236TIP3   OH230650   0.703   7.120   5.571 -0.1569 -0.3079  0.0155
10236TIP3    H130651   0.741   7.127   5.483  1.0202  0.0546  0.5334
10236TIP3    H230652   0.767   7.163   5.628  0.7672 -3.3447  1.5276
10237TIP3   OH230653   3.593   1.273   6.713  0.0431  0.1203  0.0935
10237TIP3    H130654   3.514   1.220   6.723 -0.5742  1.0536  0.3039
10237TIP3    H230655   3.618   1.262   6.622 -0.1241 -0.4716  0.1166
10238TIP3   OH230656   0.594   5.026   2.229 -0.4380 -0.0992  0.2079
10238TIP3    H130657   0.519   5.073   2.191  0.0644  0.0210 -0.6616
10238TIP3    H230658   0.634   4.981   2.155 -0.6366 -1.5490  0.9470
10239TIP3   OH230659   5.735   3.875   6.682  0.1213  0.2104 -0.4640
10239TIP3    H130660   5.791   3.817   6.734  0.5365 -0.2445 -1.3925
10239TIP3    H230661   5.782   3.959   6.680  1.0502 -0.2979 -1.6296
10240TIP3   OH230662   2.534   1.327   2.689  0.8752 -0.2842 -0.4416
10240TIP3    H130663   2.507   1.279   2.767  2.2718 -1.8125 -0.8304
10240TIP3    H230664   2.494   1.413   2.698 -0.7950 -1.1485  0.8573
10241TIP3   OH230665   1.123   6.498   3.537 -0.9808 -0.1565 -0.2244
10241TIP3    H130666   1.055   6.448   3.582 -1.1544  0.3848  0.1113
10241TIP3    H230667   1.144   6.445   3.460 -3.7072  0.9179 -1.8395
10242TIP3   OH230668   2.611   3.737   3.311  0.3093  0.3299 -0.2483
10242TIP3    H130669   2.578   3.802   3.249 -2.7699  1.0130  1.9237
10242TIP3    H230670   2.548   3.666   3.308  0.8874 -0.2728  1.0286
10243TIP3   OH230671   4.328   7.473   6.553 -0.2570 -0.8326  0.7957
10243TIP3    H130672   4.335   7.518   6.469 -2.0508 -0.9756  0.5400
10243TIP3    H230673   4.386   7.398   6.545  1.0130  0.1454  0.3907
10244TIP3   OH230674   3.335   1.633   1.137  0.0180  0.1816  0.1589
10244TIP3    H130675   3.292   1.658   1.219 -0.1535  1.3825 -0.2649
10244TIP3    H230676   3.412   1.690   1.132  1.1977 -1.3435  0.4827
10245TIP3   OH230677   4.283   1.375   5.569  0.2459 -0.4380  0.4499
10245TIP3    H130678   4.330   1.401   5.649  1.1808 -0.0479 -0.2028
10245TIP3    H230679   4.342   1.315   5.525 -0.3715 -0.8406  0.1637
10246TIP3   OH230680   6.420   4.292   3.404  0.7729 -0.3321  0.3779
10246TIP3    H130681   6.425   4.221   3.341 -0.9167  0.5509 -0.8292
10246TIP3    H230682   6.477   4.264   3.476  3.6410 -0.9213 -1.9120
10247TIP3   OH230683   0.895   2.637   2.994  0.5646  0.3326 -0.5010
10247TIP3    H130684   0.990   2.638   3.007  0.6128 -2.1974 -0.2231
10247TIP3    H230685   0.860   2.595   3.072 -0.5906 -0.6816 -1.5284
10248TIP3   OH230686   6.449   3.150   5.607  0.0439 -0.2076  0.3374
10248TIP3    H130687   6.499   3.122   5.683  3.0659 -0.7464 -1.6827
10248TIP3    H230688   6.408   3.069   5.574  1.3743 -0.6361 -0.3561
10249TIP3   OH230689   2.685   4.408   2.394  0.1434 -0.5687  0.3500
10249TIP3    H130690   2.626   4.483   2.401 -0.2166 -0.5603 -2.0300
10249TIP3    H230691   2.741   4.428   2.319 -0.5027 -2.9774 -0.8942
10250TIP3   OH230692   4.018   4.006   2.709  0.3557 -0.8090  0.1192
10250TIP3    H130693   3.956   4.009   2.636 -0.5193  2.7957  0.8058
10250TIP3    H230694   3.963   3.989   2.786 -0.0433  2.6765  0.7716
10251TIP3   OH230695   6.900   6.624   1.479  0.2320  0.0933 -0.2335
10251TIP3    H130696   6.963   6.694   1.465 -1.2651  1.3526 -1.0565
10251TIP3    H230697   6.935   6.550   1.430  1.2135  0.6602 -0.4185
10252TIP3   OH230698   4.388   7.204   1.635 -0.8449  0.0167 -0.3873
10252TIP3    H130699   4.450   7.210   1.707  0.9020 -1.2011 -1.6973
10252TIP3    H230700   4.409   7.280   1.580 -2.9370  1.6025  0.8548
10253TIP3   OH230701   3.835   5.172   0.758  0.1067 -0.3301  0.1613
10253TIP3    H130702   3.810   5.260   0.785 -1.5115 -0.3874 -0.9395
10253TIP3    H230703   3.760   5.117   0.783  1.3839 -1.5571  1.4877
10254TIP3   OH230704   0.085   6.754   2.244 -0.1099  0.5913  0.3850
10254TIP3    H130705   0.119   6.837   2.278 -0.3351  0.9188 -0.1702
10254TIP3    H230706   0.037   6.779   2.165  2.1864 -0.3432 -1.4164
10255TIP3   OH230707   6.422   1.368   3.915 -0.0457  0.3484 -0.2553
10255TIP3    H130708   6.450   1.372   3.824 -0.1436 -0.1862 -0.3141
10255TIP3    H230709   6.335   1.328   3.911 -0.9158  2.0998 -0.0910
10256TIP3   OH230710   2.034   6.257   6.633 -0.4174  0.1989 -0.2695
10256TIP3    H130711   2.017   6.320   6.704 -0.3832  0.8596 -0.8396
10256TIP3    H230712   2.019   6.307   6.553 -1.0270 -0.7014 -0.7310
10257TIP3   OH230713   3.749   1.792   1.460 -0.4876  0.3425 -0.3554
10257TIP3    H130714   3.779   1.801   1.370 -0.7043  0.4487 -0.4190
10257TIP3    H230715   3.690   1.867   1.473 -0.0200  0.6378  0.0558
10258TIP3   OH230716   7.743   3.120   4.851 -0.0642  0.0152 -0.1948
10258TIP3    H130717   7.738   3.196   4.793 -0.1910  1.0902  1.1769
10258TIP3    H230718   7.655   3.113   4.887  0.2617 -0.0487  0.5950
10259TIP3   OH230719   4.604   0.793   4.720  0.5726  0.0680  0.4454
10259TIP3    H130720   4.687   0.840   4.710  1.8161 -1.6509  2.0544
10259TIP3    H230721   4.550   0.852   4.772  1.5791  0.3400  1.2216
10260TIP3   OH230722   1.027   5.878   2.609 -0.3049  0.4234  0.1325
10260TIP3    H130723   0.970   5.954   2.597 -4.1411 -2.4754 -2.6243
10260TIP3    H230724   0.990   5.830   2.683  0.4938 -0.0138  0.2706
10261TIP3   OH230725   5.107   7.375   6.043 -0.2393  0.3156  0.0877
10261TIP3    H130726   5.016   7.401   6.029 -0.2140 -0.0724 -0.8387
10261TIP3    H230727   5.108   7.281   6.029  0.3481  0.3508 -0.1458
10262TIP3   OH230728   5.657   3.748   3.578 -0.2460  0.6371 -0.0707
10262TIP3    H130729   5.690   3.670   3.533  0.8273  1.3621 -0.5981
10262TIP3    H230730   5.571   3.723   3.610  0.5348 -1.1384  0.7683
10263TIP3   OH230731   3.082   7.680   3.139 -0.1976  0.2850 -0.5503
10263TIP3    H130732   2.991   7.708   3.146  0.1821  1.1352  2.8289
10263TIP3    H230733   3.078   7.588   3.115 -2.1376 -0.3809  1.9369
10264TIP3   OH230734   7.267   7.046   5.851 -0.1931  0.1037 -0.4549
10264TIP3    H130735   7.285   7.115   5.788  0.2559  1.3524  0.9612
10264TIP3    H230736   7.351   7.004   5.867 -0.1963  0.1660 -0.2720
10265TIP3   OH230737   0.106   1.856   1.490  0.0039  0.0494  0.1966
10265TIP3    H130738   0.014   1.880   1.503 -0.5119 -1.3712 -0.5794
10265TIP3    H230739   0.110   1.764   1.515  1.4931  0.3862  1.3174
10266TIP3   OH230740   5.687   6.391   4.016 -1.0764  0.4676  0.4847
10266TIP3    H130741   5.664   6.307   4.055  1.8412 -0.7635 -0.1470
10266TIP3    H230742   5.676   6.455   4.086 -1.0249 -0.8374  1.7243
10267TIP3   OH230743   0.760   7.420   3.746  0.0385  0.0210 -0.0468
10267TIP3    H130744   0.712   7.496   3.714  0.0803  0.1125  0.1083
10267TIP3    H230745   0.823   7.400   3.676  1.4620  1.3901  0.7602
10268TIP3   OH230746   7.875   0.670   0.087 -0.1971 -0.5283 -0.2832
10268TIP3    H130747   7.938   0.668   0.015 -0.7304  1.0426 -0.8417
10268TIP3    H230748   7.907   0.605   0.149  1.2176 -0.7060 -1.1569
10269TIP3   OH230749   6.023   4.243   6.390  0.5915 -0.9710  0.0895
10269TIP3    H130750   5.972   4.267   6.468  0.9605 -2.5176  0.8420
10269TIP3    H230751   6.043   4.327   6.349 -1.3489 -0.2236  0.5218
10270TIP3   OH230752   6.280   2.736   5.859  0.0272 -0.3504  0.5191
10270TIP3    H130753   6.315   2.814   5.815  1.4672 -0.3688  1.5754
10270TIP3    H230754   6.260   2.676   5.787 -1.5544  1.1072 -0.3609
10271TIP3   OH230755   4.759   7.447   5.839 -0.5468  0.3691  0.3231
10271TIP3    H130756   4.798   7.532   5.860  0.1568  0.4162 -1.0551
10271TIP3    H230757   4.809   7.416   5.763 -0.6057 -1.4174  0.9761
10272TIP3   OH230758   1.560   0.827   6.033 -0.2328 -0.0710 -0.6379
10272TIP3    H130759   1.542   0.868   6.118 -1.0763 -0.1736 -0.7585
10272TIP3    H230760   1.599   0.897   5.981 -1.9404  0.6981 -0.9423
10273TIP3   OH230761   3.935   3.661   6.760 -0.7199 -0.4453  0.1436
10273TIP3    H130762   3.937   3.565   6.755  0.1490 -0.4599  0.5297
10273TIP3    H230763   4.021   3.688   6.726 -1.2392  0.2421 -0.6546
10274TIP3   OH230764   4.168   2.909   1.425  0.5958  0.0737  0.0144
10274TIP3    H130765   4.213   2.840   1.475 -0.2625 -0.7397 -0.2968
10274TIP3    H230766   4.183   2.989   1.475  1.0419 -0.4578  0.7483
10275TIP3   OH230767   7.805   7.058   2.522  0.1336  0.1737  0.4673
10275TIP3    H130768   7.814   7.152   2.536  0.0751  0.5917 -1.8436
10275TIP3    H230769   7.828   7.046   2.429  2.0798 -2.3631  1.1538
10276TIP3   OH230770   3.644   4.277   3.684  0.6952  0.8302 -0.2644
10276TIP3    H130771   3.615   4.317   3.602 -0.2340 -0.4850 -0.5945
10276TIP3    H230772   3.599   4.193   3.688  1.7620  0.2772  0.9508
10277TIP3   OH230773   4.638   2.151   2.148  0.0117  0.5557  0.4953
10277TIP3    H130774   4.722   2.106   2.157 -0.3176 -0.4420 -1.1059
10277TIP3    H230775   4.655   2.220   2.083 -0.8050 -0.8215 -1.2581
10278TIP3   OH230776   0.007   7.072   0.635 -0.4350  1.2448  0.6092
10278TIP3    H130777   0.095   7.078   0.600 -1.0997  0.7563 -1.2332
10278TIP3    H230778   0.019   7.035   0.723  1.1259  0.2409  0.0230
10279TIP3   OH230779   6.798   0.173   4.914 -0.7798 -0.2261 -0.1301
10279TIP3    H130780   6.830   0.147   5.000 -2.0477 -0.1338  0.3950
10279TIP3    H230781   6.812   0.096   4.859 -1.6027 -0.9341  0.6211
10280TIP3   OH230782   7.223   1.337   0.893 -0.5439 -0.0821  0.1479
10280TIP3    H130783   7.157   1.323   0.826  1.4608  1.1200 -2.2610
10280TIP3    H230784   7.216   1.431   0.914  1.6016  0.5798 -1.6855
10281TIP3   OH230785   6.326   0.236   1.112  0.0711  0.2574  0.4446
10281TIP3    H130786   6.350   0.304   1.176 -1.5265  0.7350  0.5755
10281TIP3    H230787   6.231   0.234   1.114  0.0659 -2.5036  0.9543
10282TIP3   OH230788   7.854   0.539   4.087  0.2110  0.3072  0.4638
10282TIP3    H130789   7.890   0.622   4.116 -0.8989  0.9825 -0.0292
10282TIP3    H230790   7.811   0.559   4.003 -0.0504 -0.7640  0.3197
10283TIP3   OH230791   3.075   5.730   2.427  0.0320  0.6181 -0.2347
10283TIP3    H130792   3.111   5.703   2.512 -2.6049 -0.8493  0.5353
10283TIP3    H230793   3.115   5.670   2.364 -0.1966 -0.2439  0.4135
10284TIP3   OH230794   1.264   7.261   2.935 -0.0271 -0.1324 -0.6454
10284TIP3    H130795   1.238   7.204   2.863 -3.3579 -0.4690  0.6565
10284TIP3    H230796   1.269   7.203   3.011  3.1621  0.2540 -0.4039
10285TIP3   OH230797   7.188   4.881   3.829  0.2983 -0.0429  0.1904
10285TIP3    H130798   7.183   4.805   3.886  0.8917  0.6707  1.2314
10285TIP3    H230799   7.259   4.934   3.866  0.1026  0.8673 -0.6939
10286TIP3   OH230800   3.902   0.345   0.832  0.1172 -0.4304 -0.7335
10286TIP3    H130801   3.853   0.301   0.762 -0.4565 -0.6755 -0.1889
10286TIP3    H230802   3.993   0.322   0.815 -0.0884 -1.1050 -0.9768
10287TIP3   OH230803   0.302   4.892   3.750 -0.5458  0.0340  0.5722
10287TIP3    H130804   0.214   4.885   3.713  0.2315  0.0788 -1.4133
10287TIP3    H230805   0.355   4.832   3.698  0.6020 -0.0325  1.7710
10288TIP3   OH230806   0.803   0.979   1.423  0.2491 -0.0110  0.0841
10288TIP3    H130807   0.826   1.022   1.505 -1.4604  0.2892  0.4329
10288TIP3    H230808   0.789   0.887   1.448 -0.7904  0.1815  0.2502
10289TIP3   OH230809   0.958   3.015   1.620 -0.1384 -0.1330 -0.1724
10289TIP3    H130810   0.876   3.010   1.669  0.4765  0.1366  0.9135
10289TIP3    H230811   1.009   2.940   1.651 -0.3803 -0.9193 -1.6220
10290TIP3   OH230812   6.077   5.765   5.303 -0.8980  0.1207  0.1427
10290TIP3    H130813   6.171   5.752   5.313 -0.7974  0.8605  0.1985
10290TIP3    H230814   6.051   5.812   5.383 -1.7379 -2.0921  1.2750
10291TIP3   OH230815   4.286   4.447   6.343 -0.3299  0.6027  0.1773
10291TIP3    H130816   4.357   4.423   6.283 -0.8296  0.6332 -0.4358
10291TIP3    H230817   4.320   4.523   6.391  0.3037  0.2107  0.3756
10292TIP3   OH230818   0.601   1.065   0.732  0.3591 -0.1325  0.3035
10292TIP3    H130819   0.541   1.032   0.797  0.1211 -0.3273 -0.0139
10292TIP3    H230820   0.598   1.002   0.660  2.2662 -1.1119  1.0023
10293TIP3   OH230821   6.376   3.625   2.898  0.2587 -0.6549  0.2725
10293TIP3    H130822   6.380   3.570   2.977 -0.3454  0.7628  1.3272
10293TIP3    H230823   6.386   3.563   2.826 -1.5129 -2.3423  1.3633
10294TIP3   OH230824   0.054   0.016   2.073 -0.2157 -0.3575 -0.6131
10294TIP3    H130825   0.137  -0.012   2.032 -0.4491 -0.0168 -1.3363
10294TIP3    H230826   0.077   0.095   2.121  0.2153 -1.1553  0.5404
10295TIP3   OH230827   7.254   3.085   6.679  0.5584 -0.0062 -0.2500
10295TIP3    H130828   7.264   2.990   6.678  2.7441  0.1620  0.6643
10295TIP3    H230829   7.208   3.105   6.597  0.2389 -1.7971 -0.5629
10296TIP3   OH230830   3.185   7.403   0.066 -0.7221 -0.6998  0.0404
10296TIP3    H130831   3.217   7.399  -0.024 -0.6558  2.2445 -0.1732
10296TIP3    H230832   3.258   7.442   0.115 -1.7376  0.3509  0.7762
10297TIP3   OH230833   5.326   7.636   3.039 -0.8641  0.9264 -0.0810
10297TIP3    H130834   5.383   7.688   3.094 -1.7288  0.1387  1.6331
10297TIP3    H230835   5.324   7.682   2.955  0.0040  2.4963  0.7297
10298TIP3   OH230836   3.989   4.096   0.338  0.5068 -0.1764 -0.1984
10298TIP3    H130837   3.940   4.144   0.404  1.4583 -0.1408  0.5013
10298TIP3    H230838   4.009   4.012   0.379  1.1356 -0.1432 -0.4144
10299TIP3   OH230839   1.779   3.015   1.018 -0.3823 -0.0967 -0.2354
10299TIP3    H130840   1.728   2.970   1.085 -1.6629  0.8784 -0.5097
10299TIP3    H230841   1.727   3.006   0.938  0.6153 -0.3527 -0.8765
10300TIP3   OH230842   7.163   7.390   6.289 -0.3368  0.0645  0.2398
10300TIP3    H130843   7.221   7.325   6.248 -2.2046 -0.4489 -1.7726
10300TIP3    H230844   7.195   7.474   6.255 -0.5722 -0.1878 -0.6329
10301TIP3   OH230845   5.233   4.711   2.319  0.3254  0.4266  0.2447
10301TIP3    H130846   5.320   4.694   2.284  0.1716  0.5735 -0.2098
10301TIP3    H230847   5.250   4.757   2.402  0.6909 -0.1292  0.4898
10302TIP3   OH230848   2.915   5.206   1.428 -0.1199  0.3379 -0.3822
10302TIP3    H130849   2.881   5.295   1.436  0.6374  0.4712  2.4028
10302TIP3    H230850   2.879   5.160   1.503  0.2098 -1.4859 -1.2982
10303TIP3   OH230851   8.153   1.023   6.341 -0.4015  0.2282  0.6287
10303TIP3    H130852   8.081   1.005   6.403 -0.2851 -3.1784 -0.0086
10303TIP3    H230853   8.132   0.970   6.264  0.3503  3.0105 -1.6686
10304TIP3   OH230854   8.234   2.973   4.844  1.0295 -0.1495 -0.3204
10304TIP3    H130855   8.212   3.064   4.866  1.1239  0.0420 -1.0090
10304TIP3    H230856   8.328   2.966   4.862  1.2672  0.2236 -1.3568
10305TIP3   OH230857   3.961   3.737   5.511 -0.1924  0.3143  0.1887
10305TIP3    H130858   3.956   3.830   5.532  5.0548  0.8495  0.2536
10305TIP3    H230859   3.988   3.735   5.420  2.1666 -0.9466  0.8507
10306TIP3   OH230860   1.268   1.549   1.643  0.2551  0.1395  0.4229
10306TIP3    H130861   1.188   1.585   1.604 -0.0434  0.0270  0.9236
10306TIP3    H230862   1.275   1.461   1.606  1.2268  0.8316 -1.1535
10307TIP3   OH230863   8.105   4.470   1.820 -0.4586 -0.9135  0.3846
10307TIP3    H130864   8.174   4.450   1.755  0.5977  2.9594  0.0595
10307TIP3    H230865   8.023   4.455   1.773  0.2640  2.6008 -2.3884
10308TIP3   OH230866   5.116   0.885   4.545  0.3422 -0.5275 -0.3075
10308TIP3    H130867   5.188   0.853   4.599  2.2084  1.0142 -1.7349
10308TIP3    H230868   5.155   0.901   4.459 -1.5674  0.8998 -0.9932
10309TIP3   OH230869   0.762   7.835   6.534 -0.3096  0.1473  0.5847
10309TIP3    H130870   0.670   7.840   6.507 -0.0835  0.4455 -0.1604
10309TIP3    H230871   0.788   7.745   6.512 -0.5947 -0.1323  1.3771
10310TIP3   OH230872   3.184   7.155   6.088 -0.5300  0.3691 -0.2600
10310TIP3    H130873   3.262   7.158   6.033  0.2930 -1.3886  0.7169
10310TIP3    H230874   3.219   7.149   6.177 -1.7835 -0.1967  0.2133
10311TIP3   OH230875   4.715   4.601   5.097 -0.5987  0.3363  0.2107
10311TIP3    H130876   4.721   4.690   5.132 -0.4201  0.4624 -0.1369
10311TIP3    H230877   4.630   4.599   5.053 -0.1771  0.6526 -0.6412
10312TIP3   OH230878   3.915   1.210   0.423 -0.1244 -0.0477 -0.8056
10312TIP3    H130879   3.927   1.291   0.374 -0.5498  0.4468 -0.1189
10312TIP3    H230880   3.823   1.187   0.410 -0.8305  1.2191  1.3723
10313TIP3   OH230881   2.697   0.030   3.052 -0.5107  0.0709 -0.3393
10313TIP3    H130882   2.738   0.113   3.030 -0.0512  0.3502  1.4219
10313TIP3    H230883   2.679  -0.011   2.968 -0.3306  1.7425 -1.2277
10314TIP3   OH230884   1.255   3.110   5.176 -0.0904  0.1486  0.3211
10314TIP3    H130885   1.268   3.194   5.218  1.9100  0.4305 -0.6987
10314TIP3    H230886   1.263   3.128   5.082  1.6869 -1.2856  0.1204
10315TIP3   OH230887   6.342   7.776   2.667  0.4701  0.1200  0.6848
10315TIP3    H130888   6.271   7.768   2.730  0.7211  2.5973  1.3885
10315TIP3    H230889   6.304   7.748   2.584 -0.8236 -0.1219  1.3319
10316TIP3   OH230890   1.625   3.815   5.362 -0.5243 -0.0098 -0.4510
10316TIP3    H130891   1.640   3.795   5.455  0.3283 -0.9164 -0.7598
10316TIP3    H230892   1.570   3.893   5.363 -0.3113  0.1571  0.8204
10317TIP3   OH230893   3.488   1.359   0.153  0.0734 -0.0252  0.6554
10317TIP3    H130894   3.460   1.392   0.067  0.9033  2.6695  1.3151
10317TIP3    H230895   3.454   1.423   0.215 -0.1477 -1.7057  2.3337
10318TIP3   OH230896   6.041   1.458   5.587  0.0471 -0.5045  0.6352
10318TIP3    H130897   6.028   1.446   5.681  1.2438 -1.6534  0.6877
10318TIP3    H230898   6.007   1.546   5.569 -0.7752 -0.5134  2.0087
10319TIP3   OH230899   2.137   2.700   2.641  0.4641 -0.0127  0.0985
10319TIP3    H130900   2.230   2.690   2.662  0.0777 -1.0188  1.4813
10319TIP3    H230901   2.119   2.628   2.580  0.7158  0.5470 -0.6451
10320TIP3   OH230902   0.224   1.007   5.161  0.2296  0.1391  0.5441
10320TIP3    H130903   0.250   1.025   5.070 -1.8259 -0.2801 -0.1707
10320TIP3    H230904   0.192   1.091   5.193  1.0185  0.3031  0.9393
10321TIP3   OH230905   7.262   0.358   5.923  0.2666  0.3387 -0.1109
10321TIP3    H130906   7.237   0.285   5.866  1.0219 -0.4946  0.5978
10321TIP3    H230907   7.288   0.316   6.005  1.8015  1.3246 -0.0651
10322TIP3   OH230908   5.747   2.967   3.881 -0.0866  0.5387  1.0849
10322TIP3    H130909   5.688   3.041   3.867  0.4268  0.8535  0.5404
10322TIP3    H230910   5.772   2.973   3.973 -1.3483  0.0576  1.4903
10323TIP3   OH230911   3.539   6.212   5.010  0.4498 -0.2416 -0.2521
10323TIP3    H130912   3.516   6.127   5.049 -0.0029 -0.5924 -1.2425
10323TIP3    H230913   3.632   6.223   5.030  0.1213 -0.1413  1.3767
10324TIP3   OH230914   2.419   2.715   2.221 -0.2454  0.1087 -0.0984
10324TIP3    H130915   2.380   2.707   2.134 -0.0791  0.9375 -0.2651
10324TIP3    H230916   2.423   2.626   2.254 -2.0867 -0.0419 -0.1576
10325TIP3   OH230917   0.863   3.992   0.395 -0.5434 -0.0289  0.1848
10325TIP3    H130918   0.954   4.015   0.415 -0.3961  0.1030 -0.6163
10325TIP3    H230919   0.865   3.897   0.380 -0.6757 -0.1484  0.8694
10326TIP3   OH230920   5.441   5.944   1.968  0.1584 -0.5583 -0.5319
10326TIP3    H130921   5.357   5.914   2.002  0.0206  0.4100  0.0306
10326TIP3    H230922   5.455   5.893   1.888 -1.4854 -0.0074 -1.2210
10327TIP3   OH230923   5.376   6.069   4.985  1.3219  0.1185  0.0454
10327TIP3    H130924   5.392   6.161   4.963  0.1396 -0.0534 -1.7886
10327TIP3    H230925   5.328   6.035   4.909 -2.1335 -0.8877  2.4555
10328TIP3   OH230926   2.544   2.459   3.350 -0.1654  0.7348 -0.1200
10328TIP3    H130927   2.519   2.514   3.424 -1.2884 -0.5926  0.5434
10328TIP3    H230928   2.540   2.370   3.384  2.0062  0.2225 -1.0529
10329TIP3   OH230929   2.036   2.065   5.992 -0.5774  0.5988  0.0226
10329TIP3    H130930   2.102   1.996   5.983 -1.5619 -0.8014  2.4830
10329TIP3    H230931   2.079   2.144   5.961  1.6257 -0.5892 -0.1200
10330TIP3   OH230932   0.290   5.646   1.467  0.4015  0.3291 -0.2443
10330TIP3    H130933   0.219   5.655   1.531 -0.4664 -0.8621 -1.0077
10330TIP3    H230934   0.356   5.709   1.496 -1.1022  1.7307  0.2753
10331TIP3   OH230935   3.254   0.514   6.276 -0.3805 -0.1484 -0.3446
10331TIP3    H130936   3.233   0.514   6.369 -0.0720 -1.5419 -0.2605
10331TIP3    H230937   3.198   0.583   6.238  0.4324  1.3553  1.0553
10332TIP3   OH230938   0.562   2.154   3.872  0.5142  0.2285  0.2852
10332TIP3    H130939   0.626   2.094   3.912 -0.8810 -0.8960  0.8920
10332TIP3    H230940   0.477   2.113   3.888 -0.4171  1.9268 -0.1046
10333TIP3   OH230941   5.261   3.637   1.012 -0.1013  0.4535  0.4281
10333TIP3    H130942   5.224   3.565   0.960  1.8543  0.6255 -1.3381
10333TIP3    H230943   5.197   3.707   1.006 -1.1774 -0.4876  0.6137
10334TIP3   OH230944   5.190   2.874   4.783 -0.2356 -0.2094 -0.5703
10334TIP3    H130945   5.261   2.932   4.755  0.7613 -0.5200  1.1694
10334TIP3    H230946   5.134   2.929   4.838 -0.2692 -0.4418 -0.3697
10335TIP3   OH230947   2.665   1.292   2.975  0.4683 -0.0478 -0.1631
10335TIP3    H130948   2.731   1.246   2.923  0.0630  1.4042 -2.0330
10335TIP3    H230949   2.581   1.263   2.940  0.2036  2.0234 -1.3714
10336TIP3   OH230950   4.367   5.480   5.425  0.3978  0.3789 -0.2158
10336TIP3    H130951   4.357   5.553   5.363  0.6364 -0.3200 -1.1056
10336TIP3    H230952   4.441   5.431   5.391  0.6338  0.0635  0.7370
10337TIP3   OH230953   6.389   3.656   0.633  0.2200 -0.2919  0.0242
10337TIP3    H130954   6.422   3.623   0.717 -2.2825  1.3920  1.8219
10337TIP3    H230955   6.346   3.580   0.593 -1.3523 -0.4552  1.8570
10338TIP3   OH230956   5.714   4.187   1.223  0.0063  0.2475 -0.2549
10338TIP3    H130957   5.685   4.254   1.161 -0.1849  1.1038  0.7357
10338TIP3    H230958   5.807   4.205   1.236 -0.2215  0.8372  0.6219
10339TIP3   OH230959   1.288   3.735   5.799  0.1820 -0.3510  0.0357
10339TIP3    H130960   1.345   3.766   5.729  0.4186  0.8698  0.7412
10339TIP3    H230961   1.215   3.797   5.800 -0.6329 -1.2724 -0.1496
10340TIP3   OH230962   4.136   2.286   6.612 -0.0101 -0.4008 -0.2485
10340TIP3    H130963   4.161   2.203   6.571  0.5039 -0.6543  0.5765
10340TIP3    H230964   4.132   2.267   6.706 -1.7074  0.0330 -0.1969
10341TIP3   OH230965   7.226   7.465   0.395 -0.5644 -0.1354 -0.2766
10341TIP3    H130966   7.239   7.466   0.301 -0.9535  0.3724 -0.3280
10341TIP3    H230967   7.148   7.518   0.410 -1.0767 -1.0251  0.2504
10342TIP3   OH230968   0.414   2.794   5.030 -0.5715 -0.2201  0.7176
10342TIP3    H130969   0.463   2.841   5.098 -0.1747 -0.7978  0.8360
10342TIP3    H230970   0.479   2.738   4.988 -1.3068 -1.7581  1.5456
10343TIP3   OH230971   3.222   5.432   2.514 -0.3433 -0.1731  0.1478
10343TIP3    H130972   3.133   5.411   2.542 -0.9635  1.4153 -0.4991
10343TIP3    H230973   3.213   5.463   2.424  1.1175 -1.5863 -0.5387
10344TIP3   OH230974   5.986   2.066   5.265 -0.6371 -0.1581 -0.1512
10344TIP3    H130975   6.030   2.071   5.350  0.4309 -0.4187 -0.6617
10344TIP3    H230976   5.924   1.994   5.274 -1.5922  0.7486  0.8509
10345TIP3   OH230977   3.102   1.693   2.437 -0.9520  0.1217  0.0688
10345TIP3    H130978   3.124   1.745   2.515 -1.1457 -0.3630  0.4577
10345TIP3    H230979   3.013   1.660   2.455 -0.5479 -0.9538  0.1743
10346TIP3   OH230980   2.490   1.022   0.966 -0.2560 -0.1179 -0.1075
10346TIP3    H130981   2.415   0.989   0.916 -0.3668  0.1833 -0.1397
10346TIP3    H230982   2.549   1.058   0.900  0.5037 -1.4782 -0.2109
10347TIP3   OH230983   2.740   7.149   0.672 -0.1196 -0.7750  0.1354
10347TIP3    H130984   2.835   7.161   0.666 -0.5040  2.4829 -2.6173
10347TIP3    H230985   2.712   7.136   0.581 -2.3167 -2.4361  0.9541
10348TIP3   OH230986   6.256   3.038   5.852 -0.0298 -0.6002  0.0419
10348TIP3    H130987   6.339   3.072   5.886 -0.2143  1.2164 -1.1809
10348TIP3    H230988   6.191   3.103   5.881 -0.6910 -0.8582 -0.8444
10349TIP3   OH230989   6.695   1.649   1.106 -0.0361 -0.1838  0.1004
10349TIP3    H130990   6.613   1.604   1.126 -1.7028  2.2119 -0.8544
10349TIP3    H230991   6.686   1.678   1.015  2.0690 -0.1771 -0.1651
10350TIP3   OH230992   3.437   5.059   3.200 -0.2546 -0.0258 -0.1989
10350TIP3    H130993   3.432   4.964   3.194  0.3275 -0.0669 -0.0389
10350TIP3    H230994   3.530   5.079   3.195 -0.2928  0.4658  0.8390
10351TIP3   OH230995   3.654   3.034   1.466 -0.5534 -0.6705  0.9754
10351TIP3    H130996   3.661   3.114   1.414 -0.8549 -1.4157 -0.2633
10351TIP3    H230997   3.716   3.046   1.538 -0.5863  0.6598  0.8103
10352TIP3   OH230998   7.570   4.894   3.624 -0.3508 -0.3977  0.1378
10352TIP3    H130999   7.539   4.984   3.609  0.0825 -0.3485 -0.4982
10352TIP3    H231000   7.549   4.847   3.543  0.6457 -0.5172 -0.0723
10353TIP3   OH231001   1.766   7.551   3.676 -0.3895 -0.2704 -0.1497
10353TIP3    H131002   1.715   7.531   3.755 -1.2541  0.5104 -0.4866
10353TIP3    H231003   1.830   7.480   3.670 -2.2099 -2.0168 -0.3627
10354TIP3   OH231004   6.260   7.201   1.180  0.6756 -0.5884 -0.5484
10354TIP3    H131005   6.232   7.272   1.237 -0.3964 -1.2256 -0.2375
10354TIP3    H231006   6.318   7.148   1.234 -0.5727 -1.3558  0.0942
10355TIP3   OH231007   2.705   6.482   4.855  0.1798 -0.1084  0.6603
10355TIP3    H131008   2.666   6.549   4.912 -1.1510 -0.3930  0.1195
10355TIP3    H231009   2.745   6.420   4.916 -2.2847 -1.0738  1.4325
10356TIP3   OH231010   5.919   1.761   0.260  0.0588  0.5062 -0.2107
10356TIP3    H131011   5.869   1.758   0.178 -0.7310  0.0706  0.2699
10356TIP3    H231012   5.967   1.843   0.255 -1.9053  1.7431 -0.0340
10357TIP3   OH231013   3.426   0.621   3.426 -0.4917  0.3251  0.5022
10357TIP3    H131014   3.435   0.528   3.406 -2.7306  0.0765  0.3107
10357TIP3    H231015   3.485   0.636   3.499  1.6183 -0.6812 -0.8810
10358TIP3   OH231016   4.750   5.280   0.910 -0.0295  0.4550  0.2301
10358TIP3    H131017   4.777   5.365   0.946  0.8148 -0.1920  1.1815
10358TIP3    H231018   4.800   5.272   0.828 -0.6265  1.1636 -0.2125
10359TIP3   OH231019   2.299   6.890   3.624  0.6149 -0.0510  0.3972
10359TIP3    H131020   2.315   6.975   3.664  0.1994 -0.5895  1.7865
10359TIP3    H231021   2.374   6.836   3.650  2.0309  0.4427 -2.3277
10360TIP3   OH231022   5.249   3.715   2.990 -0.5535 -0.1338  0.3479
10360TIP3    H131023   5.269   3.626   2.958  0.4594  0.2805 -0.2188
10360TIP3    H231024   5.233   3.703   3.084 -0.4765 -0.9288  0.2732
10361TIP3   OH231025   7.372   0.597   6.683 -0.4963  1.0276  0.7078
10361TIP3    H131026   7.370   0.530   6.615  0.8451  1.4813  0.1915
10361TIP3    H231027   7.302   0.658   6.659 -1.2385  0.2162  0.7723
10362TIP3   OH231028   7.281   1.814   1.596  0.1195  0.2153  0.4603
10362TIP3    H131029   7.353   1.868   1.564  2.0259 -1.4202  1.7505
10362TIP3    H231030   7.242   1.777   1.517  2.9229 -1.5231 -0.2655
10363TIP3   OH231031   5.963   0.718   2.261 -0.3821 -0.2031 -0.1617
10363TIP3    H131032   5.911   0.765   2.196 -0.9365 -1.4720 -0.6719
10363TIP3    H231033   5.904   0.650   2.294  0.0257  0.1578  1.3851
10364TIP3   OH231034   1.620   0.084   1.837 -0.3923 -0.4921  0.1187
10364TIP3    H131035   1.615   0.118   1.926  1.4614  1.1034 -0.3183
10364TIP3    H231036   1.685   0.014   1.841  0.2494  0.0767 -0.0836
10365TIP3   OH231037   1.119   7.045   1.912 -0.1414 -0.4158  0.3479
10365TIP3    H131038   1.117   6.950   1.899 -0.7183 -0.4314  0.5494
10365TIP3    H231039   1.137   7.080   1.824  2.3367 -0.7848  0.6355
10366TIP3   OH231040   4.304   3.740   2.947  0.2734 -0.1625  0.5682
10366TIP3    H131041   4.334   3.683   2.875 -0.0990  0.9991 -0.5395
10366TIP3    H231042   4.233   3.690   2.988  1.8501 -1.7586  1.5124
10367TIP3   OH231043   1.219   2.683   2.314 -0.2946  0.1776  0.0936
10367TIP3    H131044   1.202   2.765   2.267 -2.3870 -0.2867 -0.0649
10367TIP3    H231045   1.215   2.615   2.246  3.0859  0.0140 -0.0691
10368TIP3   OH231046   1.417   4.645   2.459  0.2055  0.0544 -0.1873
10368TIP3    H131047   1.407   4.616   2.368 -0.8713  0.2507 -0.1322
10368TIP3    H231048   1.330   4.640   2.496  0.1212  2.4931  0.1046
10369TIP3   OH231049   1.787   2.328   5.429 -0.2023 -0.4482 -1.0380
10369TIP3    H131050   1.811   2.383   5.504  0.7272 -2.4013  0.1771
10369TIP3    H231051   1.694   2.348   5.414 -0.1318  0.7637 -0.0682
10370TIP3   OH231052   6.208   3.833   2.821  0.1594  0.0988  0.2666
10370TIP3    H131053   6.272   3.776   2.863  0.4053  0.3618  0.2516
10370TIP3    H231054   6.260   3.894   2.770 -0.0017  1.5299  1.7366
10371TIP3   OH231055   7.604   4.488   4.737  0.4099 -0.1109  0.5447
10371TIP3    H131056   7.512   4.477   4.762  0.9375 -0.0453  2.6942
10371TIP3    H231057   7.618   4.583   4.739 -0.0309  0.1198 -2.2320
10372TIP3   OH231058   0.734   4.452   6.284 -0.2502  0.2107  0.0672
10372TIP3    H131059   0.824   4.422   6.297 -0.1012  0.1696 -0.9597
10372TIP3    H231060   0.730   4.476   6.191 -0.6251  2.4802  0.6189
10373TIP3   OH231061   6.836   1.141   0.581 -0.3896  0.2435 -0.0374
10373TIP3    H131062   6.756   1.153   0.530 -0.4033  2.7200  0.4254
10373TIP3    H231063   6.807   1.142   0.672 -0.0146 -0.8288  0.1080
10374TIP3   OH231064   0.201   2.729   3.288 -0.4946 -0.1589  0.1549
10374TIP3    H131065   0.281   2.731   3.341  0.0776  1.3971 -0.7176
10374TIP3    H231066   0.232   2.716   3.198 -1.0869  1.6682 -0.3488
10375TIP3   OH231067   6.406   6.099   3.335 -0.1084 -0.4961 -0.3744
10375TIP3    H131068   6.442   6.183   3.306  0.4370 -0.1727  1.1598
10375TIP3    H231069   6.428   6.038   3.264  3.1115 -0.2278  0.2284
10376TIP3   OH231070   2.522   2.179   0.481  0.9267 -0.2942 -0.2255
10376TIP3    H131071   2.530   2.160   0.574  0.6646 -0.5403 -0.2528
10376TIP3    H231072   2.543   2.272   0.474  0.8834 -0.2592  0.0893
10377TIP3   OH231073   6.113   1.027   5.786 -0.9909  0.3585 -0.0046
10377TIP3    H131074   6.181   1.068   5.732  0.8460 -2.4146 -0.0253
10377TIP3    H231075   6.128   0.933   5.776 -3.6422 -0.3480  1.5956
10378TIP3   OH231076   1.625   4.812   5.303  0.4908  0.3717  0.0347
10378TIP3    H131077   1.639   4.837   5.394  0.6658  3.0416 -0.6240
10378TIP3    H231078   1.622   4.896   5.256  0.4122 -0.9177 -2.4114
10379TIP3   OH231079   4.967   1.954   2.625  0.0400  0.1803  0.0687
10379TIP3    H131080   4.944   2.042   2.657  0.4596  1.8638 -3.6444
10379TIP3    H231081   5.059   1.961   2.600 -0.0855 -1.0846 -0.8455
10380TIP3   OH231082   1.193   4.886   4.751 -0.4233 -0.5119  0.1855
10380TIP3    H131083   1.280   4.848   4.742  0.4702  1.3685  0.2535
10380TIP3    H231084   1.143   4.822   4.800  0.8948 -1.6830  0.0503
10381TIP3   OH231085   0.381   3.434   3.644  0.4234 -0.0614  0.0733
10381TIP3    H131086   0.461   3.382   3.634  2.0405  2.4754 -1.2372
10381TIP3    H231087   0.367   3.472   3.557 -0.5465  1.8115  1.0010
10382TIP3   OH231088   4.401   4.560   1.005 -0.5318  0.6264  0.0098
10382TIP3    H131089   4.379   4.538   0.914  0.3622 -0.7020  0.0847
10382TIP3    H231090   4.339   4.510   1.057 -0.4688  0.6895  0.1452
10383TIP3   OH231091   5.317   6.024   5.362 -0.5799 -0.0837  0.1167
10383TIP3    H131092   5.329   6.104   5.312 -1.3977  0.5299  0.8658
10383TIP3    H231093   5.313   6.052   5.453 -0.7066 -0.9922  0.4084
10384TIP3   OH231094   0.922   3.426   1.913  0.0060  0.4154 -0.1466
10384TIP3    H131095   0.907   3.485   1.838  0.5154  0.0426 -0.5482
10384TIP3    H231096   1.013   3.400   1.905 -0.5045 -1.3561 -0.6585
10385TIP3   OH231097   0.434   6.174   1.784  0.0593 -0.3334 -0.0918
10385TIP3    H131098   0.442   6.133   1.698 -0.8504 -0.0408 -0.3277
10385TIP3    H231099   0.420   6.267   1.766 -0.0426 -0.2524  0.3745
10386TIP3   OH231100   7.378   7.712   3.285  0.0878 -0.5733  0.5107
10386TIP3    H131101   7.474   7.716   3.289  0.0343  0.9591  0.9270
10386TIP3    H231102   7.355   7.636   3.339  1.0705 -1.2139  0.0732
10387TIP3   OH231103   3.014   6.331   3.138  0.1500  0.1298  0.0670
10387TIP3    H131104   3.050   6.272   3.204 -2.4869 -0.4999  1.0899
10387TIP3    H231105   3.014   6.417   3.181 -0.0434  0.0272  0.2766
10388TIP3   OH231106   7.957   2.642   1.120  0.0939 -0.1286 -0.2869
10388TIP3    H131107   8.028   2.606   1.173 -1.1174 -3.2849 -0.5746
10388TIP3    H231108   7.944   2.579   1.050 -1.9072  1.1744 -1.1986
10389TIP3   OH231109   4.710   1.963   6.680  0.2851 -0.4319  0.0912
10389TIP3    H131110   4.723   2.008   6.763 -0.5380  0.5347 -0.2827
10389TIP3    H231111   4.798   1.951   6.645  0.7585 -2.1339  1.7255
10390TIP3   OH231112   7.424   1.200   3.193  0.6313  0.2012  0.0916
10390TIP3    H131113   7.372   1.263   3.244  2.5121  2.1604 -0.2490
10390TIP3    H231114   7.378   1.194   3.109 -0.1437  0.3107  0.4973
10391TIP3   OH231115   3.412   3.961   0.435  0.1658 -0.0741  0.0172
10391TIP3    H131116   3.331   3.967   0.384  0.1552  0.3933  0.0847
10391TIP3    H231117   3.421   3.867   0.453  1.0659 -0.5011 -2.2902
10392TIP3   OH231118   0.936   0.582   6.284  0.0434  0.4483  0.0274
10392TIP3    H131119   1.020   0.584   6.329  0.2137  1.0445 -0.2982
10392TIP3    H231120   0.937   0.501   6.233  0.4061  0.4419  0.0439
10393TIP3   OH231121   5.708   5.205   3.642  0.0615  0.0086 -0.1255
10393TIP3    H131122   5.713   5.234   3.551  0.1453 -0.7204 -0.3566
10393TIP3    H231123   5.792   5.162   3.658  1.0119  2.1036  1.0048
10394TIP3   OH231124   4.817   2.452   0.942 -0.1998 -0.0085  0.0945
10394TIP3    H131125   4.842   2.368   0.904  1.0587  0.6222 -0.5316
10394TIP3    H231126   4.856   2.517   0.884 -0.6512  1.0142  0.9026
10395TIP3   OH231127   7.788   3.362   2.891  0.6780  0.1296 -0.8964
10395TIP3    H131128   7.775   3.313   2.972 -1.0305  0.1575 -1.1177
10395TIP3    H231129   7.838   3.303   2.835 -1.8146 -1.6915 -1.3738
10396TIP3   OH231130   4.364   3.315   3.429 -0.1547 -0.0202  0.1917
10396TIP3    H131131   4.457   3.309   3.451 -0.6006 -1.0761  1.9244
10396TIP3    H231132   4.342   3.228   3.395 -0.4507  0.3404 -0.5681
10397TIP3   OH231133   7.708   1.077   6.655  0.0611 -0.0691  0.3511
10397TIP3    H131134   7.651   1.012   6.613 -0.1655  1.2802 -1.5917
10397TIP3    H231135   7.670   1.161   6.629  2.1414  0.8482  0.1354
10398TIP3   OH231136   3.351   1.906   0.481  0.4400 -0.7652  0.6244
10398TIP3    H131137   3.261   1.934   0.463  1.1312  2.5107  1.6131
10398TIP3    H231138   3.398   1.924   0.400  0.6532 -0.0716  0.8906
10399TIP3   OH231139   4.663   6.107   1.914  0.1107 -0.0242 -0.4263
10399TIP3    H131140   4.718   6.088   1.837  0.3022 -1.6443  0.0703
10399TIP3    H231141   4.600   6.171   1.882 -0.7337 -1.6910 -2.4023
10400TIP3   OH231142   0.788   7.495   6.712  0.0600  1.1901  0.1015
10400TIP3    H131143   0.803   7.580   6.752  0.4603  1.1558  0.0260
10400TIP3    H231144   0.694   7.481   6.720  0.1263  1.2013  1.0065
10401TIP3   OH231145   2.291   2.808   6.211 -0.3131 -0.0505 -0.8356
10401TIP3    H131146   2.372   2.849   6.179  0.0397  1.8295  2.0777
10401TIP3    H231147   2.315   2.716   6.222  1.6852  0.5352  0.4244
10402TIP3   OH231148   0.319   2.212   0.437 -0.4008  0.0667  0.0113
10402TIP3    H131149   0.309   2.170   0.522  1.2519 -0.9603 -0.2489
10402TIP3    H231150   0.345   2.302   0.458 -1.2872  0.1960  0.5811
10403TIP3   OH231151   3.944   4.069   1.153 -0.2068  0.0035 -0.3598
10403TIP3    H131152   4.014   4.133   1.149 -0.4177  0.1847 -1.3707
10403TIP3    H231153   3.863   4.120   1.147 -0.5954  0.0439  3.1599
10404TIP3   OH231154   5.489   2.696   3.719  0.3088  0.3285 -0.9054
10404TIP3    H131155   5.485   2.785   3.752  0.6691  0.0727 -0.1487
10404TIP3    H231156   5.582   2.677   3.711  0.2561 -0.2653 -0.2367
10405TIP3   OH231157   6.467   2.457   2.434 -0.2159  0.4433  0.0823
10405TIP3    H131158   6.527   2.429   2.365 -1.6622 -3.4149  0.1192
10405TIP3    H231159   6.393   2.496   2.388 -0.1020  0.1044 -0.4012
10406TIP3   OH231160   3.919   6.504   3.537 -0.5190  0.8256  0.6322
10406TIP3    H131161   3.850   6.442   3.517 -0.4249  1.2325 -1.0832
10406TIP3    H231162   3.984   6.453   3.585 -0.5947 -0.3283 -0.4522
10407TIP3   OH231163   4.335   2.730   1.585  0.2290  0.2388  0.6201
10407TIP3    H131164   4.280   2.671   1.636  0.4896  1.0601  1.8901
10407TIP3    H231165   4.347   2.685   1.501 -1.0807 -0.6573  0.8855
10408TIP3   OH231166   4.409   7.408   4.015  0.3874 -0.2842 -0.1819
10408TIP3    H131167   4.426   7.502   4.026 -1.2825 -0.0888  1.2443
10408TIP3    H231168   4.494   7.367   4.024  0.8739  0.9632  1.5058
10409TIP3   OH231169   8.228   6.028   3.247 -0.0849 -0.2472  0.6484
10409TIP3    H131170   8.290   6.032   3.174 -0.1062  0.3096  0.6532
10409TIP3    H231171   8.142   6.038   3.205 -0.0538  0.9511  0.8078
10410TIP3   OH231172   0.816   6.837   4.791 -0.2185  0.5150 -0.6069
10410TIP3    H131173   0.880   6.876   4.851  0.6836 -0.0175 -1.1864
10410TIP3    H231174   0.749   6.800   4.848  0.8832 -0.4332  0.1291
10411TIP3   OH231175   6.525   3.096   5.873 -0.9261 -0.2632  0.0491
10411TIP3    H131176   6.599   3.036   5.885 -0.4068 -0.2200 -2.5284
10411TIP3    H231177   6.540   3.165   5.938 -0.0216 -1.4575  1.1650
10412TIP3   OH231178   7.921   5.536   2.032  0.2770  0.4412 -0.0516
10412TIP3    H131179   7.975   5.604   1.991  2.3394 -1.2628 -0.3435
10412TIP3    H231180   7.860   5.510   1.963  2.2564 -0.8448 -1.4367
10413TIP3   OH231181   2.461   2.374   5.681  0.1773  0.0012  0.0237
10413TIP3    H131182   2.541   2.334   5.715  2.2449  3.6969  0.0574
10413TIP3    H231183   2.490   2.430   5.609 -2.4437  1.1347 -0.2872
10414TIP3   OH231184   1.447   0.584   0.908  0.4889 -0.2525 -0.0097
10414TIP3    H131185   1.374   0.630   0.949  1.3133  0.0013  1.2241
10414TIP3    H231186   1.423   0.577   0.816 -0.1090  1.7385 -0.0339
10415TIP3   OH231187   5.122   1.371   3.177 -0.0510 -0.0052  0.2378
10415TIP3    H131188   5.155   1.282   3.185 -0.4593 -0.3163 -1.2375
10415TIP3    H231189   5.169   1.407   3.101 -1.3913  0.3171 -0.4614
10416TIP3   OH231190   7.428   7.246   6.540 -0.1675 -0.0696 -0.2961
10416TIP3    H131191   7.353   7.268   6.595 -0.2580  1.0611 -0.8369
10416TIP3    H231192   7.494   7.212   6.601  0.0523  1.9386  0.6709
10417TIP3   OH231193   7.814   6.649   5.059 -0.4666  0.3396 -0.3907
10417TIP3    H131194   7.839   6.597   5.135 -2.2685 -1.2637 -0.8014
10417TIP3    H231195   7.890   6.647   5.001  0.0233 -0.5673  0.2772
10418TIP3   OH231196   0.786   1.430   4.000  0.5353 -0.1978 -0.0127
10418TIP3    H131197   0.858   1.469   4.049 -0.0609 -2.8373  3.2472
10418TIP3    H231198   0.829   1.384   3.927  1.7292  1.1879 -0.2461
10419TIP3   OH231199   1.750   0.461   1.313 -0.0696  0.1948 -0.5785
10419TIP3    H131200   1.814   0.437   1.247 -0.0982 -1.5667 -0.0292
10419TIP3    H231201   1.665   0.453   1.269  0.0239  2.4412 -1.2799
10420TIP3   OH231202   6.696   2.819   5.671 -0.2397  0.1227  0.1504
10420TIP3    H131203   6.683   2.769   5.751  0.4580  0.6529  0.6055
10420TIP3    H231204   6.750   2.893   5.697 -0.9112  0.8999 -0.5854
10421TIP3   OH231205   6.596   5.385   1.484  0.3777 -0.3518  0.3657
10421TIP3    H131206   6.535   5.410   1.414  2.8501 -0.1270 -1.8664
10421TIP3    H231207   6.638   5.306   1.451  1.5824 -0.2542  1.6196
10422TIP3   OH231208   4.306   5.600   4.104 -0.2876 -0.0903 -0.0248
10422TIP3    H131209   4.329   5.691   4.084 -2.0315  0.4155  0.0937
10422TIP3    H231210   4.386   5.551   4.086  1.4627  1.7397  2.2125
10423TIP3   OH231211   6.845   2.490   1.369  0.5923  0.4432 -0.1450
10423TIP3    H131212   6.775   2.551   1.389 -0.0832 -0.5334  0.5600
10423TIP3    H231213   6.889   2.474   1.452  1.9600  1.3829 -0.6513
10424TIP3   OH231214   5.278   7.193   2.977 -0.2127 -0.1223 -0.2016
10424TIP3    H131215   5.353   7.160   3.027 -1.1768 -2.5089 -0.2117
10424TIP3    H231216   5.210   7.208   3.042 -0.7426 -1.0732 -0.5183
10425TIP3   OH231217   7.188   4.334   0.846 -0.0793 -0.4268 -0.6203
10425TIP3    H131218   7.138   4.255   0.826  0.3952 -1.8506  3.0316
10425TIP3    H231219   7.159   4.359   0.933  2.4982  1.1903 -0.1150
10426TIP3   OH231220   5.082   1.780   3.068 -0.2561  0.5538 -0.1889
10426TIP3    H131221   5.011   1.730   3.109  1.1675 -0.1825  1.4734
10426TIP3    H231222   5.083   1.863   3.116  1.0413 -0.0865  0.9564
10427TIP3   OH231223   0.937   6.995   0.035  0.4728  0.7665 -0.1953
10427TIP3    H131224   0.933   6.996  -0.060  0.4169 -0.6904 -0.2288
10427TIP3    H231225   1.023   6.957   0.055 -0.4380 -1.2068  0.2854
10428TIP3   OH231226   0.475   7.740   5.237 -0.1849 -0.4595  0.5906
10428TIP3    H131227   0.468   7.802   5.165 -0.1397  0.3951  1.3106
10428TIP3    H231228   0.541   7.778   5.296 -0.5293 -0.9207  1.2940
10429TIP3   OH231229   0.802   6.726   5.784 -0.4358 -0.6740 -0.0458
10429TIP3    H131230   0.889   6.695   5.759  0.2353  1.3439 -0.4096
10429TIP3    H231231   0.818   6.807   5.833 -2.0072 -1.6866  2.3088
10430TIP3   OH231232   7.413   7.582   5.143  0.7432 -0.2293  0.0791
10430TIP3    H131233   7.428   7.670   5.175  0.3564 -0.0260 -0.2882
10430TIP3    H231234   7.440   7.585   5.051  0.8383 -0.5242  0.0949
10431TIP3   OH231235   2.427   0.495   3.777 -0.2717 -0.3687 -0.2732
10431TIP3    H131236   2.507   0.480   3.827 -0.0668 -1.4297 -0.8914
10431TIP3    H231237   2.435   0.585   3.745 -0.1355  0.1229  1.0760
10432TIP3   OH231238   0.319   3.671   2.483  0.4539 -0.0089 -0.5757
10432TIP3    H131239   0.395   3.722   2.455  0.8339 -0.2214  0.0350
10432TIP3    H231240   0.356   3.587   2.510 -0.0739 -0.3322 -0.8403
10433TIP3   OH231241   6.185   5.363   4.054 -0.1617  1.1499  0.4103
10433TIP3    H131242   6.231   5.428   4.000 -2.6686  4.6860  2.0737
10433TIP3    H231243   6.238   5.357   4.134  0.4247  0.6189 -0.0141
10434TIP3   OH231244   2.314   6.624   5.279  0.0697 -0.2658  0.6718
10434TIP3    H131245   2.242   6.626   5.216 -0.2279 -0.0019  1.0175
10434TIP3    H231246   2.330   6.715   5.302  0.6447 -0.3046  0.4607
10435TIP3   OH231247   0.063   1.946   6.193 -0.4056  0.3002 -0.1143
10435TIP3    H131248  -0.012   1.935   6.251 -1.7436  0.1094 -1.7906
10435TIP3    H231249   0.042   1.892   6.117  1.2763  0.5465 -0.7833
10436TIP3   OH231250   4.182   0.481   6.785  0.6374 -0.0712 -0.0130
10436TIP3    H131251   4.087   0.480   6.796  0.0956  2.8563 -2.6783
10436TIP3    H231252   4.197   0.436   6.702  1.3401  0.8187 -0.3940
10437TIP3   OH231253   6.411   0.078   1.883  0.6997 -0.4757 -0.3977
10437TIP3    H131254   6.358   0.052   1.959  0.7622  0.0884 -0.1570
10437TIP3    H231255   6.372   0.031   1.809 -0.0637 -0.1561 -0.2052
10438TIP3   OH231256   6.370   3.969   2.646 -0.1986 -0.4165  0.2298
10438TIP3    H131257   6.295   3.999   2.596  0.2357  1.2211  0.4863
10438TIP3    H231258   6.431   3.936   2.580 -0.8913 -1.2264 -0.0225
10439TIP3   OH231259   0.987   1.081   0.331  0.1905 -0.4805 -0.0621
10439TIP3    H131260   1.002   1.174   0.346  2.0507 -0.8874  1.0113
10439TIP3    H231261   0.904   1.062   0.374  0.0658  0.5766  0.1888
10440TIP3   OH231262   1.108   5.886   3.079  0.3549  0.3662 -0.1877
10440TIP3    H131263   1.145   5.974   3.083  0.9844  0.0570  1.8362
10440TIP3    H231264   1.166   5.838   3.019 -0.3779  1.4426 -1.8443
10441TIP3   OH231265   7.105   1.879   3.197  0.0813 -0.0101  0.1689
10441TIP3    H131266   7.122   1.836   3.114 -0.3341 -0.3059  0.2369
10441TIP3    H231267   7.190   1.916   3.222 -0.0672  1.1905 -0.9972
10442TIP3   OH231268   5.643   5.468   5.799  0.3631  0.2155 -0.0873
10442TIP3    H131269   5.711   5.487   5.734  1.0178  0.4771  0.6623
10442TIP3    H231270   5.664   5.525   5.873  2.0146 -2.7596  1.9793
10443TIP3   OH231271   7.551   7.498   1.157 -0.1810  0.0648  0.2694
10443TIP3    H131272   7.603   7.461   1.087  0.1014  2.8112 -1.1067
10443TIP3    H231273   7.482   7.548   1.112 -1.5341 -0.1530  1.9901
10444TIP3   OH231274   0.709   0.076   0.647  0.2563  0.4666 -0.2106
10444TIP3    H131275   0.770   0.122   0.591  0.7758  0.0016 -0.0321
10444TIP3    H231276   0.652   0.145   0.682  1.6295  1.1374  0.8339
10445TIP3   OH231277   0.773   3.420   2.924 -0.1864  0.1065 -0.5082
10445TIP3    H131278   0.682   3.388   2.926 -0.5661  1.1773 -0.3144
10445TIP3    H231279   0.803   3.402   2.835 -0.6635 -0.0525 -0.6404
10446TIP3   OH231280   7.786   4.717   5.514  0.2079 -0.4352  0.1899
10446TIP3    H131281   7.780   4.774   5.437  2.2124 -0.3486  0.0566
10446TIP3    H231282   7.787   4.778   5.588 -0.8568 -0.4813  0.2611
10447TIP3   OH231283   1.867   1.779   2.914  0.3955  0.6566  0.3513
10447TIP3    H131284   1.838   1.691   2.888 -0.5952  1.1124 -0.1535
10447TIP3    H231285   1.877   1.775   3.009 -2.0322  0.6237  0.6827
10448TIP3   OH231286   7.118   4.888   5.705 -0.2055 -0.1508  0.6476
10448TIP3    H131287   7.161   4.961   5.660  1.4024 -0.5415  1.4778
10448TIP3    H231288   7.072   4.929   5.778  0.1499  0.0990  0.7351
10449TIP3   OH231289   5.192   6.693   1.086  0.0444  0.2849 -0.2620
10449TIP3    H131290   5.250   6.725   1.017  2.7437 -1.8379  0.8425
10449TIP3    H231291   5.239   6.709   1.167 -1.0260 -1.2876  0.7369
10450TIP3   OH231292   6.090   7.327   1.737  0.5974  0.0211 -0.4925
10450TIP3    H131293   6.179   7.358   1.725  0.8828 -1.2199 -1.7697
10450TIP3    H231294   6.088   7.292   1.826  1.1525  0.7304 -0.1889
10451TIP3   OH231295   5.825   7.307   1.526 -0.0842 -0.0736 -0.3819
10451TIP3    H131296   5.758   7.266   1.471 -0.0082 -1.2802  0.3929
10451TIP3    H231297   5.840   7.393   1.485 -0.4699 -0.6826 -1.8743
10452TIP3   OH231298   2.010   7.044   3.804  0.1011  0.3607  0.4664
10452TIP3    H131299   1.944   7.112   3.790 -0.3292  0.0924  1.1454
10452TIP3    H231300   2.090   7.082   3.768 -0.1888  1.1272  0.5975
10453TIP3   OH231301   4.401   6.884   2.280 -0.0511 -0.2392  0.3018
10453TIP3    H131302   4.412   6.909   2.372  1.0870  0.7043 -0.0606
10453TIP3    H231303   4.309   6.905   2.260 -0.2268 -0.1811  1.1309
10454TIP3   OH231304   7.007   0.704   0.544 -0.1457  0.1341 -0.6908
10454TIP3    H131305   6.973   0.769   0.482 -1.2078 -0.2377 -0.5046
10454TIP3    H231306   6.940   0.636   0.546  1.0473 -1.0914 -1.0518
10455TIP3   OH231307   4.333   1.653   1.574 -0.2311  0.4208 -0.1979
10455TIP3    H131308   4.353   1.562   1.552  0.4733  0.3510  0.6727
10455TIP3    H231309   4.239   1.653   1.593 -0.0171 -0.4018  0.9984
10456TIP3   OH231310   4.172   6.500   2.754 -0.2292  0.8269  0.1461
10456TIP3    H131311   4.111   6.431   2.725 -1.0659  1.6160 -0.0254
10456TIP3    H231312   4.129   6.538   2.831  1.4078 -0.4633  1.7974
10457TIP3   OH231313   1.407   6.450   3.923 -0.0405 -0.1211  0.2285
10457TIP3    H131314   1.333   6.415   3.972  0.1536 -2.0522 -0.7873
10457TIP3    H231315   1.388   6.429   3.832  1.8589 -0.8679 -0.0252
10458TIP3   OH231316   5.021   6.049   5.040 -0.5912  0.7607 -0.0725
10458TIP3    H131317   5.013   6.104   4.963 -0.7285  0.1978 -0.4664
10458TIP3    H231318   5.098   6.083   5.086 -0.0505  0.6310 -0.8559
10459TIP3   OH231319   4.795   3.814   4.905 -0.1285  0.0150 -0.3355
10459TIP3    H131320   4.805   3.763   4.986 -1.0134 -0.5100 -0.5515
10459TIP3    H231321   4.821   3.903   4.930 -0.2265 -0.1785  0.4864
10460TIP3   OH231322   6.904   5.831   3.363  0.2974 -0.0509 -0.0674
10460TIP3    H131323   6.817   5.794   3.381  0.0010  0.7584  0.2017
10460TIP3    H231324   6.903   5.849   3.269 -0.5540  1.7446  0.2522
10461TIP3   OH231325   8.154   1.946   6.344  0.1376 -0.2152 -0.1762
10461TIP3    H131326   8.112   2.015   6.395  0.6939 -0.1695  0.2204
10461TIP3    H231327   8.081   1.905   6.296 -0.5149 -0.7824  1.2435
10462TIP3   OH231328   1.705   4.393   3.608 -0.1638  0.6102  0.0002
10462TIP3    H131329   1.615   4.383   3.638  0.1945  1.0892  1.3344
10462TIP3    H231330   1.699   4.405   3.514 -1.6251  2.3483  0.2774
10463TIP3   OH231331   2.507   5.231   0.153 -0.3256  0.0382  0.9967
10463TIP3    H131332   2.583   5.173   0.161 -1.1309 -1.0286  1.0525
10463TIP3    H231333   2.445   5.198   0.218 -0.7763  1.0250  1.0895
10464TIP3   OH231334   5.987   3.180   0.986 -0.2345  0.2748 -0.7489
10464TIP3    H131335   6.072   3.169   0.944  0.7358  1.6030  0.7477
10464TIP3    H231336   6.008   3.193   1.079 -1.9005  2.4918 -0.6035
10465TIP3   OH231337   3.137   5.932   6.043 -0.6400 -0.2142  0.2704
10465TIP3    H131338   3.128   5.839   6.066  0.5270 -0.3422  0.2921
10465TIP3    H231339   3.165   5.931   5.952 -0.1150  0.0910  0.4252
10466TIP3   OH231340   5.167   4.022   0.408  0.2434 -0.3893  0.5935
10466TIP3    H131341   5.221   4.050   0.482 -0.0392 -1.1285  1.0853
10466TIP3    H231342   5.146   4.104   0.362  3.3244 -0.2062 -0.7078
10467TIP3   OH231343   0.766   6.860   2.872  0.3169 -0.0356 -0.7628
10467TIP3    H131344   0.781   6.779   2.823  1.7210  0.3675 -1.0334
10467TIP3    H231345   0.850   6.879   2.913  0.2888  1.7888 -1.4554
10468TIP3   OH231346   0.666   5.530   3.176  0.2240 -0.0931 -0.4574
10468TIP3    H131347   0.642   5.619   3.204  1.0949  0.7809 -2.3000
10468TIP3    H231348   0.752   5.515   3.214 -0.5575 -0.7820  1.1017
10469TIP3   OH231349   6.738   6.582   1.130 -0.0217  0.3064  0.1994
10469TIP3    H131350   6.673   6.521   1.096  1.3701 -1.3225  0.2938
10469TIP3    H231351   6.696   6.623   1.205 -1.2833  0.0853 -0.3568
10470TIP3   OH231352   1.478   0.096   4.801 -0.0533 -0.0212  0.2214
10470TIP3    H131353   1.546   0.090   4.868  1.1153  0.4388 -0.8901
10470TIP3    H231354   1.450   0.187   4.802  0.6269  0.2069 -0.5249
10471TIP3   OH231355   5.791   1.428   2.802 -0.7624 -0.2258 -0.0121
10471TIP3    H131356   5.791   1.384   2.717 -0.6867 -0.5583  0.1572
10471TIP3    H231357   5.777   1.521   2.782  0.0934 -0.1859 -0.4445
10472TIP3   OH231358   2.678   7.108   3.625  0.2087  0.2309 -0.1380
10472TIP3    H131359   2.676   7.042   3.694 -0.0072 -1.0047 -1.3027
10472TIP3    H231360   2.633   7.183   3.664 -3.5271 -1.7431 -0.1958
10473TIP3   OH231361   4.257   6.802   2.757 -0.2754 -0.1413  0.1653
10473TIP3    H131362   4.325   6.764   2.813  1.7227  0.5954 -1.6389
10473TIP3    H231363   4.192   6.732   2.747 -0.4906 -0.4672  2.9105
10474TIP3   OH231364   6.823   3.072   0.063 -0.1396  0.2388  0.0616
10474TIP3    H131365   6.874   3.100  -0.013  0.6039  1.1694  0.8828
10474TIP3    H231366   6.808   2.978   0.048  1.3208  0.0576 -0.5046
10475TIP3   OH231367   0.322   1.841   3.551 -0.1854  0.6114  0.0486
10475TIP3    H131368   0.231   1.867   3.540 -0.4497 -0.7538 -1.4560
10475TIP3    H231369   0.373   1.911   3.510 -0.7990 -0.3468 -2.5899
10476TIP3   OH231370   8.255   3.755   0.718 -0.4190 -0.2072 -0.2884
10476TIP3    H131371   8.322   3.781   0.782 -1.0656  0.6356  0.0716
10476TIP3    H231372   8.192   3.827   0.720 -1.2607 -0.9180 -0.7278
10477TIP3   OH231373   6.389   3.093   3.367 -0.4438 -0.0968  0.1394
10477TIP3    H131374   6.338   3.078   3.447 -0.1663 -0.5229  0.2367
10477TIP3    H231375   6.350   3.172   3.329 -0.2541  0.4069  0.9582
10478TIP3   OH231376   6.962   7.663   1.924 -0.3895  0.0961  0.0696
10478TIP3    H131377   6.981   7.667   1.831 -0.9298 -0.7089 -0.0783
10478TIP3    H231378   6.866   7.658   1.930 -0.3503 -0.1229  0.6531
10479TIP3   OH231379   2.649   5.838   6.016  0.5409  0.5724 -0.0692
10479TIP3    H131380   2.658   5.869   6.106  2.1191 -0.9400  0.3292
10479TIP3    H231381   2.579   5.773   6.020  0.7363  0.3718  0.1025
10480TIP3   OH231382   1.103   5.489   0.076  0.0016 -0.1485  0.2594
10480TIP3    H131383   1.052   5.500  -0.004  1.1053  0.2136 -0.4206
10480TIP3    H231384   1.074   5.406   0.112  1.0694 -1.4700 -1.7455
10481TIP3   OH231385   3.383   7.218   2.994  0.2416 -0.2497 -0.6376
10481TIP3    H131386   3.442   7.281   2.953 -1.1003 -0.0073 -2.2941
10481TIP3    H231387   3.404   7.135   2.952  0.3082 -0.4295 -0.2538
10482TIP3   OH231388   3.153   4.667   4.393 -0.2653 -0.3227 -0.4292
10482TIP3    H131389   3.186   4.630   4.475 -1.1446 -0.6251 -0.1999
10482TIP3    H231390   3.230   4.674   4.337  0.7690  1.7942  1.0894
10483TIP3   OH231391   4.484   1.354   1.610  0.3484 -0.1741 -0.5803
10483TIP3    H131392   4.458   1.359   1.702  1.2469 -1.2357 -0.2438
10483TIP3    H231393   4.403   1.339   1.562  0.0254 -0.8630  0.1722
10484TIP3   OH231394   0.585   1.602   6.100  0.0956 -0.4900  0.4243
10484TIP3    H131395   0.668   1.555   6.096  1.5518  1.9884 -1.9091
10484TIP3    H231396   0.594   1.661   6.175 -0.1060 -1.1075  0.9406
10485TIP3   OH231397   5.627   1.384   0.448  0.0232 -0.3529  0.1001
10485TIP3    H131398   5.681   1.360   0.373  1.3005 -0.7737  1.1141
10485TIP3    H231399   5.557   1.437   0.411  0.1976 -1.1632 -1.4816
10486TIP3   OH231400   7.343   4.738   3.647  0.5607  0.1649  0.0560
10486TIP3    H131401   7.305   4.786   3.720 -1.1665 -1.3103  0.1823
10486TIP3    H231402   7.436   4.763   3.648  0.0393  2.2749  1.0193
10487TIP3   OH231403   1.145   6.510   0.873 -0.5254 -0.1122 -0.1954
10487TIP3    H131404   1.069   6.568   0.868 -1.8166 -1.7661 -0.5201
10487TIP3    H231405   1.187   6.518   0.787 -0.5552  0.5089 -0.1561
10488TIP3   OH231406   7.829   0.532   5.094  0.1519  0.0039  0.2070
10488TIP3    H131407   7.782   0.517   5.012 -2.2679 -0.1493  1.5291
10488TIP3    H231408   7.921   0.526   5.070 -0.3086  2.9285 -3.0789
10489TIP3   OH231409   6.442   5.036   6.431  0.2754  0.0274 -0.3366
10489TIP3    H131410   6.347   5.047   6.431 -0.1472 -2.8169 -0.1834
10489TIP3    H231411   6.472   5.081   6.352 -0.5971  4.2692  1.4878
10490TIP3   OH231412   1.331   3.951   2.807 -0.2444 -0.0098 -0.1243
10490TIP3    H131413   1.363   3.924   2.893  2.9826  0.9641 -0.8924
10490TIP3    H231414   1.355   3.880   2.748  1.1802  1.0243 -0.8395
10491TIP3   OH231415   5.304   3.933   4.847 -0.4185  0.4665  0.3948
10491TIP3    H131416   5.368   3.980   4.794 -0.0435 -1.0094 -0.5359
10491TIP3    H231417   5.227   3.989   4.847 -0.9900 -0.0612 -3.0487
10492TIP3   OH231418   5.405   6.926   5.116 -0.6455 -0.1254 -0.3561
10492TIP3    H131419   5.466   6.987   5.076  0.6493 -0.8362  0.4872
10492TIP3    H231420   5.318   6.959   5.090 -0.0745  2.7963  1.0692
10493TIP3   OH231421   5.729   4.255   2.503 -0.4549  0.0447 -0.4919
10493TIP3    H131422   5.759   4.176   2.459  0.5062 -0.0669  0.3480
10493TIP3    H231423   5.647   4.230   2.546  0.5084 -0.8551  0.8505
10494TIP3   OH231424   1.208   6.553   5.435 -0.3467 -0.3125  0.2344
10494TIP3    H131425   1.289   6.530   5.480  0.6727 -0.2835 -1.5012
10494TIP3    H231426   1.215   6.647   5.418 -1.0905 -0.1637  0.7133
10495TIP3   OH231427   0.878   2.451   3.268 -0.3833  0.1416 -0.1442
10495TIP3    H131428   0.793   2.415   3.291  0.2115 -0.5468  1.0741
10495TIP3    H231429   0.936   2.426   3.341  0.8041  0.7919 -0.8234
10496TIP3   OH231430   1.981   5.796   1.796 -0.6354  0.0802 -0.3216
10496TIP3    H131431   2.074   5.815   1.801 -0.8832  0.9263  1.6495
10496TIP3    H231432   1.947   5.859   1.732 -0.1787  1.1651  0.4822
10497TIP3   OH231433   7.827   5.761   6.449  0.0725 -1.4413 -0.1839
10497TIP3    H131434   7.848   5.678   6.407 -1.7776 -1.0768 -1.9920
10497TIP3    H231435   7.893   5.822   6.416  0.0135 -1.6838 -0.7589
10498TIP3   OH231436   4.876   3.951   0.857  0.3958  0.0274  0.2785
10498TIP3    H131437   4.803   4.000   0.896  0.1315  0.1665 -0.3793
10498TIP3    H231438   4.887   3.989   0.770  0.0944 -1.1595 -0.3023
10499TIP3   OH231439   5.131   6.678   1.802  0.0019  0.1018  0.3089
10499TIP3    H131440   5.197   6.620   1.841 -0.1757 -1.1452 -1.1405
10499TIP3    H231441   5.087   6.718   1.877  0.4027 -1.3470  1.3649
10500TIP3   OH231442   2.928   4.269   5.397  0.0751  0.1811 -0.1410
10500TIP3    H131443   2.948   4.361   5.416 -0.3416  0.5155 -1.2626
10500TIP3    H231444   2.960   4.222   5.474  1.1326  1.1614  0.0499
10501TIP3   OH231445   7.475   6.628   6.460 -0.3471  0.1460  0.3017
10501TIP3    H131446   7.495   6.711   6.502  0.6095 -0.8543  1.9174
10501TIP3    H231447   7.455   6.569   6.532 -1.3418 -0.9563 -0.8338
10502TIP3   OH231448   0.369   3.771   3.977  0.4592 -0.0608 -0.3252
10502TIP3    H131449   0.451   3.741   3.938  0.4167  1.6120 -1.8416
10502TIP3    H231450   0.301   3.731   3.923  0.3464  0.5652 -0.6504
10503TIP3   OH231451   7.179   1.314   2.005  0.7662 -0.1166  0.3641
10503TIP3    H131452   7.175   1.260   2.084  0.7134 -0.7708 -0.0739
10503TIP3    H231453   7.097   1.295   1.959  0.5351  0.6998  0.4319
10504TIP3   OH231454   1.223   3.388   3.240  0.2495 -0.2796 -0.3533
10504TIP3    H131455   1.221   3.358   3.331  0.4172 -0.4551 -0.4075
10504TIP3    H231456   1.227   3.308   3.189  0.1040 -0.1812 -0.5191
10505TIP3   OH231457   4.479   0.893   5.196 -0.2370  0.0126 -0.0108
10505TIP3    H131458   4.418   0.888   5.270 -1.0662 -0.8652 -0.7156
10505TIP3    H231459   4.553   0.838   5.221 -0.4899 -0.2341  0.1979
10506TIP3   OH231460   4.857   2.853   4.354 -0.3606  0.0484 -0.0418
10506TIP3    H131461   4.883   2.768   4.390 -0.6032  0.5431  1.3783
10506TIP3    H231462   4.913   2.865   4.278  0.5812 -0.8171  0.4890
10507TIP3   OH231463   6.701   1.886   3.640  0.1339 -0.1707 -0.1006
10507TIP3    H131464   6.660   1.911   3.557 -0.3648 -0.2385  0.1177
10507TIP3    H231465   6.754   1.962   3.665 -1.6227  0.8665  0.7171
10508TIP3   OH231466   4.607   1.860   6.003 -0.0549  0.2242 -0.6227
10508TIP3    H131467   4.549   1.881   5.930 -1.1581  1.4170  0.5266
10508TIP3    H231468   4.564   1.901   6.079  0.7893 -1.3811  0.7713
10509TIP3   OH231469   5.254   1.114   3.084  0.2566  0.2735  0.2237
10509TIP3    H131470   5.320   1.058   3.043 -1.3184 -1.2865 -0.2532
10509TIP3    H231471   5.181   1.114   3.023 -2.2527 -2.2448  2.9620
10510TIP3   OH231472   3.074   5.149   5.016  0.1930 -0.2796  0.1753
10510TIP3    H131473   3.059   5.229   5.067 -0.4513  0.0833 -0.5605
10510TIP3    H231474   3.168   5.147   5.000  0.0128  1.2755 -1.2816
10511TIP3   OH231475   6.586   6.118   6.548 -0.8022  0.6148 -0.0445
10511TIP3    H131476   6.577   6.202   6.503 -0.1919  0.4796 -0.4287
10511TIP3    H231477   6.660   6.075   6.505  1.5581  1.5446  2.7116
10512TIP3   OH231478   7.396   0.993   5.671  0.5328  0.3882 -0.5007
10512TIP3    H131479   7.327   0.931   5.695  0.0119  1.0147 -0.3291
10512TIP3    H231480   7.416   0.974   5.580  1.3271 -0.9053 -0.0818
10513TIP3   OH231481   4.830   3.895   1.803 -0.1609  0.3262 -0.0479
10513TIP3    H131482   4.767   3.954   1.761  0.5900  0.4929 -0.9635
10513TIP3    H231483   4.847   3.827   1.738 -1.7305 -1.5025  1.3327
10514TIP3   OH231484   6.400   0.283   4.728  0.1631  0.5452  0.3630
10514TIP3    H131485   6.467   0.214   4.725  1.4762  1.7373 -3.0972
10514TIP3    H231486   6.449   0.362   4.751 -0.4964  1.0349  0.1023
10515TIP3   OH231487   6.033   0.789   5.650 -0.1792  0.2175 -0.3607
10515TIP3    H131488   6.009   0.843   5.575 -0.5571 -1.2029 -1.3239
10515TIP3    H231489   6.049   0.702   5.612  1.3069 -0.1432  0.9834
10516TIP3   OH231490   7.083   6.356   6.703 -0.2392 -0.4593  0.1968
10516TIP3    H131491   7.031   6.276   6.691  0.5792 -1.0389  0.4120
10516TIP3    H231492   7.029   6.412   6.759 -2.3810  0.6247 -2.6755
10517TIP3   OH231493   4.455   6.019   1.096 -0.0292 -0.1655 -0.0492
10517TIP3    H131494   4.503   6.063   1.026 -2.6852  1.8156 -0.7951
10517TIP3    H231495   4.408   5.948   1.051  0.9009 -1.0810  0.3896
10518TIP3   OH231496   3.497   0.095   4.035  0.1691 -0.0801 -0.2781
10518TIP3    H131497   3.564   0.163   4.045  1.0227 -1.0990  1.4042
10518TIP3    H231498   3.510   0.062   3.946  0.2867  1.3629 -0.8238
10519TIP3   OH231499   0.732   6.789   2.073 -0.0396 -0.3511  0.2513
10519TIP3    H131500   0.699   6.874   2.101 -0.7671 -0.7509  0.6081
10519TIP3    H231501   0.821   6.786   2.107 -0.5231 -0.3633  1.5567
10520TIP3   OH231502   7.076   5.235   1.345  0.5410  0.2206 -0.4591
10520TIP3    H131503   7.116   5.148   1.353  1.6955  0.7708 -0.0681
10520TIP3    H231504   7.043   5.238   1.255 -0.3966 -0.9792 -0.1772
10521TIP3   OH231505   2.449   3.958   0.364 -0.2182  0.0257 -0.1407
10521TIP3    H131506   2.526   3.952   0.420 -1.0956  1.6878  1.3497
10521TIP3    H231507   2.379   3.985   0.422 -1.5922  0.0682 -1.7406
10522TIP3   OH231508   0.899   1.162   1.228 -0.2642 -0.3583 -0.7029
10522TIP3    H131509   0.864   1.107   1.298 -1.0987 -0.3579 -1.1108
10522TIP3    H231510   0.980   1.117   1.201 -0.3225 -0.7507 -0.2452
10523TIP3   OH231511   4.763   5.322   4.494  0.0095  0.7137  0.0559
10523TIP3    H131512   4.858   5.337   4.501  0.1137  0.3927 -0.5881
10523TIP3    H231513   4.725   5.409   4.496  0.4689  0.9994 -1.6687
10524TIP3   OH231514   4.996   3.021   5.734  0.5083  0.1725 -0.5869
10524TIP3    H131515   5.089   3.035   5.721  0.3804  0.4660 -1.2180
10524TIP3    H231516   4.981   2.930   5.708  0.8386 -0.2844  0.7622
10525TIP3   OH231517   6.804   2.947   6.252  0.6611  0.7567 -0.5883
10525TIP3    H131518   6.722   2.898   6.244 -0.2621  2.2454 -0.6020
10525TIP3    H231519   6.802   2.985   6.340  1.7188  0.1846 -0.2964
10526TIP3   OH231520   2.875   6.883   0.704 -0.4067 -0.3032 -0.9075
10526TIP3    H131521   2.920   6.806   0.739  0.3173 -0.1725 -1.5099
10526TIP3    H231522   2.930   6.957   0.729 -0.0357 -0.1805 -2.0002
10527TIP3   OH231523   3.646   0.430   5.274 -0.2200 -0.4295 -0.7875
10527TIP3    H131524   3.694   0.512   5.273  0.4056 -0.7090  1.3040
10527TIP3    H231525   3.672   0.386   5.193 -0.3139  1.2448 -1.7819
10528TIP3   OH231526   0.219   1.695   3.284 -0.0150  0.0125 -0.0311
10528TIP3    H131527   0.312   1.689   3.302  0.6032  0.9626 -2.5817
10528TIP3    H231528   0.186   1.757   3.350  0.8899 -1.0797  1.5184
10529TIP3   OH231529   7.571   6.526   2.083  0.3179 -0.3721  0.1412
10529TIP3    H131530   7.522   6.459   2.037 -0.0697 -0.6224  0.8912
10529TIP3    H231531   7.651   6.483   2.112  1.5467  0.3272 -2.0356
10530TIP3   OH231532   3.701   4.920   4.468  1.2289  0.0282 -0.2745
10530TIP3    H131533   3.619   4.871   4.456  2.2693 -1.3474 -2.2004
10530TIP3    H231534   3.716   4.918   4.562 -0.8245  0.1500  0.1188
10531TIP3   OH231535   6.222   4.546   1.220  0.6281 -0.2070  0.3223
10531TIP3    H131536   6.217   4.611   1.150  0.8406  0.1663  0.6528
10531TIP3    H231537   6.231   4.462   1.174  2.1156  0.1540 -0.1002
10532TIP3   OH231538   1.010   7.181   0.842  0.2518  0.3484 -0.1253
10532TIP3    H131539   0.952   7.127   0.788  0.1412  1.2735 -0.9508
10532TIP3    H231540   1.098   7.157   0.814  0.2149  0.2870 -0.1885
10533TIP3   OH231541   0.166   7.812   5.776  0.0085 -0.4906 -0.1508
10533TIP3    H131542   0.220   7.738   5.748  0.8233  0.0166  0.0623
10533TIP3    H231543   0.143   7.791   5.867 -0.6527 -0.9853 -0.4214
10534TIP3   OH231544   6.865   4.067   1.835 -0.0243  0.3718 -0.2101
10534TIP3    H131545   6.906   4.039   1.753 -1.5408 -1.1926 -0.4857
10534TIP3    H231546   6.935   4.111   1.883  1.2025  0.2866 -1.8395
10535TIP3   OH231547   5.863   1.003   1.548 -0.1107 -0.4522 -0.3179
10535TIP3    H131548   5.822   0.919   1.568 -1.7521  0.7237  1.6802
10535TIP3    H231549   5.791   1.058   1.516  0.4953  0.7841  0.3801
10536TIP3   OH231550   2.152   1.009   1.020 -0.1053  0.4378  0.1335
10536TIP3    H131551   2.175   1.098   0.993 -0.2764  1.1784  2.2255
10536TIP3    H231552   2.059   1.015   1.044  0.1381 -0.0515  1.2438
10537TIP3   OH231553   7.861   6.957   5.727  0.4098  0.4376  0.5201
10537TIP3    H131554   7.889   6.956   5.635  2.5282  0.0159  1.0957
10537TIP3    H231555   7.802   6.882   5.736 -1.7167  1.8353 -0.9625
10538TIP3   OH231556   2.799   5.773   1.352  0.7945  0.1876 -0.2234
10538TIP3    H131557   2.781   5.867   1.352 -0.4518 -0.0115 -1.5372
10538TIP3    H231558   2.865   5.761   1.420 -0.2500  1.7804  1.1456
10539TIP3   OH231559   2.048   3.401   1.156 -0.2648  0.3045 -0.6092
10539TIP3    H131560   1.994   3.377   1.080  0.2832  1.1294 -1.2736
10539TIP3    H231561   2.051   3.497   1.154 -0.1773  0.3308  0.4156
10540TIP3   OH231562   6.112   0.028   6.323  0.6075 -0.2156  0.0933
10540TIP3    H131563   6.104   0.118   6.290 -0.9368 -0.5648 -0.5585
10540TIP3    H231564   6.169  -0.015   6.260 -0.4755 -0.2660 -0.8925
10541TIP3   OH231565   7.886   7.049   0.485  0.3596  0.0527  0.1766
10541TIP3    H131566   7.957   6.997   0.448  0.4951  0.3079  0.0766
10541TIP3    H231567   7.919   7.139   0.484 -1.0236  0.6295 -2.5374
10542TIP3   OH231568   2.068   3.246   6.413  0.0514 -0.1280 -0.2428
10542TIP3    H131569   2.094   3.173   6.470  0.7711  0.9006  0.7801
10542TIP3    H231570   2.060   3.321   6.472 -2.0698  0.3592 -1.0420
10543TIP3   OH231571   3.100   3.097   4.379 -0.1708 -0.5046 -0.2467
10543TIP3    H131572   3.171   3.045   4.344  1.0710 -0.3046  1.7770
10543TIP3    H231573   3.143   3.177   4.412 -1.4048 -0.1082  0.4728
10544TIP3   OH231574   6.185   7.331   5.444 -0.0563 -0.3425 -0.4310
10544TIP3    H131575   6.169   7.344   5.350  1.3343  0.7507 -0.5469
10544TIP3    H231576   6.277   7.352   5.456  0.3975 -2.7016  0.8213
10545TIP3   OH231577   2.432   3.142   1.479 -0.1511 -0.5419  0.2486
10545TIP3    H131578   2.338   3.157   1.475 -0.1238  0.0095  1.3515
10545TIP3    H231579   2.460   3.185   1.560  1.3214  0.7241 -0.8769
10546TIP3   OH231580   4.900   3.738   6.563  0.2102  0.3087  0.3406
10546TIP3    H131581   4.894   3.654   6.517  1.5493 -0.2745  1.1477
10546TIP3    H231582   4.927   3.800   6.495 -1.5238  0.2669 -0.4225
10547TIP3   OH231583   3.799   2.048   3.614  0.5107  0.6891  0.1167
10547TIP3    H131584   3.705   2.055   3.627  0.1988 -0.4990 -1.3363
10547TIP3    H231585   3.828   1.988   3.683  0.1944  0.9552  0.4865
10548TIP3   OH231586   3.458   3.706   0.472 -0.0410  0.2708  0.0610
10548TIP3    H131587   3.400   3.630   0.474  0.7055 -0.2980  0.5150
10548TIP3    H231588   3.541   3.672   0.439 -0.1279  1.2006 -1.1944
10549TIP3   OH231589   0.121   6.236   5.979 -0.2637  0.5792  0.0422
10549TIP3    H131590   0.093   6.196   5.897 -2.3737 -0.6560  1.2400
10549TIP3    H231591   0.203   6.280   5.959 -0.3484 -0.2959 -2.5277
10550TIP3   OH231592   0.703   2.620   1.530  0.1065  0.4836 -0.2919
10550TIP3    H131593   0.664   2.543   1.489  0.1464 -0.3485  1.1917
10550TIP3    H231594   0.773   2.646   1.470 -0.1344 -0.4202 -0.9804
10551TIP3   OH231595   5.546   2.982   1.734 -0.4630 -0.6069 -0.2844
10551TIP3    H131596   5.546   3.070   1.773  2.8035 -0.4166 -0.4299
10551TIP3    H231597   5.521   2.924   1.805 -1.0087  0.2930  0.2790
10552TIP3   OH231598   2.046   3.981   6.205  0.5523  0.0362  0.0431
10552TIP3    H131599   1.961   3.937   6.201  0.6246 -0.0449 -0.5975
10552TIP3    H231600   2.062   4.012   6.116  1.1547  0.1292  0.1797
10553TIP3   OH231601   4.849   0.908   5.083 -0.3579  0.8186  0.1098
10553TIP3    H131602   4.830   0.815   5.094  0.5317  0.7980  1.7477
10553TIP3    H231603   4.768   0.945   5.047 -1.2064 -0.3486  0.7679
10554TIP3   OH231604   4.481   4.089   6.704  0.2313  0.8142  0.3432
10554TIP3    H131605   4.443   4.149   6.640 -0.1644 -1.2085 -1.4335
10554TIP3    H231606   4.575   4.110   6.705  0.0649  1.5908 -0.0586
10555TIP3   OH231607   1.769   7.656   1.370  0.4342 -0.0084  0.4640
10555TIP3    H131608   1.727   7.577   1.404 -1.6884  0.4330 -0.9357
10555TIP3    H231609   1.762   7.720   1.441  0.0889 -0.3973  0.7825
10556TIP3   OH231610   2.889   3.730   6.104  0.5625 -0.2751 -0.3136
10556TIP3    H131611   2.870   3.640   6.078  1.2536 -0.9166  1.2580
10556TIP3    H231612   2.813   3.757   6.155  1.9326 -1.3969  2.5048
10557TIP3   OH231613   4.050   7.507   6.573 -0.0893  0.0475  0.4803
10557TIP3    H131614   4.029   7.582   6.518  0.3904  0.8922  1.4148
10557TIP3    H231615   4.146   7.504   6.575 -0.1031 -0.3012  0.8159
10558TIP3   OH231616   0.240   2.602   2.101  0.0905 -0.4403  0.2554
10558TIP3    H131617   0.276   2.549   2.030 -0.2453 -0.7138  0.2907
10558TIP3    H231618   0.303   2.591   2.173  2.9056  3.2890 -1.3008
10559TIP3   OH231619   3.531   4.141   4.824  0.3994  0.2943  0.0383
10559TIP3    H131620   3.609   4.108   4.781  0.8144  0.9412  0.2753
10559TIP3    H231621   3.520   4.230   4.788 -0.6341 -0.0464 -0.5258
10560TIP3   OH231622   4.936   7.137   5.945 -0.1466  0.3134  0.1563
10560TIP3    H131623   4.875   7.124   5.873  1.4274  0.7087 -1.3306
10560TIP3    H231624   4.905   7.078   6.014 -1.7263 -0.0474 -0.8197
10561TIP3   OH231625   2.208   2.067   1.439 -0.5565 -0.1700  0.0929
10561TIP3    H131626   2.199   2.138   1.503  0.8802 -0.8961  1.1461
10561TIP3    H231627   2.279   2.095   1.382 -1.1649  0.0102 -0.6001
10562TIP3   OH231628   6.989   7.228   6.606  0.4431 -0.1147  0.3429
10562TIP3    H131629   6.904   7.214   6.649  0.4530 -2.1825 -0.2139
10562TIP3    H231630   7.035   7.144   6.615  2.0092  0.6263 -0.3101
10563TIP3   OH231631   6.777   1.304   1.927 -0.0919  0.3547 -0.1705
10563TIP3    H131632   6.762   1.287   2.019  3.0311  0.4563  0.4694
10563TIP3    H231633   6.788   1.399   1.921 -1.8462  0.5446 -0.9744
10564TIP3   OH231634   5.081   6.660   4.339 -0.0880 -0.0162  0.0843
10564TIP3    H131635   5.108   6.722   4.272  0.2518 -0.7959 -0.5214
10564TIP3    H231636   5.036   6.713   4.404 -1.4296  0.6312 -1.2963
10565TIP3   OH231637   0.316   3.148   3.236 -0.3625  0.1265  0.1656
10565TIP3    H131638   0.346   3.165   3.325 -0.2153  0.1135  0.1176
10565TIP3    H231639   0.240   3.206   3.225  0.1859  0.8219 -0.0278
10566TIP3   OH231640   4.885   5.130   5.880  0.0313 -0.4552 -0.1894
10566TIP3    H131641   4.973   5.126   5.918 -0.0227 -0.3904 -0.0562
10566TIP3    H231642   4.862   5.223   5.883  0.1043 -0.4238 -0.5622
10567TIP3   OH231643   6.539   3.480   0.805 -0.0481  0.6303  0.0236
10567TIP3    H131644   6.625   3.522   0.809 -0.1724  1.0453 -1.2300
10567TIP3    H231645   6.501   3.494   0.891  1.0237  0.6950  0.4942
10568TIP3   OH231646   3.281   0.355   0.395  0.1667 -0.3537 -0.1425
10568TIP3    H131647   3.375   0.337   0.398 -0.0137 -1.3446  0.0771
10568TIP3    H231648   3.265   0.409   0.473  0.5016 -0.4896  0.0240
10569TIP3   OH231649   1.617   1.591   2.531 -0.5591  0.2984 -0.2613
10569TIP3    H131650   1.662   1.554   2.455  1.3250 -1.7228  1.6989
10569TIP3    H231651   1.532   1.549   2.531  0.5580 -2.1456  0.3884
10570TIP3   OH231652   4.016   4.992   0.867  0.2501  0.2577  0.0925
10570TIP3    H131653   3.943   5.042   0.831  2.2263  1.8044 -2.0432
10570TIP3    H231654   4.037   4.927   0.800  1.2252  0.2533  0.3880
10571TIP3   OH231655   7.951   5.928  -0.015 -0.1155 -0.0579 -0.2271
10571TIP3    H131656   8.030   5.887  -0.050 -0.3652 -0.7590  0.0106
10571TIP3    H231657   7.974   5.950   0.076  0.9896  2.9751 -1.1069
10572TIP3   OH231658   4.118   3.649   4.176 -0.2865 -0.2941 -0.0494
10572TIP3    H131659   4.182   3.653   4.105  0.2516 -0.5123  0.4195
10572TIP3    H231660   4.043   3.699   4.143  0.8368  1.6177  0.1383
10573TIP3   OH231661   3.528   1.841   1.180  0.0190 -0.2051  0.2891
10573TIP3    H131662   3.505   1.884   1.263  0.0839 -1.5519  1.0366
10573TIP3    H231663   3.623   1.835   1.181 -0.0349 -1.1851  0.6413
10574TIP3   OH231664   5.682   6.490   0.540 -0.3129  0.1233  0.1008
10574TIP3    H131665   5.662   6.397   0.530 -0.8572  0.2298  0.1510
10574TIP3    H231666   5.663   6.508   0.632  0.2311  0.1841  0.2055
10575TIP3   OH231667   8.016   7.275   6.005  0.6439  0.6265  0.3838
10575TIP3    H131668   7.977   7.354   6.043 -1.1079 -0.0653  0.1503
10575TIP3    H231669   7.965   7.259   5.926 -1.0692 -2.3075  1.9195
10576TIP3   OH231670   2.164   3.682   5.037  0.4311  0.2203  0.0541
10576TIP3    H131671   2.221   3.706   4.964  1.2550  1.1053  0.9464
10576TIP3    H231672   2.205   3.605   5.076  0.9965  0.8128  0.6510
10577TIP3   OH231673   3.671   7.758   0.138 -0.0275 -0.6454 -0.2256
10577TIP3    H131674   3.587   7.784   0.101  0.1888 -1.2242 -1.1744
10577TIP3    H231675   3.733   7.823   0.105 -0.1547 -0.0148  0.7634
10578TIP3   OH231676   5.874   4.424   1.039 -0.9596  0.2743 -0.2635
10578TIP3    H131677   5.793   4.431   0.988 -1.0117 -2.3124 -0.6506
10578TIP3    H231678   5.943   4.410   0.974 -0.3756  1.1459  0.1469
10579TIP3   OH231679   7.396   1.034   6.437 -0.0804  0.2188  0.1017
10579TIP3    H131680   7.321   0.975   6.439 -0.3975  0.4927 -1.7262
10579TIP3    H231681   7.433   1.030   6.525 -1.2771 -1.1591  0.5690
10580TIP3   OH231682   5.342   1.833   1.466  0.0251  0.1240 -0.0439
10580TIP3    H131683   5.288   1.753   1.463 -0.1982  0.3193 -1.8345
10580TIP3    H231684   5.296   1.896   1.411 -0.3019  1.8673  2.0715
10581TIP3   OH231685   2.969   1.958   4.103  0.1660  0.2091  0.0153
10581TIP3    H131686   2.990   1.952   4.197 -0.8036  0.9543  0.2937
10581TIP3    H231687   2.878   1.929   4.097 -0.4087  2.0137 -0.4061
10582TIP3   OH231688   0.110   2.666   6.382 -0.0927  0.2854  0.3070
10582TIP3    H131689   0.036   2.719   6.352  0.7651  0.9646 -0.7134
10582TIP3    H231690   0.110   2.590   6.323 -0.3024  0.0133  0.6588
10583TIP3   OH231691   5.865   5.344   6.706  0.2552  0.2898 -0.3236
10583TIP3    H131692   5.828   5.398   6.637 -2.4781  2.3018  2.4391
10583TIP3    H231693   5.907   5.406   6.766  0.5207 -1.0734  0.9732
10584TIP3   OH231694   0.696   1.944   2.049  0.0930  0.1060 -0.4812
10584TIP3    H131695   0.645   1.882   2.100  0.9977  0.5936  1.0845
10584TIP3    H231696   0.787   1.918   2.063  0.5935  2.4356  1.2203
10585TIP3   OH231697   2.852   5.664   6.264 -0.0725  0.1292  0.8319
10585TIP3    H131698   2.849   5.624   6.178 -1.3801  0.0215  0.9116
10585TIP3    H231699   2.881   5.754   6.248  0.7704 -0.2090  0.4152
10586TIP3   OH231700   6.517   3.652   4.876  0.3792 -0.1394  0.0433
10586TIP3    H131701   6.521   3.729   4.933  0.7629 -1.0512  1.2796
10586TIP3    H231702   6.546   3.579   4.931  0.4059 -1.1170 -1.2147
10587TIP3   OH231703   4.072   6.321   4.270  0.3447 -0.3597 -0.0370
10587TIP3    H131704   4.139   6.305   4.337 -0.2359 -1.8438  0.2316
10587TIP3    H231705   4.113   6.383   4.210  2.5187 -2.2273 -0.6333
10588TIP3   OH231706   6.487   1.218   4.833  0.0445  0.3326 -0.3229
10588TIP3    H131707   6.519   1.272   4.761 -2.2018  0.6340 -1.1627
10588TIP3    H231708   6.472   1.132   4.794  0.4277  0.0126  0.2171
10589TIP3   OH231709   4.672   4.552   0.906 -0.6963  0.0886 -0.1531
10589TIP3    H131710   4.577   4.556   0.915 -0.7641 -0.7543 -0.4062
10589TIP3    H231711   4.699   4.480   0.963 -0.3019 -0.1960 -0.6835
10590TIP3   OH231712   2.075   5.420   5.406  0.2336  0.2219 -0.2630
10590TIP3    H131713   2.055   5.427   5.313 -0.7566  0.2616 -0.0627
10590TIP3    H231714   2.044   5.502   5.444 -0.5138 -0.2887  0.2759
10591TIP3   OH231715   3.006   7.029   0.189  0.0642  0.4462 -0.2475
10591TIP3    H131716   3.097   7.050   0.210  1.1714 -2.4877 -1.5798
10591TIP3    H231717   2.980   6.965   0.256 -0.7300  0.6425 -0.3589
10592TIP3   OH231718   7.003   2.301   3.443  0.6879  0.4939  0.3530
10592TIP3    H131719   7.095   2.304   3.417  0.2930  1.1954 -1.0449
10592TIP3    H231720   6.955   2.313   3.362 -0.6439  0.6036  1.1337
10593TIP3   OH231721   0.509   3.318   4.367  0.2665  0.9796 -0.0709
10593TIP3    H131722   0.585   3.346   4.418 -0.6584  1.8760  0.8562
10593TIP3    H231723   0.466   3.400   4.342 -0.0846  0.5028 -1.1110
10594TIP3   OH231724   4.603   7.219   0.512 -0.9868  0.7134  0.1762
10594TIP3    H131725   4.603   7.278   0.437 -0.0045  1.8133  1.0100
10594TIP3    H231726   4.510   7.212   0.536 -1.2285  1.0134 -0.6141
10595TIP3   OH231727   1.023   4.029   6.763 -0.5453  0.0223 -0.1750
10595TIP3    H131728   1.017   4.065   6.675  0.6461  1.4371  0.2924
10595TIP3    H231729   1.107   4.061   6.797 -2.1104  1.7641  2.4147
10596TIP3   OH231730   1.075   4.025   0.641  0.2390 -0.1432  0.3938
10596TIP3    H131731   1.018   4.083   0.692 -0.6408 -1.1005  0.5447
10596TIP3    H231732   1.050   3.937   0.670 -0.0081 -0.6963 -1.4280
10597TIP3   OH231733   6.788   4.417   2.597  0.4913 -0.1010 -0.1150
10597TIP3    H131734   6.856   4.363   2.637  0.2146 -0.8132 -0.6019
10597TIP3    H231735   6.769   4.374   2.514 -0.7017 -0.0186  0.1096
10598TIP3   OH231736   2.859   2.428   3.524  0.1715 -0.0031  0.3257
10598TIP3    H131737   2.815   2.509   3.497  0.1325 -0.6562 -1.7810
10598TIP3    H231738   2.952   2.444   3.506  0.1194 -0.5363 -0.4755
10599TIP3   OH231739   3.913   7.098   6.299 -0.1174  0.2008 -0.3405
10599TIP3    H131740   3.903   7.023   6.358  0.5137  0.9288  0.7232
10599TIP3    H231741   3.838   7.091   6.239 -1.1221 -0.2449  0.9089
10600TIP3   OH231742   5.004   6.510   2.110  0.2788 -0.7718 -0.3394
10600TIP3    H131743   5.090   6.470   2.101  0.9406  0.7904 -1.3481
10600TIP3    H231744   5.021   6.604   2.117 -1.2816 -0.5365  0.7715
10601TIP3   OH231745   4.292   4.688   2.144  0.1765 -0.5394 -0.1441
10601TIP3    H131746   4.226   4.729   2.086  0.3330 -1.2629 -0.8543
10601TIP3    H231747   4.257   4.700   2.232 -0.5126 -0.2026 -0.4520
10602TIP3   OH231748   1.607   5.938   2.928 -0.2597  0.5062  0.3452
10602TIP3    H131749   1.532   5.925   2.870 -1.5118  4.0274  0.9374
10602TIP3    H231750   1.591   5.877   3.000 -0.6811 -1.2118 -1.1131
10603TIP3   OH231751   1.405   3.925   2.118 -0.3296  0.4344  0.1866
10603TIP3    H131752   1.378   3.967   2.036  1.6450 -1.5132 -1.6021
10603TIP3    H231753   1.500   3.923   2.113 -0.2176 -0.6948  2.0496
10604TIP3   OH231754   2.040   3.020   1.110  0.4489  0.1883 -0.4478
10604TIP3    H131755   1.956   3.056   1.080  0.2759 -0.3163 -0.5831
10604TIP3    H231756   2.021   2.988   1.198  0.5476  0.2374 -0.4092
10605TIP3   OH231757   4.681   0.536   2.784  0.1500  0.6008 -0.4861
10605TIP3    H131758   4.684   0.471   2.713  1.8247  0.5334 -0.3965
10605TIP3    H231759   4.757   0.593   2.767 -0.0611  1.2394  0.6469
10606TIP3   OH231760   1.873   4.885   6.737 -0.1773 -0.2521  0.2051
10606TIP3    H131761   1.842   4.963   6.783 -0.5539  0.4892 -1.2108
10606TIP3    H231762   1.939   4.919   6.676 -1.8256 -0.6336 -1.9341
10607TIP3   OH231763   7.502   2.019   5.428 -0.0393 -0.5087 -0.1151
10607TIP3    H131764   7.416   2.047   5.458  0.5099  0.3448  0.6893
10607TIP3    H231765   7.520   2.074   5.352  0.2865  0.1168  0.4107
10608TIP3   OH231766   5.615   6.423   0.806  0.0365 -0.6461  0.0824
10608TIP3    H131767   5.523   6.399   0.795 -0.1408  0.1130 -0.1386
10608TIP3    H231768   5.640   6.383   0.889 -0.8375  0.1492  0.7415
10609TIP3   OH231769   5.036   6.450   6.753  0.2460 -0.0697  0.2828
10609TIP3    H131770   5.012   6.374   6.807  0.2277 -2.1761 -2.4257
10609TIP3    H231771   5.073   6.411   6.673 -1.2878  2.7230 -1.9757
10610TIP3   OH231772   1.963   4.335   3.191  0.1491 -0.3943  0.0410
10610TIP3    H131773   2.026   4.321   3.120 -0.4614  0.4061 -0.6868
10610TIP3    H231774   1.949   4.430   3.192  1.2257 -0.2046  2.1993
10611TIP3   OH231775   4.518   0.592   4.028 -0.1009 -0.2432  0.6693
10611TIP3    H131776   4.478   0.554   3.950  0.7161 -1.2364  0.7158
10611TIP3    H231777   4.514   0.523   4.094 -0.7318  0.5678  1.5079
10612TIP3   OH231778   5.138   7.678   4.906 -0.2387 -0.1371 -0.1124
10612TIP3    H131779   5.209   7.614   4.908  0.1350  0.2598 -0.4628
10612TIP3    H231780   5.159   7.735   4.832  0.4355  1.5144  1.2771
10613TIP3   OH231781   2.330   0.275   2.249 -0.3042 -0.1371  0.1656
10613TIP3    H131782   2.395   0.205   2.243  1.1781  1.1539  0.4409
10613TIP3    H231783   2.348   0.331   2.173 -0.8004  0.4891  0.5018
10614TIP3   OH231784   6.645   5.752   4.825 -0.2527  0.3708 -0.0827
10614TIP3    H131785   6.739   5.733   4.824 -0.0526  1.2322 -1.9898
10614TIP3    H231786   6.625   5.768   4.917  0.8304 -2.6402  0.7990
10615TIP3   OH231787   6.894   6.526   4.559  0.0727  0.2314 -0.0433
10615TIP3    H131788   6.845   6.556   4.482 -0.9412  1.2587  0.9639
10615TIP3    H231789   6.888   6.430   4.556 -0.2600  0.2736 -1.0353
10616TIP3   OH231790   5.498   4.132   3.644  0.3382  0.1557  0.6347
10616TIP3    H131791   5.584   4.110   3.608 -0.5965  0.2991 -1.8479
10616TIP3    H231792   5.505   4.225   3.666  0.9333  0.0635  0.8705
10617TIP3   OH231793   6.435   7.834   4.042  0.0519  0.0085  0.3829
10617TIP3    H131794   6.395   7.755   4.079 -2.3239  0.7040 -0.5394
10617TIP3    H231795   6.459   7.886   4.119  1.3455 -1.3937  1.0000
10618TIP3   OH231796   3.574   5.426   5.085 -0.0686  0.2368 -0.1884
10618TIP3    H131797   3.631   5.358   5.049  1.6512  2.1926 -1.3332
10618TIP3    H231798   3.506   5.438   5.018 -0.9989 -0.9735  0.4719
10619TIP3   OH231799   4.123   0.536   2.353  0.3421 -0.6769  0.4473
10619TIP3    H131800   4.143   0.460   2.299  0.2301 -0.5282  0.1965
10619TIP3    H231801   4.028   0.539   2.357  0.3506 -0.7123  0.6882
10620TIP3   OH231802   2.705   2.322   5.770 -0.1494 -0.1047  0.5279
10620TIP3    H131803   2.696   2.269   5.850  0.3878  1.1910  1.4860
10620TIP3    H231804   2.765   2.392   5.795  0.6228 -0.0840 -1.2546
10621TIP3   OH231805   4.684   0.739   1.838  0.2964 -0.4462  0.3876
10621TIP3    H131806   4.656   0.826   1.810  0.9889 -0.2791  0.1835
10621TIP3    H231807   4.607   0.701   1.880  0.4417  0.8912  1.9486
10622TIP3   OH231808   7.323   0.627   4.782  0.1054  0.0976 -0.0736
10622TIP3    H131809   7.313   0.534   4.759 -0.4114 -0.2001  1.2545
10622TIP3    H231810   7.391   0.659   4.723  1.2894 -1.4930  0.3553
10623TIP3   OH231811   1.653   4.200   2.042 -0.5507  0.7198 -0.0631
10623TIP3    H131812   1.591   4.205   1.969 -0.1645  1.1932 -0.3643
10623TIP3    H231813   1.739   4.210   2.001 -0.3150  0.7346  0.4287
10624TIP3   OH231814   4.971   2.128   2.207  0.3096 -0.3747 -0.0942
10624TIP3    H131815   4.934   2.215   2.195  0.8303 -0.3235 -1.5473
10624TIP3    H231816   4.927   2.074   2.141 -0.9816 -1.5619  1.6475
10625TIP3   OH231817   4.573   4.725   3.912 -0.3648 -0.3064 -0.2193
10625TIP3    H131818   4.650   4.732   3.855 -1.1262  0.3409 -1.1921
10625TIP3    H231819   4.610   4.709   3.999  0.8902  0.2246 -0.6205
10626TIP3   OH231820   2.060   6.221   4.246  0.0573 -0.7862 -0.4287
10626TIP3    H131821   2.014   6.214   4.162  1.0043  2.4280 -1.3776
10626TIP3    H231822   2.130   6.156   4.240 -1.2965 -2.2815 -1.0410
10627TIP3   OH231823   3.337   3.189   1.986  0.8821  0.3376  0.3966
10627TIP3    H131824   3.284   3.268   1.995 -0.7820 -0.7681  0.7549
10627TIP3    H231825   3.318   3.156   1.899  3.4966  1.5940 -0.7625
10628TIP3   OH231826   0.257   3.912   2.278 -0.4642  0.0037  0.1452
10628TIP3    H131827   0.335   3.906   2.333 -0.0849  1.1874 -0.2322
10628TIP3    H231828   0.184   3.902   2.339 -0.0509  1.2981  0.8842
10629TIP3   OH231829   2.883   2.000   5.969  0.4977  0.3348  0.0540
10629TIP3    H131830   2.890   1.958   5.884 -1.2716  0.6384 -0.2933
10629TIP3    H231831   2.909   2.091   5.953 -1.3037  0.7910 -0.5760
10630TIP3   OH231832   0.577   3.801   2.019 -0.2255 -0.8652  0.2827
10630TIP3    H131833   0.529   3.728   2.058  1.6953 -2.5183 -0.2727
10630TIP3    H231834   0.537   3.879   2.057 -2.9273 -2.1266  0.2494
10631TIP3   OH231835   4.829   4.250   3.190 -0.2906 -0.1783 -0.2111
10631TIP3    H131836   4.758   4.313   3.181  0.1507  0.2367 -0.9292
10631TIP3    H231837   4.906   4.296   3.157  0.0470 -1.0852 -0.7323
10632TIP3   OH231838   6.437   1.667   5.608 -0.1792  0.1685  0.7523
10632TIP3    H131839   6.397   1.582   5.625 -1.9306  0.8470  0.2993
10632TIP3    H231840   6.427   1.714   5.691 -1.3967  0.7159  0.3251
10633TIP3   OH231841   7.427   6.344   3.529 -0.3775  0.0461  0.4015
10633TIP3    H131842   7.509   6.313   3.490 -1.5130 -2.7731  0.0491
10633TIP3    H231843   7.369   6.358   3.453 -0.7399  0.4568  0.7487
10634TIP3   OH231844   2.166   5.572   2.185 -0.1442  0.1619 -0.5169
10634TIP3    H131845   2.114   5.609   2.256  0.4634  0.4944 -0.2463
10634TIP3    H231846   2.167   5.478   2.203 -0.6007  0.1586 -0.4937
10635TIP3   OH231847   2.828   4.277   0.132 -0.0813  0.4469 -0.4678
10635TIP3    H131848   2.785   4.227   0.062 -1.3310  0.3439  0.3377
10635TIP3    H231849   2.840   4.365   0.094  1.1008 -0.1206 -1.4910
10636TIP3   OH231850   6.992   3.727   4.110  0.3676  0.2124 -0.1304
10636TIP3    H131851   6.898   3.746   4.115  0.2899 -0.3026  0.6136
10636TIP3    H231852   7.028   3.797   4.056 -0.2371  1.1432  0.6563
10637TIP3   OH231853   5.731   0.739   2.833  0.2862 -0.2038  0.4811
10637TIP3    H131854   5.677   0.731   2.911 -0.1945 -0.6948  0.1033
10637TIP3    H231855   5.804   0.794   2.860  0.3357 -0.6986  1.3886
10638TIP3   OH231856   2.667   0.662   2.997 -0.2447  0.7222 -0.4542
10638TIP3    H131857   2.678   0.576   2.955 -1.2871 -0.1358  0.9329
10638TIP3    H231858   2.754   0.700   2.998  0.8573 -1.6073  1.5127
10639TIP3   OH231859   1.372   0.311   1.978  0.2700 -0.0810 -0.3163
10639TIP3    H131860   1.327   0.227   1.989 -0.5404  0.3661 -0.1698
10639TIP3    H231861   1.461   0.294   2.007 -0.0645 -0.7161  0.3757
10640TIP3   OH231862   4.187   3.984   2.933 -0.2110  0.5635  0.3533
10640TIP3    H131863   4.251   3.913   2.944 -1.1353 -0.4570 -0.6021
10640TIP3    H231864   4.139   3.985   3.016  0.0183  0.2795  0.4930
10641TIP3   OH231865   5.966   5.553   2.285 -0.0653  0.4482  0.1355
10641TIP3    H131866   5.880   5.569   2.246 -0.6887 -1.7317  0.4549
10641TIP3    H231867   5.959   5.465   2.322  2.7730 -0.4739 -1.1913
10642TIP3   OH231868   1.384   5.456   2.903  0.2333  0.0696  0.1867
10642TIP3    H131869   1.321   5.385   2.890 -0.3806  0.3690  1.3702
10642TIP3    H231870   1.460   5.430   2.852 -0.4814 -0.7870 -0.4758
10643TIP3   OH231871   7.974   5.034   4.691  0.0915  0.1549 -0.2295
10643TIP3    H131872   7.882   5.008   4.697  0.2232 -0.0890  0.9736
10643TIP3    H231873   8.023   4.952   4.695  0.4441  0.4002  2.0075
10644TIP3   OH231874   3.586   1.128   3.071 -0.1063 -0.0331 -0.0438
10644TIP3    H131875   3.662   1.115   3.014  0.5397 -1.8358  1.1662
10644TIP3    H231876   3.610   1.204   3.124  0.9716 -0.6910  0.4564
10645TIP3   OH231877   0.726   0.551   5.013  0.3511 -0.0023 -0.9338
10645TIP3    H131878   0.784   0.528   4.940  0.2997 -0.3178 -0.8798
10645TIP3    H231879   0.724   0.646   5.014  0.6019  0.0060 -1.1486
10646TIP3   OH231880   2.566   4.980   6.483  0.0846  0.0818 -0.0485
10646TIP3    H131881   2.506   4.983   6.408 -1.5708 -0.6801  1.1813
10646TIP3    H231882   2.539   4.903   6.532  1.6635  0.1099  0.9268
10647TIP3   OH231883   1.020   7.783   3.972 -0.0370  0.1523 -0.3367
10647TIP3    H131884   0.966   7.824   3.904 -0.0177  0.9135  0.0947
10647TIP3    H231885   1.066   7.856   4.014  0.2294 -0.3422  0.2570
10648TIP3   OH231886   2.307   3.496   2.704 -0.7551  0.3295  0.0916
10648TIP3    H131887   2.359   3.442   2.645  1.5698  1.4770  0.9554
10648TIP3    H231888   2.234   3.528   2.650 -0.1496 -0.7107 -1.3981
10649TIP3   OH231889   1.978   0.660   3.743  0.3167  0.0725 -0.3485
10649TIP3    H131890   2.036   0.586   3.727 -0.9231 -1.0649  0.2474
10649TIP3    H231891   1.895   0.621   3.769 -0.7666  1.6495 -1.2431
10650TIP3   OH231892   2.522   6.753   3.663  0.4098  0.7957 -0.3127
10650TIP3    H131893   2.599   6.777   3.611 -0.7505  1.3350 -1.8680
10650TIP3    H231894   2.533   6.660   3.681  0.6311  0.4695 -1.9824
10651TIP3   OH231895   0.926   3.810   6.599 -0.1794  0.0849  0.4305
10651TIP3    H131896   1.014   3.813   6.637  0.4050  0.7751 -0.8881
10651TIP3    H231897   0.917   3.720   6.567  0.9761  0.5589 -1.3959
10652TIP3   OH231898   0.335   3.259   6.457  0.7575  0.7399 -0.7113
10652TIP3    H131899   0.267   3.326   6.443 -0.2926 -0.2094 -0.3250
10652TIP3    H231900   0.296   3.179   6.423  0.3748 -0.4904  2.3063
10653TIP3   OH231901   6.183   3.144   6.532  0.1623 -0.3968  0.1168
10653TIP3    H131902   6.150   3.219   6.581  0.9433 -0.3506  0.5942
10653TIP3    H231903   6.180   3.172   6.440  1.3493  0.5985  0.3607
10654TIP3   OH231904   8.039   1.199   3.902  0.1993 -0.0277  0.7326
10654TIP3    H131905   8.023   1.201   3.996 -2.1923 -0.8345  0.4269
10654TIP3    H231906   7.955   1.172   3.865  1.6315 -1.7421 -1.4944
10655TIP3   OH231907   0.088   1.569   3.036 -0.0768  0.4343 -0.2457
10655TIP3    H131908   0.003   1.552   2.995 -0.3975  3.1577 -0.9545
10655TIP3    H231909   0.152   1.536   2.973 -0.5531 -1.7441  0.3431
10656TIP3   OH231910   2.385   0.027   4.477 -0.5940  0.2514  0.1253
10656TIP3    H131911   2.372   0.108   4.427 -1.0189  0.4790  0.5991
10656TIP3    H231912   2.457  -0.017   4.432 -2.1153 -0.4287 -1.8340
10657TIP3   OH231913   6.053   0.081   5.627  0.7255  0.0966 -0.5404
10657TIP3    H131914   6.110   0.101   5.702  1.1896 -2.1353 -0.2211
10657TIP3    H231915   6.038  -0.013   5.634 -2.9884  0.5402 -0.6585
10658TIP3   OH231916   6.575   1.415   6.493  0.6694  0.5041  0.1954
10658TIP3    H131917   6.532   1.335   6.524 -0.2439 -0.3939 -2.9580
10658TIP3    H231918   6.529   1.486   6.536  1.3998 -0.5834  2.9776
10659TIP3   OH231919   2.538   4.632   0.823  0.1880  0.2997 -0.3645
10659TIP3    H131920   2.604   4.644   0.754 -1.8816  1.0174 -2.3266
10659TIP3    H231921   2.560   4.547   0.862  1.0317 -0.4674 -2.3828
10660TIP3   OH231922   5.333   2.406   3.766 -0.1260 -0.0693  0.1341
10660TIP3    H131923   5.403   2.438   3.822  1.3172 -0.5972 -1.2962
10660TIP3    H231924   5.301   2.327   3.811 -1.0338  1.1097  1.6645
10661TIP3   OH231925   7.762   1.411   1.668  0.3452  0.7038  0.0077
10661TIP3    H131926   7.696   1.474   1.639 -1.1043 -0.2061  1.1557
10661TIP3    H231927   7.817   1.461   1.729 -0.4125  1.0311  0.4376
10662TIP3   OH231928   0.468   5.173   4.663  0.0284  0.5559 -0.1144
10662TIP3    H131929   0.411   5.138   4.595  0.0724 -0.2264  0.2433
10662TIP3    H231930   0.415   5.239   4.708 -0.3167  0.4132 -0.3096
10663TIP3   OH231931   4.355   4.715   4.207 -0.0780 -0.5229  0.0053
10663TIP3    H131932   4.285   4.689   4.148  1.1277  0.6458 -2.0518
10663TIP3    H231933   4.430   4.661   4.181  0.0453 -1.2374  1.6793
10664TIP3   OH231934   7.275   0.876   3.178 -0.1010 -0.1338 -0.2793
10664TIP3    H131935   7.304   0.849   3.091  0.7552  1.9107 -0.6688
10664TIP3    H231936   7.240   0.964   3.166  0.0333  0.1964  1.4533
10665TIP3   OH231937   4.946   2.103   3.831 -0.3863 -0.4053  0.5111
10665TIP3    H131938   4.954   2.032   3.895 -0.0297 -1.1727 -0.3478
10665TIP3    H231939   4.896   2.064   3.759  0.9930 -0.2486 -0.5798
10666TIP3   OH231940   0.601   2.808   6.044  0.1973  0.2140  0.1558
10666TIP3    H131941   0.507   2.825   6.044  0.5203  2.3449 -1.1828
10666TIP3    H231942   0.610   2.724   5.999 -0.8549  2.2673 -4.4409
10667TIP3   OH231943   3.851   3.213   0.259  0.1448 -0.3415  0.4381
10667TIP3    H131944   3.760   3.236   0.280 -0.1145 -1.3378  0.4472
10667TIP3    H231945   3.900   3.237   0.337 -0.0687  0.4459  0.3347
10668TIP3   OH231946   3.546   1.541   2.174 -0.2463  0.3342  0.5782
10668TIP3    H131947   3.500   1.512   2.253 -0.2623  2.6041  1.4759
10668TIP3    H231948   3.626   1.490   2.173 -1.1708 -1.1986  0.8993
10669TIP3   OH231949   4.096   4.287   0.886  0.3079  0.3177  0.3535
10669TIP3    H131950   4.094   4.223   0.815  0.0643 -0.2735  0.8790
10669TIP3    H231951   4.051   4.364   0.851  1.2698  0.4898 -0.5494
10670TIP3   OH231952   2.738   6.144   3.504 -0.3435 -0.4710 -0.1525
10670TIP3    H131953   2.717   6.073   3.565 -0.8951 -0.6849 -0.5780
10670TIP3    H231954   2.804   6.196   3.549 -0.4860 -0.8264  0.4768
10671TIP3   OH231955   1.781   2.441   2.113  0.2902  0.3781 -0.1154
10671TIP3    H131956   1.692   2.452   2.146 -0.5604 -1.1027 -1.7501
10671TIP3    H231957   1.813   2.360   2.153  1.3483  1.4150  1.2622
10672TIP3   OH231958   4.218   6.069   5.035  0.1020 -0.7337 -0.2342
10672TIP3    H131959   4.164   6.082   5.113 -0.0728 -2.3390 -0.0582
10672TIP3    H231960   4.203   5.978   5.010  2.1114 -0.9909 -0.6548
10673TIP3   OH231961   0.629   0.680   2.146  0.0995  0.2154  0.2001
10673TIP3    H131962   0.648   0.672   2.052 -0.1859  1.2449  0.0390
10673TIP3    H231963   0.533   0.684   2.150 -0.0045 -1.7293  0.7233
10674TIP3   OH231964   2.736   2.525   0.658  0.0767 -0.5122 -0.1053
10674TIP3    H131965   2.780   2.475   0.726 -0.2330 -1.1558 -0.3652
10674TIP3    H231966   2.731   2.614   0.692  1.6166 -0.4062 -0.0927
10675TIP3   OH231967   3.519   5.334   3.890  0.2796 -0.2537  0.0702
10675TIP3    H131968   3.571   5.359   3.813 -1.5074  0.2443 -1.0159
10675TIP3    H231969   3.513   5.238   3.885  1.1691 -0.3372  0.2975
10676TIP3   OH231970   3.186   6.109   5.517 -0.7993 -0.1809  0.7146
10676TIP3    H131971   3.242   6.183   5.539  0.2821 -0.8233  0.2176
10676TIP3    H231972   3.127   6.143   5.450 -0.5683  0.3349  0.7654
10677TIP3   OH231973   7.192   7.182   1.261 -0.0552  0.5192  0.2873
10677TIP3    H131974   7.228   7.254   1.210  0.2531  0.6794  0.7284
10677TIP3    H231975   7.254   7.110   1.250  0.6221  0.9128  1.3517
10678TIP3   OH231976   0.518   6.640   3.505  0.1317 -0.0963  0.4447
10678TIP3    H131977   0.501   6.618   3.596 -0.4470  0.9481  0.6116
10678TIP3    H231978   0.448   6.701   3.482  0.2893 -0.3254 -0.6896
10679TIP3   OH231979   0.976   7.063   1.303  0.5164 -0.6035  0.0462
10679TIP3    H131980   0.979   7.005   1.380  0.5721 -0.1836  0.3627
10679TIP3    H231981   1.061   7.052   1.261  1.0893  0.3454  0.9231
10680TIP3   OH231982   2.975   5.024   6.243 -0.4324 -0.2995  0.5654
10680TIP3    H131983   3.036   5.086   6.282 -1.5290  1.2990 -0.1709
10680TIP3    H231984   2.901   5.077   6.215 -1.4446 -1.9566 -0.0459
10681TIP3   OH231985   5.481   4.642   2.226 -0.5888 -0.1957 -0.7067
10681TIP3    H131986   5.548   4.588   2.269  0.0087  1.8848  1.1946
10681TIP3    H231987   5.531   4.700   2.168 -0.9939 -0.2876 -1.1491
10682TIP3   OH231988   5.413   2.932   3.826  0.0187 -0.0340 -0.2642
10682TIP3    H131989   5.445   2.920   3.916  1.4344  0.3156 -0.6956
10682TIP3    H231990   5.462   3.006   3.793  0.2308 -0.7604 -1.6510
10683TIP3   OH231991   5.771   6.131   3.490  0.3989 -0.9269  0.4859
10683TIP3    H131992   5.728   6.046   3.491 -0.3678 -0.5650  0.0437
10683TIP3    H231993   5.716   6.185   3.432  1.9691 -0.7115 -0.8982
10684TIP3   OH231994   7.136   5.007   1.697  0.2990 -0.5444  0.6563
10684TIP3    H131995   7.045   4.987   1.675 -0.0257 -0.0946  1.5261
10684TIP3    H231996   7.180   4.922   1.696 -0.2978 -0.8663  0.9552
10685TIP3   OH231997   6.766   0.612   0.843  0.6098 -0.2684 -0.2691
10685TIP3    H131998   6.720   0.573   0.917  0.6962 -2.1536 -1.1342
10685TIP3    H231999   6.696   0.634   0.781  0.6680 -0.5466 -0.4364
10686TIP3   OH232000   1.401   3.206   6.640 -0.3868 -0.5915  0.2986
10686TIP3    H132001   1.347   3.128   6.650  1.0234 -1.5499  0.8894
10686TIP3    H232002   1.467   3.180   6.575  0.2544  0.0166  0.7015
10687TIP3   OH232003   0.262   0.729   6.586  0.1282 -0.1899 -0.5450
10687TIP3    H132004   0.340   0.725   6.529  2.7393  0.4261  2.6716
10687TIP3    H232005   0.281   0.800   6.647 -3.1471  0.1105  0.2963
10688TIP3   OH232006   0.970   2.991   2.029  0.3148 -0.3418 -0.2590
10688TIP3    H132007   0.909   3.053   2.070  0.8351  0.2983 -0.4384
10688TIP3    H232008   0.941   2.906   2.060  0.4176  0.0911  1.1019
10689TIP3   OH232009   3.443   6.936   1.588 -0.2570  0.3846 -0.8728
10689TIP3    H132010   3.409   6.911   1.502 -1.2010 -2.5913  0.2558
10689TIP3    H232011   3.375   6.990   1.626 -0.5515  0.3798 -1.3774
10690TIP3   OH232012   0.274   5.974   2.280  0.0827 -0.0354  0.1244
10690TIP3    H132013   0.311   6.034   2.216  0.2369 -0.1058  0.1476
10690TIP3    H232014   0.181   5.996   2.283  0.0050 -0.2806 -0.3978
10691TIP3   OH232015   5.867   4.656   2.608  0.1541 -0.1476 -0.4476
10691TIP3    H132016   5.777   4.684   2.588  0.0365 -0.5322 -0.4661
10691TIP3    H232017   5.905   4.730   2.654 -0.3949 -0.2456  0.1761
10692TIP3   OH232018   7.982   4.730   3.902  0.2613  0.5154 -0.0686
10692TIP3    H132019   7.936   4.803   3.860  1.9323  2.1662  0.8077
10692TIP3    H232020   7.979   4.751   3.996  3.6415  1.3795  0.0037
10693TIP3   OH232021   3.148   5.952   5.745 -0.0016 -0.0253  0.2702
10693TIP3    H132022   3.135   6.009   5.669 -2.4719  1.8728  1.9854
10693TIP3    H232023   3.100   5.872   5.723 -0.4915  0.4046 -0.2440
10694TIP3   OH232024   4.054   0.777   1.017  0.4117  0.3937  0.3494
10694TIP3    H132025   3.996   0.703   0.998  1.8352 -0.8239  0.5944
10694TIP3    H232026   4.012   0.822   1.090 -0.5956 -0.0257  0.0520
10695TIP3   OH232027   2.915   6.779   2.891  0.4149 -0.1438 -0.6516
10695TIP3    H132028   2.901   6.686   2.870  0.5842 -0.1967 -0.5346
10695TIP3    H232029   2.839   6.824   2.854 -0.9986 -0.6201  1.4801
10696TIP3   OH232030   0.501   5.633   4.622  0.2529 -0.2212 -0.3543
10696TIP3    H132031   0.454   5.628   4.539  2.3510 -2.7100 -1.5526
10696TIP3    H232032   0.486   5.547   4.662  0.1836  0.5521  1.3410
10697TIP3   OH232033   1.297   3.202   1.301  0.0274  0.2923  0.1070
10697TIP3    H132034   1.369   3.170   1.355  0.9392  0.7309 -0.8119
10697TIP3    H232035   1.230   3.135   1.309  0.9830 -0.6934  0.0757
10698TIP3   OH232036   6.871   0.884   1.043  0.0588 -0.1495  0.3015
10698TIP3    H132037   6.967   0.885   1.045  0.1370 -1.1420 -1.2655
10698TIP3    H232038   6.849   0.864   0.952 -1.6244 -0.9669  0.8461
10699TIP3   OH232039   6.969   0.443   1.042  0.3909 -0.0266  0.1299
10699TIP3    H132040   7.000   0.490   0.964 -1.6267  1.3387  0.0720
10699TIP3    H232041   7.010   0.488   1.115  1.2031 -0.4380 -0.0544
10700TIP3   OH232042   3.717   3.018   4.919  0.0188 -0.3455 -0.0773
10700TIP3    H132043   3.644   2.971   4.959 -0.0898 -1.2040 -1.2614
10700TIP3    H232044   3.746   2.963   4.847  1.7220  0.0679  0.2261
10701TIP3   OH232045   1.239   4.606   0.744 -0.1528  0.3198 -0.2181
10701TIP3    H132046   1.318   4.658   0.754 -0.9660  1.3083  1.5178
10701TIP3    H232047   1.193   4.645   0.670  0.6009  0.2139 -0.7546
10702TIP3   OH232048   0.517   4.819   0.014 -0.0981  0.3328 -0.3382
10702TIP3    H132049   0.467   4.806   0.095  2.3343  0.7505  1.3363
10702TIP3    H232050   0.523   4.914   0.005  0.3861  0.2890 -0.5132
10703TIP3   OH232051   3.969   6.784   0.103  0.0628 -1.0266  0.4711
10703TIP3    H132052   3.948   6.867   0.146 -1.8304 -1.8920  1.3864
10703TIP3    H232053   3.995   6.726   0.175  0.1273 -1.5723  0.0149
10704TIP3   OH232054   1.555   4.001   0.552  0.1275  0.0351 -0.2205
10704TIP3    H132055   1.634   3.991   0.605 -0.8402 -0.2670  1.2364
10704TIP3    H232056   1.534   3.912   0.524 -0.8302 -0.1998  1.1576
10705TIP3   OH232057   2.060   2.762   2.071 -0.1938  0.5339 -0.5923
10705TIP3    H132058   2.084   2.703   1.999 -1.8578 -1.1952  0.1927
10705TIP3    H232059   2.064   2.707   2.149 -3.0343  1.0693  0.0203
10706TIP3   OH232060   5.096   3.165   0.871  0.0413 -0.2080 -0.1764
10706TIP3    H132061   5.064   3.077   0.893 -0.3099  0.0083  0.1875
10706TIP3    H232062   5.035   3.224   0.916  0.6548  0.2123  0.1126
10707TIP3   OH232063   5.181   6.613   6.308  0.0668  0.0216 -0.6360
10707TIP3    H132064   5.166   6.704   6.284 -0.9223 -0.3682 -1.5780
10707TIP3    H232065   5.119   6.596   6.379  2.3231  0.8941  1.7229
10708TIP3   OH232066   4.391   7.410   1.345  0.1740 -0.1178 -0.5306
10708TIP3    H132067   4.347   7.490   1.316  1.0918 -0.2512 -2.4606
10708TIP3    H232068   4.323   7.343   1.344 -0.6544  0.6521  1.3183
10709TIP3   OH232069   6.208   5.125   3.837  0.1306 -0.7173  0.0262
10709TIP3    H132070   6.256   5.043   3.836  3.0151  0.8090 -1.6266
10709TIP3    H232071   6.224   5.162   3.923 -1.3391 -1.8956  0.8458
10710TIP3   OH232072   1.613   1.272   2.761 -0.6161 -0.4688  0.6250
10710TIP3    H132073   1.685   1.328   2.789  1.5086 -1.9484 -1.5010
10710TIP3    H232074   1.547   1.332   2.726  0.3120  0.8331  1.0598
10711TIP3   OH232075   1.529   2.132   1.727  0.1138 -0.5335 -0.5247
10711TIP3    H132076   1.568   2.068   1.667  2.4161  0.5036 -0.2721
10711TIP3    H232077   1.534   2.215   1.679  0.3699  0.0093  0.4113
10712TIP3   OH232078   4.291   2.249   4.094  0.7902 -0.0204 -0.1975
10712TIP3    H132079   4.370   2.210   4.057  0.0166 -0.4507 -1.4425
10712TIP3    H232080   4.299   2.342   4.073  1.8549  0.2949  1.3659
10713TIP3   OH232081   7.910   7.388   0.707  0.4457  0.0594  0.3745
10713TIP3    H132082   7.970   7.445   0.755 -0.1939  0.6299  0.5169
10713TIP3    H232083   7.965   7.344   0.643  0.9469  0.8982  0.2122
10714TIP3   OH232084   1.460   2.148   4.687  0.2963  0.6594 -0.0073
10714TIP3    H132085   1.452   2.239   4.716 -3.6245  0.7704 -0.9475
10714TIP3    H232086   1.464   2.098   4.768  0.7282  1.5603  0.5447
10715TIP3   OH232087   0.021   3.069   3.534 -0.1025 -0.6537  0.1839
10715TIP3    H132088  -0.040   3.135   3.500  0.3336  0.0581  0.7501
10715TIP3    H232089   0.032   3.008   3.462  0.3777  0.5221 -0.7808
10716TIP3   OH232090   7.225   1.598   3.547  0.3286 -0.0117 -0.0112
10716TIP3    H132091   7.320   1.588   3.560  0.2157  1.2912  2.2038
10716TIP3    H232092   7.200   1.669   3.605 -1.8761  0.3928 -1.3568
10717TIP3   OH232093   6.309   2.668   3.045 -0.0453 -0.1903  0.3471
10717TIP3    H132094   6.332   2.757   3.021 -0.8879 -0.2291 -0.6952
10717TIP3    H232095   6.320   2.617   2.965  0.2702 -1.0029  0.8845
10718TIP3   OH232096   5.011   0.717   2.292  0.1861  0.2499 -0.2657
10718TIP3    H132097   4.949   0.673   2.234 -0.6021  1.1886 -0.1717
10718TIP3    H232098   5.077   0.755   2.232  0.1615  0.0305 -0.4344
10719TIP3   OH232099   2.704   3.751   1.905  0.2621  0.6919  0.1500
10719TIP3    H132100   2.782   3.794   1.940  1.5628 -0.1054 -1.5889
10719TIP3    H232101   2.706   3.663   1.941  0.4342  0.5316 -0.2395
10720TIP3   OH232102   5.723   3.853   1.696 -0.1279  0.1453  0.1169
10720TIP3    H132103   5.731   3.779   1.636 -1.2253 -0.9540  1.2772
10720TIP3    H232104   5.631   3.880   1.690 -0.2263  0.1037  1.1698
10721TIP3   OH232105   4.866   6.186   2.758  0.2268  0.1743 -0.5000
10721TIP3    H132106   4.880   6.255   2.823  2.5005  1.8158 -2.5435
10721TIP3    H232107   4.776   6.200   2.727  0.7745  2.6576 -1.2090
10722TIP3   OH232108   0.985   6.362   0.152 -0.0753  0.5252 -0.3163
10722TIP3    H132109   1.067   6.325   0.118 -0.8459 -1.1919 -0.4090
10722TIP3    H232110   0.938   6.287   0.189 -1.6753  1.4441 -0.3799
10723TIP3   OH232111   5.225   5.871   5.157 -0.5477 -0.6345  0.0701
10723TIP3    H132112   5.261   5.921   5.231  0.3678 -1.5661  0.2761
10723TIP3    H232113   5.278   5.899   5.083 -0.8245 -0.4245 -0.0500
10724TIP3   OH232114   6.526   4.411   0.722 -0.3228  0.3805 -0.4699
10724TIP3    H132115   6.522   4.333   0.667 -0.3176  0.0304  0.0205
10724TIP3    H232116   6.584   4.470   0.676 -0.0674 -0.0353 -0.6863
10725TIP3   OH232117   7.731   3.041   1.734  0.0059  0.4400 -0.2322
10725TIP3    H132118   7.677   2.963   1.749  1.8501 -0.5508  1.6576
10725TIP3    H232119   7.671   3.103   1.692 -1.8183 -1.5770 -0.8086
10726TIP3   OH232120   3.403   7.622   3.353  0.7063 -0.4560  0.0165
10726TIP3    H132121   3.486   7.649   3.393  0.9325  0.3341 -0.9453
10726TIP3    H232122   3.355   7.704   3.341 -0.9642 -1.0412  2.1194
10727TIP3   OH232123   6.854   6.425   1.731 -0.1194  0.1918 -0.1269
10727TIP3    H132124   6.859   6.427   1.636  2.0148 -1.3574 -0.0953
10727TIP3    H232125   6.900   6.504   1.760  0.0053  0.2074 -0.3714
10728TIP3   OH232126   6.976   5.007   5.913  0.0621  0.6546 -0.1142
10728TIP3    H132127   6.949   5.098   5.902  0.7422  0.9581  0.6797
10728TIP3    H232128   6.925   4.976   5.988 -0.6112  0.1874 -0.7441
10729TIP3   OH232129   5.908   4.380   2.655  0.5723  0.6021 -0.0879
10729TIP3    H132130   5.838   4.336   2.608  0.0793  0.3080  0.8932
10729TIP3    H232131   5.891   4.473   2.643 -0.8052  0.5579  1.2653
10730TIP3   OH232132   2.826   0.665   4.308 -0.0307  0.0205  0.7750
10730TIP3    H132133   2.822   0.677   4.403 -0.9237  0.0580  0.7427
10730TIP3    H232134   2.751   0.609   4.288 -0.1317  0.4125  0.0302
10731TIP3   OH232135   7.736   7.614   1.706  0.4797 -0.6099 -0.1775
10731TIP3    H132136   7.734   7.688   1.646  0.0127 -1.4034 -1.1750
10731TIP3    H232137   7.686   7.643   1.782  1.3743  0.5342 -0.0027
10732TIP3   OH232138   3.187   0.796   6.181  0.1370 -0.0974  0.1380
10732TIP3    H132139   3.181   0.787   6.086  0.7968 -0.2972  0.1034
10732TIP3    H232140   3.098   0.780   6.213 -0.0900 -0.0212 -0.4448
10733TIP3   OH232141   8.324   5.628   1.118 -0.3403 -0.3288  0.5744
10733TIP3    H132142   8.329   5.532   1.123 -2.5770 -0.5544 -0.5409
10733TIP3    H232143   8.232   5.648   1.131  0.0936  1.7184  0.8056
10734TIP3   OH232144   3.649   6.951   5.823  0.1367  0.0400 -0.1911
10734TIP3    H132145   3.624   6.859   5.811  0.7095 -0.1501  0.0475
10734TIP3    H232146   3.616   6.995   5.744  1.0046 -0.6083 -0.9296
10735TIP3   OH232147   4.873   2.199   3.447  0.1951  0.8692 -0.4218
10735TIP3    H132148   4.811   2.222   3.378  0.2467  1.4006 -0.2917
10735TIP3    H232149   4.828   2.131   3.498  1.0468 -1.2730 -2.3295
10736TIP3   OH232150   4.597   2.751   6.157  0.1345 -0.1953 -0.2619
10736TIP3    H132151   4.659   2.811   6.114 -0.9697  0.8777 -0.4236
10736TIP3    H232152   4.511   2.791   6.142 -0.6817 -1.9448 -0.5669
10737TIP3   OH232153   6.761   2.521   2.452  0.2478 -0.8164  0.1936
10737TIP3    H132154   6.691   2.573   2.411 -0.2255 -1.9984 -0.5338
10737TIP3    H232155   6.732   2.509   2.543  0.5778  0.5404  0.5015
10738TIP3   OH232156   0.783   7.318   0.679  0.1170  0.5896 -0.4224
10738TIP3    H132157   0.844   7.391   0.679  1.2425 -0.2591  1.7215
10738TIP3    H232158   0.836   7.242   0.653  0.1293 -0.1908  1.6302
10739TIP3   OH232159   7.944   3.252   0.724  0.8711 -0.3028 -0.1934
10739TIP3    H132160   8.032   3.255   0.686  0.7472 -1.3194 -0.6085
10739TIP3    H232161   7.958   3.215   0.812  1.3301  3.2998  1.4120
10740TIP3   OH232162   3.098   5.028   5.900  0.3852  0.0287 -0.5892
10740TIP3    H132163   3.015   5.049   5.857  0.8251 -0.1566 -1.5342
10740TIP3    H232164   3.108   4.934   5.890  1.4295  0.2437 -1.8119
10741TIP3   OH232165   5.227   5.517   1.148 -0.1578  0.0902  0.4152
10741TIP3    H132166   5.312   5.481   1.123  0.3873  1.3473  0.3475
10741TIP3    H232167   5.166   5.445   1.137  0.7667 -0.6004 -0.3760
10742TIP3   OH232168   8.182   7.583   2.264  0.4419  0.0871 -0.3165
10742TIP3    H132169   8.271   7.548   2.260 -0.3621 -2.3270  0.5639
10742TIP3    H232170   8.136   7.539   2.193 -0.2277  0.7617 -0.3124
10743TIP3   OH232171   4.173   7.075   0.952 -0.3735  0.0803 -0.3756
10743TIP3    H132172   4.083   7.087   0.984 -0.4262  0.5354 -0.6773
10743TIP3    H232173   4.226   7.065   1.031 -0.8695 -1.5703 -0.2253
10744TIP3   OH232174   0.996   6.908   2.134  0.3225 -0.2872 -0.1368
10744TIP3    H132175   1.037   6.954   2.207  2.8072 -1.7656 -0.4618
10744TIP3    H232176   1.004   6.968   2.060  1.5897 -0.3591 -0.0822
10745TIP3   OH232177   7.498   1.513   1.504 -0.3918  0.5975  0.2931
10745TIP3    H132178   7.470   1.439   1.449 -0.6602  1.3220 -0.5799
10745TIP3    H232179   7.434   1.517   1.574  0.2887 -0.7131  1.0162
10746TIP3   OH232180   3.947   1.649   5.376 -0.6063 -0.0858  0.5973
10746TIP3    H132181   3.880   1.684   5.435  0.0029  1.9746  0.1667
10746TIP3    H232182   3.898   1.621   5.298 -1.0524  0.7148  0.5817
10747TIP3   OH232183   3.938   0.940   3.070 -0.4299  0.0844  0.1696
10747TIP3    H132184   3.959   0.855   3.109 -3.3640 -0.9329 -0.2127
10747TIP3    H232185   3.910   0.994   3.144 -2.0910 -0.5354  0.0395
10748TIP3   OH232186   0.986   6.761   0.494 -0.6831  0.4864 -0.2742
10748TIP3    H132187   0.957   6.785   0.406 -1.7053  0.3708  0.0245
10748TIP3    H232188   1.081   6.747   0.484 -1.0520 -1.5887 -1.8429
10749TIP3   OH232189   0.326   3.767   4.760  0.1989 -0.2886  0.1146
10749TIP3    H132190   0.308   3.673   4.750 -1.5119 -0.0417  0.4777
10749TIP3    H232191   0.329   3.801   4.671 -3.0388 -0.1038 -0.0616
10750TIP3   OH232192   7.979   1.094   6.578  0.2784 -0.0909 -0.0446
10750TIP3    H132193   7.971   1.178   6.624  1.3519 -0.0774  0.1437
10750TIP3    H232194   7.896   1.050   6.594  0.4960  0.0380  1.6685
10751TIP3   OH232195   7.225   3.468   3.819  0.1227  0.1740  0.3443
10751TIP3    H132196   7.155   3.458   3.883 -0.9834 -0.2203 -0.8974
10751TIP3    H232197   7.304   3.442   3.866 -0.6745 -0.2322  1.5070
10752TIP3   OH232198   2.237   6.294   0.592  0.1367 -0.0056  0.3136
10752TIP3    H132199   2.266   6.243   0.517  0.7152 -2.4009  2.0472
10752TIP3    H232200   2.313   6.347   0.616  0.8171 -1.1286  0.7020
10753TIP3   OH232201   6.195   7.579   2.031 -0.8103 -0.7715 -0.4947
10753TIP3    H132202   6.232   7.509   2.086  0.2899  0.4111  0.3279
10753TIP3    H232203   6.102   7.559   2.027 -0.6356 -1.8858  0.3188
10754TIP3   OH232204   1.639   6.280   2.199  0.0838 -0.5533 -0.4713
10754TIP3    H132205   1.553   6.242   2.215 -0.4420  0.3504 -1.0649
10754TIP3    H232206   1.672   6.303   2.286 -1.2921  1.2044 -0.3520
10755TIP3   OH232207   4.275   3.226   5.073 -0.1565 -0.1162 -0.1127
10755TIP3    H132208   4.233   3.270   5.148 -1.8263 -1.8215  0.0100
10755TIP3    H232209   4.331   3.294   5.035 -0.4118  1.2510  1.7681
10756TIP3   OH232210   6.740   2.180   5.018  0.5286 -0.3142  0.0103
10756TIP3    H132211   6.654   2.167   4.978  0.4565 -0.9434  0.3457
10756TIP3    H232212   6.760   2.272   5.004 -0.6291  0.0752  0.7442
10757TIP3   OH232213   6.471   4.567   4.318  0.4989 -0.3403 -0.3340
10757TIP3    H132214   6.523   4.552   4.397  3.9004  2.2428 -1.8398
10757TIP3    H232215   6.386   4.527   4.338  0.7739  0.8648  4.9634
10758TIP3   OH232216   2.206   1.035   4.080 -0.0110  0.2562 -0.2864
10758TIP3    H132217   2.139   1.098   4.052 -0.8108 -0.4048  0.1037
10758TIP3    H232218   2.173   0.950   4.050 -0.4321 -0.3566  1.7478
10759TIP3   OH232219   5.580   3.706   3.062  0.0160  0.2651  0.0772
10759TIP3    H132220   5.637   3.734   2.990 -0.8973 -0.2010 -0.8540
10759TIP3    H232221   5.539   3.626   3.030  1.0554 -1.0724  1.8910
10760TIP3   OH232222   6.004   7.060   1.128  0.2432  0.4182 -0.6409
10760TIP3    H132223   5.968   7.116   1.060 -0.4616  1.3932  0.4923
10760TIP3    H232224   6.091   7.096   1.145 -0.0141  0.8909 -0.2692
10761TIP3   OH232225   3.252   6.984   0.666  0.4821  0.2177  0.2145
10761TIP3    H132226   3.263   6.906   0.720 -0.5555 -0.3805 -0.4120
10761TIP3    H232227   3.340   7.021   0.660  1.1065 -1.2296  0.0323
10762TIP3   OH232228   0.693   5.445   1.631 -0.0170  0.4256 -0.2605
10762TIP3    H132229   0.737   5.447   1.545  0.1679 -0.0859 -0.1829
10762TIP3    H232230   0.684   5.537   1.655  1.0175  0.5479 -0.2790
10763TIP3   OH232231   3.610   2.624   2.899 -0.2679  0.3625 -0.0446
10763TIP3    H132232   3.699   2.598   2.920  0.3567  1.1513 -1.5691
10763TIP3    H232233   3.583   2.681   2.971  0.9002  1.0617 -0.1370
10764TIP3   OH232234   2.675   7.117   0.389 -0.0580 -0.0178 -0.1670
10764TIP3    H132235   2.625   7.036   0.385 -0.0019 -0.1387  1.1567
10764TIP3    H232236   2.692   7.140   0.297  0.8409 -2.0646 -0.5615
10765TIP3   OH232237   1.676   3.988   5.769 -0.0405 -0.2929  0.2549
10765TIP3    H132238   1.732   3.911   5.779  0.9199  0.1767 -1.1107
10765TIP3    H232239   1.689   4.038   5.850 -0.1294 -1.2044  0.8447
10766TIP3   OH232240   7.702   1.266   0.696  0.5193  0.2919 -0.0696
10766TIP3    H132241   7.658   1.232   0.774 -1.1892  2.4426 -0.0126
10766TIP3    H232242   7.783   1.304   0.729  0.4033  0.0874  0.4664
10767TIP3   OH232243   8.088   7.760   3.420 -0.1514  0.0680 -0.1509
10767TIP3    H132244   8.085   7.776   3.514 -0.9306 -1.6102  0.1354
10767TIP3    H232245   8.108   7.846   3.382  0.5319  0.7037  1.5479
10768TIP3   OH232246   6.044   4.637   3.871  0.0122  0.6943  0.1308
10768TIP3    H132247   6.062   4.608   3.781  1.7347 -0.6481  0.8574
10768TIP3    H232248   5.949   4.643   3.876 -0.3263 -2.4112 -0.8588
10769TIP3   OH232249   7.202   4.130   5.126  0.0708 -0.1996 -0.2856
10769TIP3    H132250   7.124   4.112   5.179 -1.1563 -0.0224 -1.9523
10769TIP3    H232251   7.235   4.214   5.158  2.2951 -2.1988  3.4608
10770TIP3   OH232252   0.419   3.867   0.663 -0.2587 -0.3062  0.6235
10770TIP3    H132253   0.497   3.915   0.692 -0.3943 -0.0732  0.6058
10770TIP3    H232254   0.421   3.786   0.712 -0.2425 -0.1062  0.9568
10771TIP3   OH232255   2.443   0.207   2.846 -0.5155  0.1115 -0.1954
10771TIP3    H132256   2.517   0.151   2.826  0.5673  1.4004  0.0380
10771TIP3    H232257   2.409   0.234   2.760 -0.2481  0.1089 -0.3012
10772TIP3   OH232258   4.555   3.495   3.991  0.7227  0.5456 -0.2991
10772TIP3    H132259   4.631   3.521   4.044  0.7133  0.9697 -0.4931
10772TIP3    H232260   4.588   3.493   3.901  0.6191  0.2751 -0.3316
10773TIP3   OH232261   3.682   7.100   5.384 -0.5202 -0.5050  0.3869
10773TIP3    H132262   3.748   7.149   5.334 -0.1110  2.1922  3.3246
10773TIP3    H232263   3.733   7.045   5.443 -0.8263  0.9472  2.0687
10774TIP3   OH232264   3.726   0.368   5.028  0.6612 -0.4088 -0.3209
10774TIP3    H132265   3.685   0.452   5.007  2.6816  0.5945 -0.5173
10774TIP3    H232266   3.712   0.314   4.950  1.2540  0.5600 -1.1387
10775TIP3   OH232267   7.399   5.010   4.541 -0.5908 -0.0030 -0.2559
10775TIP3    H132268   7.464   5.036   4.475  1.1120 -1.5937  0.6881
10775TIP3    H232269   7.323   4.983   4.490  1.1677 -2.5914 -1.7827
10776TIP3   OH232270   6.805   6.819   6.060 -0.1450  0.0636 -0.0722
10776TIP3    H132271   6.864   6.894   6.055 -1.3412  1.1249  0.9590
10776TIP3    H232272   6.800   6.798   6.154 -1.0887 -0.2423 -0.1761
10777TIP3   OH232273   6.485   0.963   4.682  0.4994  0.1401 -0.2266
10777TIP3    H132274   6.420   0.963   4.612 -2.8828  1.0441  2.6245
10777TIP3    H232275   6.462   0.888   4.737  1.4848  0.8120  1.1670
10778TIP3   OH232276   4.845   5.666   3.010 -0.0065 -0.2217 -0.6241
10778TIP3    H132277   4.813   5.675   3.100  0.8664  0.8613 -0.3890
10778TIP3    H232278   4.785   5.605   2.968 -0.9326 -0.0720  0.4527
10779TIP3   OH232279   6.380   2.555   5.366  0.6029  0.4640  0.4555
10779TIP3    H132280   6.362   2.504   5.287 -0.3529 -0.0540  0.9931
10779TIP3    H232281   6.448   2.618   5.339  0.6859 -0.0661 -0.6201
10780TIP3   OH232282   7.349   7.351   5.599 -0.0029 -0.3608  0.0866
10780TIP3    H132283   7.301   7.276   5.564  0.1501 -0.6317  0.4555
10780TIP3    H232284   7.337   7.346   5.694  1.4854 -0.9574  0.2729
10781TIP3   OH232285   4.629   0.842   2.470 -0.1534 -0.5809  0.5631
10781TIP3    H132286   4.589   0.762   2.436 -0.1414 -0.2035 -0.3652
10781TIP3    H232287   4.718   0.816   2.491  0.2125 -0.5435 -0.8513
10782TIP3   OH232288   5.459   0.240   0.968 -0.1347 -0.7617  0.6349
10782TIP3    H132289   5.493   0.218   0.881  1.5275 -0.6865  1.2438
10782TIP3    H232290   5.434   0.155   1.005 -0.7600 -0.8052  0.1360
10783TIP3   OH232291   6.099   2.184   3.358  0.1379  0.2641  0.1959
10783TIP3    H132292   6.177   2.239   3.353 -0.3531  0.8688 -2.0262
10783TIP3    H232293   6.115   2.114   3.295 -0.4092 -0.5918  0.9777
10784TIP3   OH232294   1.689   0.039   3.851  0.1603 -0.4027  0.6084
10784TIP3    H132295   1.723  -0.039   3.807 -1.2444 -0.8426  0.2622
10784TIP3    H232296   1.596   0.022   3.863 -0.1522  1.1731  0.6640
10785TIP3   OH232297   3.910   0.366   5.368 -0.6603  0.0365 -0.4125
10785TIP3    H132298   3.863   0.347   5.287 -2.2323  3.0909 -0.3579
10785TIP3    H232299   3.967   0.440   5.347 -0.0697  0.0245  0.9699
10786TIP3   OH232300   3.871   2.783   6.421  0.5583  0.0623 -0.1852
10786TIP3    H132301   3.876   2.688   6.416  0.9342  0.1459 -1.8853
10786TIP3    H232302   3.809   2.808   6.352  1.4764  1.1196 -0.6571
10787TIP3   OH232303   4.580   7.561   4.529  0.1240  0.0692 -0.0804
10787TIP3    H132304   4.594   7.505   4.453  0.2582  0.2892 -0.2188
10787TIP3    H232305   4.551   7.645   4.492  1.0704  0.4718  0.0537
10788TIP3   OH232306   6.192   2.893   0.978  0.5020 -0.4059  0.0764
10788TIP3    H132307   6.144   2.911   0.897  0.4383 -0.8970  0.0050
10788TIP3    H232308   6.270   2.948   0.972  0.8372 -0.9444 -0.6363
10789TIP3   OH232309   3.587   7.597   4.603 -0.1097  0.2055  0.1340
10789TIP3    H132310   3.631   7.652   4.668 -1.0682  0.6630  0.4112
10789TIP3    H232311   3.532   7.658   4.553 -0.6191 -0.3860 -0.0450
10790TIP3   OH232312   6.261   2.435   3.179  0.3847 -1.1435 -0.2877
10790TIP3    H132313   6.303   2.421   3.264 -1.0464 -1.3555  0.4278
10790TIP3    H232314   6.305   2.511   3.142  1.0221 -1.0429  0.6513
10791TIP3   OH232315   4.365   1.795   3.553  0.2654  0.3947 -0.5621
10791TIP3    H132316   4.397   1.800   3.463  0.0193  0.2416 -0.6608
10791TIP3    H232317   4.271   1.780   3.543  0.1683  0.8246 -0.2792
10792TIP3   OH232318   6.168   6.635   0.463  0.2146 -0.1771 -0.4189
10792TIP3    H132319   6.119   6.555   0.481  0.5010 -0.5874 -1.4139
10792TIP3    H232320   6.136   6.663   0.377  2.3817 -0.9722 -1.5446
10793TIP3   OH232321   1.497   6.293   6.774 -0.0016  0.7858 -0.4952
10793TIP3    H132322   1.482   6.339   6.691  1.0591 -1.2940 -1.9169
10793TIP3    H232323   1.528   6.206   6.748  1.8577  0.5753  2.1076
10794TIP3   OH232324   7.309   6.939   3.892 -0.4326 -0.1441 -0.0597
10794TIP3    H132325   7.379   6.957   3.954 -0.6770 -0.1121  0.2101
10794TIP3    H232326   7.349   6.952   3.806 -0.0877 -0.2062  0.0892
10795TIP3   OH232327   1.845   1.317   4.743 -0.0043 -0.1336  0.3517
10795TIP3    H132328   1.904   1.285   4.811  0.9701  1.4651  0.3019
10795TIP3    H232329   1.895   1.309   4.662 -1.0488 -1.7440 -0.1746
10796TIP3   OH232330   7.373   2.233   5.966  0.5311  0.2053 -0.1417
10796TIP3    H132331   7.337   2.145   5.968  0.4242  0.2479 -0.1782
10796TIP3    H232332   7.435   2.232   5.893  0.9706 -0.0089  0.2278
10797TIP3   OH232333   8.079   0.695   5.613  0.3644 -0.3431  0.0040
10797TIP3    H132334   8.033   0.656   5.688  1.3715 -0.3165  0.6534
10797TIP3    H232335   8.102   0.783   5.643 -2.3529  1.0527 -1.6299
10798TIP3   OH232336   0.910   6.493   5.535 -0.3955 -0.1602  0.1275
10798TIP3    H132337   0.977   6.470   5.471 -0.2099 -1.8949  0.8828
10798TIP3    H232338   0.958   6.506   5.617 -0.8945 -0.5760  0.4904
10799TIP3   OH232339   1.775   0.521   2.804 -0.0912 -0.0117 -0.2285
10799TIP3    H132340   1.820   0.589   2.854  0.3615  0.1258 -0.8107
10799TIP3    H232341   1.705   0.491   2.862 -0.6304  1.3079 -0.1719
10800TIP3   OH232342   5.699   0.849   0.708 -0.7748 -0.0434 -0.0847
10800TIP3    H132343   5.751   0.917   0.665 -1.9243  0.9312 -0.0023
10800TIP3    H232344   5.745   0.833   0.791 -0.6337  0.8511  0.0232
10801TIP3   OH232345   6.123   3.685   2.144 -0.0496 -0.6537  0.4518
10801TIP3    H132346   6.197   3.746   2.150 -0.2910 -0.4305  1.2338
10801TIP3    H232347   6.153   3.619   2.081  1.6757 -1.6970  2.2256
10802TIP3   OH232348   3.755   3.567   1.353 -0.2527  0.6004  0.1338
10802TIP3    H132349   3.707   3.492   1.388 -1.3230  0.6659 -1.1277
10802TIP3    H232350   3.697   3.642   1.367 -0.2315  0.7986 -0.7981
10803TIP3   OH232351   1.134   5.434   2.010 -0.5716  0.3973 -0.2630
10803TIP3    H132352   1.077   5.510   1.998 -2.8363 -1.2995 -0.7509
10803TIP3    H232353   1.139   5.422   2.105 -2.3079 -0.3298 -0.2414
10804TIP3   OH232354   2.541   6.399   2.319 -0.3091 -0.2081  0.0231
10804TIP3    H132355   2.578   6.312   2.336  1.5987  0.3445 -0.9786
10804TIP3    H232356   2.545   6.443   2.404 -0.2195 -0.7087  0.2873
10805TIP3   OH232357   1.068   3.961   2.492  0.5720  0.4701  0.8269
10805TIP3    H132358   1.163   3.976   2.493  0.4826  1.0918  2.3087
10805TIP3    H232359   1.034   4.030   2.435  1.0866 -0.5209 -0.7591
10806TIP3   OH232360   7.885   7.302   2.392 -0.1464  0.2240 -0.1374
10806TIP3    H132361   7.866   7.316   2.299 -0.2298 -0.6172 -0.2604
10806TIP3    H232362   7.841   7.373   2.437 -1.9524 -0.5745 -0.5744
10807TIP3   OH232363   2.734   0.243   4.654  0.0545 -0.7294  0.0597
10807TIP3    H132364   2.768   0.318   4.703  0.1195 -0.3281 -0.5979
10807TIP3    H232365   2.778   0.247   4.569 -1.5350 -0.2723 -0.7696
10808TIP3   OH232366   7.887   5.003   4.355  0.1145  0.1829 -0.4806
10808TIP3    H132367   7.969   4.984   4.402 -0.3942  1.7237  1.1438
10808TIP3    H232368   7.909   5.075   4.297 -0.1751  0.9042  0.2902
10809TIP3   OH232369   0.938   5.644   1.191  0.2947 -0.3362  0.1392
10809TIP3    H132370   0.958   5.563   1.144 -0.6011 -0.1963 -0.5076
10809TIP3    H232371   1.019   5.695   1.186  0.7760 -1.0574  0.3000
10810TIP3   OH232372   7.324   0.304   5.242  0.0282 -0.1716  0.3492
10810TIP3    H132373   7.348   0.302   5.150 -0.2502  0.0938  0.2694
10810TIP3    H232374   7.287   0.391   5.255  1.2211  0.2710  1.0039
10811TIP3   OH232375   2.131   3.899   2.730 -0.3116 -0.5174  0.7627
10811TIP3    H132376   2.170   3.960   2.793  0.2815 -0.4686  0.3569
10811TIP3    H232377   2.125   3.948   2.649  0.7213 -1.1607  0.2746
10812TIP3   OH232378   7.919   4.684   4.591  0.3866 -0.4928 -0.9108
10812TIP3    H132379   7.842   4.704   4.644  1.1801 -3.4439  1.7065
10812TIP3    H232380   7.884   4.655   4.507 -1.4454 -1.9830  0.2836
10813TIP3   OH232381   4.166   6.648   5.311  0.3602 -0.1187  0.3219
10813TIP3    H132382   4.221   6.570   5.320  1.3742  0.5241 -0.0813
10813TIP3    H232383   4.130   6.662   5.398  0.7055 -0.6491  0.5607
10814TIP3   OH232384   5.300   7.033   1.091  0.4207 -0.0890 -0.1388
10814TIP3    H132385   5.390   7.065   1.096  0.4040  0.1468 -1.1025
10814TIP3    H232386   5.278   7.007   1.180  0.6599  1.9740  0.5583
10815TIP3   OH232387   4.124   7.378   3.964  0.2884 -0.0105  0.5719
10815TIP3    H132388   4.199   7.430   3.993  1.4930  0.6090 -3.0470
10815TIP3    H232389   4.060   7.442   3.935  0.1973 -0.5146 -0.3924
10816TIP3   OH232390   2.630   5.756   3.056 -0.1705 -0.0205 -0.1653
10816TIP3    H132391   2.697   5.713   3.002  0.6094  2.3944 -1.2550
10816TIP3    H232392   2.669   5.758   3.144 -0.1544 -1.3184 -0.1200
10817TIP3   OH232393   0.708   1.703   5.227  0.5386 -0.8569 -0.6700
10817TIP3    H132394   0.722   1.611   5.205 -2.2040 -1.5073  0.0157
10817TIP3    H232395   0.658   1.701   5.309  0.5524  1.2535 -0.5618
10818TIP3   OH232396   6.247   4.065   3.221 -0.2800  0.0123  0.0909
10818TIP3    H132397   6.312   4.110   3.167 -1.5704  1.2656 -0.4848
10818TIP3    H232398   6.202   4.135   3.269 -3.1781 -0.4229 -1.7290
10819TIP3   OH232399   5.245   3.355   5.987  0.0279  0.4416  0.4052
10819TIP3    H132400   5.310   3.294   6.021 -0.3558 -0.0394  0.2852
10819TIP3    H232401   5.161   3.318   6.015 -0.2502  0.4427 -0.4109
10820TIP3   OH232402   6.106   5.608   6.063  0.2482 -0.1541 -0.0965
10820TIP3    H132403   6.199   5.632   6.061  0.8150 -2.0420  0.9802
10820TIP3    H232404   6.068   5.665   6.130  1.1205 -0.8157  1.0009
10821TIP3   OH232405   3.185   1.953   6.726  0.6566  0.1370 -0.1573
10821TIP3    H132406   3.260   2.009   6.745 -0.3294  1.2338  0.7080
10821TIP3    H232407   3.191   1.882   6.790  1.8779 -0.7580 -1.2154
10822TIP3   OH232408   3.994   0.680   5.012  0.6775  0.7275  0.3820
10822TIP3    H132409   3.984   0.673   5.107  0.1206  1.5836  0.3955
10822TIP3    H232410   4.021   0.592   4.985  1.6772  0.6882  1.4266
10823TIP3   OH232411   6.370   5.430   1.268 -0.1161  0.7869  0.4964
10823TIP3    H132412   6.461   5.420   1.240  0.1280  1.0130  1.1805
10823TIP3    H232413   6.344   5.515   1.234 -0.3457  0.3616 -0.4127
10824TIP3   OH232414   4.537   2.439   5.921  0.0628 -1.1996 -0.5520
10824TIP3    H132415   4.631   2.431   5.911 -0.0951 -2.5162 -1.2160
10824TIP3    H232416   4.500   2.377   5.857 -1.2719  0.0915 -1.1075
10825TIP3   OH232417   6.695   0.353   0.723  0.0116  0.1141  0.4891
10825TIP3    H132418   6.633   0.352   0.796 -1.0753 -2.3079 -0.3617
10825TIP3    H232419   6.767   0.296   0.752  0.3005  0.3584  0.2573
10826TIP3   OH232420   2.586   0.059   3.966 -0.0155 -0.3907  0.1354
10826TIP3    H132421   2.507   0.060   4.020 -0.9253 -1.6131 -1.1020
10826TIP3    H232422   2.634   0.138   3.991 -2.0293  0.8142  0.3667
10827TIP3   OH232423   7.309   6.756   2.721  0.0643 -0.4147  0.2388
10827TIP3    H132424   7.255   6.703   2.779  0.0646 -1.1173 -0.3766
10827TIP3    H232425   7.251   6.826   2.691  0.3641  0.5886  1.8807
10828TIP3   OH232426   5.649   1.174   1.722  0.2300 -0.3057 -0.1962
10828TIP3    H132427   5.583   1.243   1.727 -0.6497 -1.2451  1.8441
10828TIP3    H232428   5.685   1.183   1.633 -1.1192  1.5856 -0.6191
10829TIP3   OH232429   2.378   5.841   4.470 -0.0712  0.5475  0.3189
10829TIP3    H132430   2.322   5.917   4.455 -0.8116 -0.0059  0.2143
10829TIP3    H232431   2.332   5.789   4.536 -0.4390 -0.6489 -0.8226
10830TIP3   OH232432   6.366   1.541   1.397 -0.0745 -0.4453 -0.1050
10830TIP3    H132433   6.382   1.621   1.447  0.2666 -0.0543 -0.8295
10830TIP3    H232434   6.373   1.470   1.462 -0.4426  0.1117  0.5511
10831TIP3   OH232435   6.973   0.192   4.595  0.0062 -0.1375  1.4839
10831TIP3    H132436   7.055   0.146   4.612 -0.7334 -1.3548  1.9279
10831TIP3    H232437   6.912   0.122   4.569 -0.4314  0.9485 -0.6513
10832TIP3   OH232438   1.491   6.526   3.525 -0.6295 -0.0297  0.4141
10832TIP3    H132439   1.577   6.489   3.546  1.0492  4.1721  2.0895
10832TIP3    H232440   1.430   6.454   3.538  2.3579 -2.6160  1.4724
10833TIP3   OH232441   7.635   0.301   1.846  0.5958 -0.1484  0.3328
10833TIP3    H132442   7.543   0.326   1.839  0.9596  1.3166  0.4341
10833TIP3    H232443   7.644   0.224   1.790 -0.6814 -0.2874  0.3087
10834TIP3   OH232444   7.701   4.006   3.977  0.0025 -0.6328  0.2363
10834TIP3    H132445   7.641   3.958   3.920  0.4736 -0.7977 -0.1347
10834TIP3    H232446   7.647   4.073   4.018 -0.1282  0.2824 -1.3345
10835TIP3   OH232447   2.764   6.462   5.320 -0.3481 -0.4487 -0.9410
10835TIP3    H132448   2.766   6.532   5.384  0.6085  0.5986 -2.0637
10835TIP3    H232449   2.673   6.458   5.291 -0.5147 -0.0231 -0.4831
10836TIP3   OH232450   5.817   6.960   6.245 -0.2312 -0.9490 -0.3241
10836TIP3    H132451   5.817   6.925   6.334  1.7400  1.5631  0.7834
10836TIP3    H232452   5.885   6.911   6.200 -0.2980 -1.3136 -0.0362
10837TIP3   OH232453   7.064   2.709   3.381 -0.3294 -0.1421 -0.3830
10837TIP3    H132454   6.996   2.659   3.425 -0.3875  0.3455  0.0951
10837TIP3    H232455   7.124   2.643   3.346 -0.1683 -0.5463  0.6148
10838TIP3   OH232456   5.795   3.374   0.704  0.3342 -0.2112 -0.0850
10838TIP3    H132457   5.747   3.363   0.786  1.2552 -1.4056  0.3297
10838TIP3    H232458   5.727   3.388   0.638 -0.4328  0.6120  0.8438
10839TIP3   OH232459   7.111   6.078   0.657  0.3446 -0.1675  0.1108
10839TIP3    H132460   7.183   6.017   0.672 -1.8104 -2.9986 -0.2028
10839TIP3    H232461   7.089   6.111   0.744  0.2934 -1.4163  0.5864
10840TIP3   OH232462   5.736   1.217   1.975 -0.2187  0.2431  0.1841
10840TIP3    H132463   5.766   1.284   1.913  0.1389 -1.1848 -1.2673
10840TIP3    H232464   5.761   1.134   1.934  0.6082 -0.7571  2.5827
10841TIP3   OH232465   7.478   3.878   0.639  0.0029  0.0489 -0.3828
10841TIP3    H132466   7.496   3.915   0.553 -1.7290 -0.7668 -1.1595
10841TIP3    H232467   7.526   3.934   0.700 -1.6406  2.9572 -1.5531
10842TIP3   OH232468   5.900   7.697   4.835  0.7176  0.3336  0.3234
10842TIP3    H132469   5.903   7.605   4.862  0.0148 -0.0216 -0.7590
10842TIP3    H232470   5.837   7.738   4.895  0.7828  0.0461  0.5903
10843TIP3   OH232471   2.270   1.928   0.464 -0.6531 -0.1199 -0.1989
10843TIP3    H132472   2.249   1.957   0.376 -2.1613 -1.1558 -0.2203
10843TIP3    H232473   2.207   1.858   0.482  0.1142 -0.4497  1.4128
10844TIP3   OH232474   0.191   3.494   2.021  0.0247 -0.3048  0.4234
10844TIP3    H132475   0.246   3.562   1.982 -0.3277 -0.8644 -1.1201
10844TIP3    H232476   0.218   3.414   1.978 -0.2008 -1.0237  1.5666
10845TIP3   OH232477   5.783   3.966   2.245  0.5274 -0.0616 -0.5322
10845TIP3    H132478   5.828   4.039   2.203 -0.0737  0.0568 -0.9818
10845TIP3    H232479   5.818   3.963   2.334 -0.2770  1.4939 -0.1410
10846TIP3   OH232480   0.864   7.626   1.440  0.2042 -0.5772 -0.1087
10846TIP3    H132481   0.817   7.594   1.362 -1.0281 -0.1048  0.4084
10846TIP3    H232482   0.939   7.673   1.405  0.4809 -1.6145 -0.9612
10847TIP3   OH232483   2.233   6.522   0.855  0.5825 -0.4694 -0.0676
10847TIP3    H132484   2.169   6.577   0.809 -1.9552 -2.1442  1.2320
10847TIP3    H232485   2.211   6.433   0.829  1.1220 -1.2193  1.8788
10848TIP3   OH232486   8.075   4.013   6.547  0.2353  0.0738  0.2440
10848TIP3    H132487   8.016   4.061   6.606 -0.0945 -1.6298  1.3898
10848TIP3    H232488   8.134   3.967   6.606 -0.3569 -2.0160 -0.7006
10849TIP3   OH232489   7.674   3.025   2.794  0.0318 -0.0646  0.2142
10849TIP3    H132490   7.758   3.020   2.839  0.7502  2.2405 -0.7341
10849TIP3    H232491   7.624   2.951   2.829  2.0620 -0.8981  1.5555
10850TIP3   OH232492   2.916   7.169   2.032  0.2472 -0.5187 -0.7605
10850TIP3    H132493   2.941   7.182   2.124  0.8922 -1.2040 -0.8322
10850TIP3    H232494   2.866   7.247   2.010 -0.1955 -0.4911  0.2762
10851TIP3   OH232495   5.803   3.646   3.871 -0.5208 -0.6718 -0.0626
10851TIP3    H132496   5.723   3.640   3.924 -2.0572 -0.5279 -2.2631
10851TIP3    H232497   5.788   3.721   3.813  1.4186 -0.3785 -0.2591
10852TIP3   OH232498   1.707   3.949   3.113  0.0791 -0.2362  0.1268
10852TIP3    H132499   1.753   3.936   3.030  0.6713 -0.9572  0.5514
10852TIP3    H232500   1.774   3.983   3.172  0.4527 -2.4859  1.1124
10853TIP3   OH232501   5.468   6.418   4.299  0.5262 -0.1815  0.6716
10853TIP3    H132502   5.490   6.432   4.391 -0.3767  1.3198  0.6918
10853TIP3    H232503   5.533   6.469   4.250 -0.5596  1.2047  0.6043
10854TIP3   OH232504   7.113   1.320   1.590  0.6123 -0.1809 -0.0407
10854TIP3    H132505   7.138   1.385   1.656  1.3791 -1.0772  0.5780
10854TIP3    H232506   7.173   1.247   1.604  1.0457 -0.2543 -1.9811
10855TIP3   OH232507   5.693   0.200   0.099  0.2762  0.3826 -0.1540
10855TIP3    H132508   5.710   0.135   0.167  0.1434  0.6118  0.0990
10855TIP3    H232509   5.768   0.193   0.040  0.2538 -0.0125 -0.1397
10856TIP3   OH232510   0.529   0.226   0.164  1.0335  0.4188 -0.1122
10856TIP3    H132511   0.559   0.200   0.077  0.5809  1.1972 -0.5139
10856TIP3    H232512   0.599   0.199   0.223  2.2472  1.6269 -0.9517
10857TIP3   OH232513   5.314   5.514   1.552 -0.1707  0.1794  0.1738
10857TIP3    H132514   5.405   5.531   1.578 -0.9074  0.4042  2.8135
10857TIP3    H232515   5.316   5.425   1.515  0.9611 -0.1974  1.0783
10858TIP3   OH232516   7.892   1.623   2.855  0.1882 -0.5282 -0.1600
10858TIP3    H132517   7.870   1.713   2.880 -2.2247 -1.4398  1.3124
10858TIP3    H232518   7.977   1.606   2.895  0.0229  0.6378  0.7156
10859TIP3   OH232519   7.365   3.881   5.183 -0.3283  0.1673  0.2513
10859TIP3    H132520   7.422   3.951   5.215 -1.5415  1.3875 -0.1411
10859TIP3    H232521   7.287   3.927   5.150 -1.2101 -1.3817  0.0741
10860TIP3   OH232522   2.711   2.874   1.149 -0.5147  0.2724 -0.6974
10860TIP3    H132523   2.662   2.883   1.230 -0.5781  0.0909 -0.7136
10860TIP3    H232524   2.669   2.801   1.104 -0.4065  0.2963 -0.8399
10861TIP3   OH232525   0.776   2.638   1.021 -0.0701 -0.2321  0.0205
10861TIP3    H132526   0.870   2.621   1.031  0.2502  1.2820 -0.2347
10861TIP3    H232527   0.734   2.563   1.064  1.2558 -0.2582  1.3678
10862TIP3   OH232528   5.072   5.117   3.946  0.2020  0.0154  0.1293
10862TIP3    H132529   5.029   5.201   3.929 -2.0289 -1.1868 -0.7009
10862TIP3    H232530   5.087   5.117   4.040 -0.6183  0.9918  0.2860
10863TIP3   OH232531   4.914   7.653   0.823 -0.1529  0.0027 -0.1339
10863TIP3    H132532   4.913   7.560   0.848 -0.4566  0.4159  1.5616
10863TIP3    H232533   4.833   7.665   0.773  0.3655 -0.8389 -1.2063
10864TIP3   OH232534   4.451   7.343   2.815  0.1515 -0.5027  0.4310
10864TIP3    H132535   4.357   7.326   2.810 -0.1573  0.2435  2.4879
10864TIP3    H232536   4.457   7.435   2.841  1.5507  0.2519 -2.1931
10865TIP3   OH232537   4.439   7.606   5.858 -0.7909  0.6339 -0.5177
10865TIP3    H132538   4.376   7.677   5.842 -0.5218  0.7763 -0.9742
10865TIP3    H232539   4.506   7.645   5.914 -0.1180  1.0432 -1.5811
10866TIP3   OH232540   5.206   5.234   0.988 -0.1557  0.0684  0.0104
10866TIP3    H132541   5.225   5.308   0.930  0.5404 -0.2370 -0.1634
10866TIP3    H232542   5.286   5.182   0.987 -0.9604 -1.1933 -0.6242
10867TIP3   OH232543   3.182   2.693   1.419 -0.1875  0.1582  0.6691
10867TIP3    H132544   3.213   2.602   1.410 -0.4192  0.1037  0.4176
10867TIP3    H232545   3.113   2.701   1.353 -0.4364  0.4015  0.9586
10868TIP3   OH232546   3.700   5.188   3.254  0.1516 -0.3085 -0.2101
10868TIP3    H132547   3.790   5.219   3.254 -0.2567  1.3238  3.2184
10868TIP3    H232548   3.654   5.248   3.194  0.9544  0.1307 -0.3896
10869TIP3   OH232549   4.972   5.739   4.778 -0.4250 -0.3714  0.1624
10869TIP3    H132550   4.960   5.729   4.683 -0.7614  2.1075 -0.1241
10869TIP3    H232551   5.056   5.696   4.796  0.8901  1.2136 -1.7395
10870TIP3   OH232552   4.488   4.408   3.372  0.5108  0.0815 -0.1943
10870TIP3    H132553   4.436   4.332   3.344  0.2701  0.8966 -2.1193
10870TIP3    H232554   4.566   4.406   3.317  0.9765  0.6794  0.4234
10871TIP3   OH232555   4.455   3.212   2.678  0.0755 -0.6122 -0.0497
10871TIP3    H132556   4.380   3.241   2.731 -0.1402 -1.1862 -0.0279
10871TIP3    H232557   4.525   3.272   2.701 -0.9118  1.2106 -1.5647
10872TIP3   OH232558   7.400   7.459   1.398  0.1986 -0.0506  0.2307
10872TIP3    H132559   7.380   7.408   1.319 -0.7968  0.4875  0.1157
10872TIP3    H232560   7.419   7.393   1.464  0.4067 -0.5288 -0.2934
10873TIP3   OH232561   2.885   3.673   1.522 -0.1872  0.2389 -0.1357
10873TIP3    H132562   2.837   3.735   1.577 -0.7568  1.5537 -2.0168
10873TIP3    H232563   2.970   3.714   1.507 -1.0326  1.3126 -2.4720
10874TIP3   OH232564   3.437   4.257   1.570  0.1880  0.7406  0.2025
10874TIP3    H132565   3.354   4.226   1.534  0.2362  1.2383 -0.3432
10874TIP3    H232566   3.437   4.351   1.552 -0.2583  1.2285  2.3961
10875TIP3   OH232567   2.229   6.936   4.912 -0.1668  0.2606  0.2236
10875TIP3    H132568   2.240   6.996   4.839  0.0785 -0.0828 -0.0244
10875TIP3    H232569   2.318   6.913   4.939 -0.0919 -2.9240 -2.1232
10876TIP3   OH232570   1.480   1.057   5.623 -0.1915 -0.2418 -0.0350
10876TIP3    H132571   1.533   1.135   5.641 -1.1466  0.5841 -0.6804
10876TIP3    H232572   1.408   1.061   5.687 -0.3711 -0.4632 -0.2200
10877TIP3   OH232573   8.240   6.917   6.521 -0.7056 -0.0797 -0.5001
10877TIP3    H132574   8.154   6.914   6.478 -1.4183  0.2298  0.8534
10877TIP3    H232575   8.221   6.903   6.614  0.7321 -0.1505 -0.1943
10878TIP3   OH232576   8.237   3.938   1.768  0.0135 -0.1305 -0.0683
10878TIP3    H132577   8.260   3.866   1.827 -1.4206  0.1018  0.8342
10878TIP3    H232578   8.145   3.923   1.745 -0.3032  1.3419  0.0842
10879TIP3   OH232579   2.512   6.459   5.224 -0.1586  0.4177 -0.4082
10879TIP3    H132580   2.490   6.437   5.133 -0.5610  1.5591 -0.6063
10879TIP3    H232581   2.432   6.499   5.259  0.4710  1.3743 -0.0328
10880TIP3   OH232582   7.713   7.494   1.402  0.0373  0.0463 -0.3172
10880TIP3    H132583   7.636   7.501   1.345 -2.2714 -1.1661  2.3931
10880TIP3    H232584   7.683   7.530   1.485  2.8574  0.5920  0.5470
10881TIP3   OH232585   5.497   2.765   0.230  1.1121 -0.1607  0.7236
10881TIP3    H132586   5.403   2.772   0.244  1.0231 -0.3472  0.2298
10881TIP3    H232587   5.529   2.710   0.301  0.9278  0.3334  1.1939
10882TIP3   OH232588   8.066   0.493   1.486 -0.2488  0.3147 -0.2636
10882TIP3    H132589   8.034   0.463   1.401  0.0342 -0.5219 -0.0913
10882TIP3    H232590   8.125   0.423   1.515  0.1572  0.8891  0.3300
10883TIP3   OH232591   1.441   6.945   4.631 -0.4468  0.0680  0.3624
10883TIP3    H132592   1.359   6.954   4.582 -0.3010 -1.2315 -0.1777
10883TIP3    H232593   1.434   7.009   4.702 -1.2962  0.9733 -0.5029
10884TIP3   OH232594   3.578   7.579   6.288  0.2679 -0.1822 -0.1913
10884TIP3    H132595   3.626   7.501   6.260 -1.2322 -0.0061 -3.8058
10884TIP3    H232596   3.495   7.545   6.322  0.3613 -0.1987  0.0263
10885TIP3   OH232597   2.438   0.856   5.910  0.2607 -0.0876 -0.1243
10885TIP3    H132598   2.348   0.850   5.943  0.1863 -0.1195 -0.3319
10885TIP3    H232599   2.431   0.835   5.817  0.5239 -0.3892 -0.0788
10886TIP3   OH232600   0.577   5.958   3.691 -0.2117 -0.5050 -0.1300
10886TIP3    H132601   0.556   6.049   3.710 -0.0043 -0.6818  1.0671
10886TIP3    H232602   0.513   5.908   3.741 -1.3285 -1.0414 -1.9974
10887TIP3   OH232603   7.927   3.188   4.541  0.0044 -0.7345  0.5451
10887TIP3    H132604   7.997   3.126   4.517 -0.1782 -0.5880 -0.3938
10887TIP3    H232605   7.849   3.154   4.497 -0.0335  0.3219 -0.2314
10888TIP3   OH232606   1.874   7.353   0.258 -0.3497 -0.3940  0.2125
10888TIP3    H132607   1.850   7.436   0.299  0.7196 -0.4744  1.0572
10888TIP3    H232608   1.795   7.325   0.211 -0.8462  0.8918  0.2520
10889TIP3   OH232609   2.901   6.742   2.506  0.7139  0.2481  0.1674
10889TIP3    H132610   2.830   6.790   2.549  0.7812 -0.5086  1.1708
10889TIP3    H232611   2.870   6.727   2.417 -0.7933 -0.8550  0.8373
10890TIP3   OH232612   2.360   4.128   3.750 -0.3709  0.6026  0.3646
10890TIP3    H132613   2.421   4.198   3.726 -0.5848  1.1838  1.4598
10890TIP3    H232614   2.277   4.173   3.766 -1.0135 -0.1272 -0.6887
10891TIP3   OH232615   0.485   6.174   2.728  0.7480 -0.5272  0.1637
10891TIP3    H132616   0.459   6.193   2.638  1.9505 -1.8525 -0.4985
10891TIP3    H232617   0.552   6.107   2.720  1.0887 -0.4629  2.0480
10892TIP3   OH232618   0.137   0.398   5.240  0.0536  0.0320  0.3870
10892TIP3    H132619   0.214   0.345   5.219  1.3159  1.9645 -0.0469
10892TIP3    H232620   0.134   0.399   5.336  1.3563  0.9889  0.4386
10893TIP3   OH232621   8.250   6.979   2.820  0.0564 -0.6224  0.0084
10893TIP3    H132622   8.260   6.904   2.879  1.6382 -0.0181  0.5670
10893TIP3    H232623   8.194   6.947   2.750 -1.3633 -1.5635  1.4976
10894TIP3   OH232624   0.684   1.788   3.656  0.1401  0.3046 -0.9892
10894TIP3    H132625   0.730   1.714   3.616  0.5254  0.1157 -0.2017
10894TIP3    H232626   0.605   1.749   3.693  0.0704  0.3858 -1.0501
10895TIP3   OH232627   0.602   5.126   2.754 -0.7510  0.3011  0.4342
10895TIP3    H132628   0.605   5.214   2.791 -0.2278  0.6163 -0.3348
10895TIP3    H232629   0.644   5.135   2.668  0.8132 -1.0123  1.0035
10896TIP3   OH232630   4.270   6.047   1.910  0.2611  0.4438 -0.2109
10896TIP3    H132631   4.184   6.006   1.922 -0.3134  1.5449 -0.4590
10896TIP3    H232632   4.332   5.974   1.920 -0.6913 -0.3886 -0.1210
10897TIP3   OH232633   0.270   6.100   5.196  0.6208 -0.0525 -0.3773
10897TIP3    H132634   0.294   6.146   5.277 -0.6604  0.5512 -0.3090
10897TIP3    H232635   0.209   6.159   5.152 -1.9283 -2.0659  0.2074
10898TIP3   OH232636   3.192   0.624   0.040 -0.4671 -0.4708 -0.7476
10898TIP3    H132637   3.264   0.677   0.008  0.5139 -0.7175  0.9409
10898TIP3    H232638   3.149   0.679   0.106 -1.4624 -0.5594 -1.3005
10899TIP3   OH232639   0.986   2.189   5.460  0.5590  0.3091  0.6278
10899TIP3    H132640   1.014   2.108   5.504 -0.1727  0.8502  2.1635
10899TIP3    H232641   0.965   2.162   5.371 -3.0713 -2.0114  1.9500
10900TIP3   OH232642   0.710   1.570   4.524  0.1818  0.1535  0.1739
10900TIP3    H132643   0.707   1.480   4.492 -1.3965 -0.4884  1.9003
10900TIP3    H232644   0.676   1.623   4.452  0.6634 -0.6889 -0.6891
10901TIP3   OH232645   4.490   2.058   3.472 -0.1434  0.7800  0.4735
10901TIP3    H132646   4.403   2.094   3.490 -0.4306  0.0370  0.6158
10901TIP3    H232647   4.476   1.998   3.399  0.0763 -0.0082  1.0715
10902TIP3   OH232648   2.527   3.767   4.639  0.4423  0.1556  0.4222
10902TIP3    H132649   2.556   3.680   4.614  1.5886  0.2118  1.4611
10902TIP3    H232650   2.536   3.819   4.559  1.6881 -0.2132  0.3094
10903TIP3   OH232651   4.990   0.700   6.406 -0.3008  0.1151 -0.0722
10903TIP3    H132652   5.023   0.636   6.343  0.3711 -0.0776  0.4596
10903TIP3    H232653   5.018   0.784   6.371  1.1907 -0.0727  0.5968
10904TIP3   OH232654   5.631   6.711   0.088  0.0086 -0.0692 -0.0071
10904TIP3    H132655   5.652   6.674   0.174 -1.3007 -1.4613 -0.2318
10904TIP3    H232656   5.707   6.690   0.033  0.4858  0.0648  0.6019
10905TIP3   OH232657   3.503   5.373   1.924  0.3839 -0.4761  0.1200
10905TIP3    H132658   3.445   5.317   1.873  1.1938 -1.6574  0.4570
10905TIP3    H232659   3.580   5.384   1.869  0.7099 -0.6647  0.5311
10906TIP3   OH232660   6.332   7.210   3.402 -0.6052  0.2993 -0.2818
10906TIP3    H132661   6.381   7.292   3.410 -1.3466  0.7426 -0.2136
10906TIP3    H232662   6.253   7.224   3.455 -1.4140  0.0760 -1.3998
10907TIP3   OH232663   3.390   1.091   2.907 -0.1863  0.3693  0.1799
10907TIP3    H132664   3.416   1.082   2.816  0.9103 -0.8468  0.5871
10907TIP3    H232665   3.472   1.090   2.956 -0.7947  0.2380  1.2319
10908TIP3   OH232666   1.460   4.830   0.397 -0.3973  0.1285  0.2686
10908TIP3    H132667   1.399   4.756   0.403 -1.1917  0.6891 -0.5507
10908TIP3    H232668   1.537   4.794   0.354 -0.8811 -0.1779 -0.3640
10909TIP3   OH232669   3.051   7.054   5.310  0.2473 -0.3516  0.4452
10909TIP3    H132670   2.982   7.019   5.367 -0.0557 -1.3632 -0.5010
10909TIP3    H232671   3.010   7.130   5.268 -0.2347 -0.8177  0.0509
10910TIP3   OH232672   3.332   7.179   6.334  0.0398 -0.3129 -0.1450
10910TIP3    H132673   3.362   7.263   6.368 -1.8576  0.9225 -1.3439
10910TIP3    H232674   3.275   7.144   6.402 -1.4123  0.7662 -0.7458
10911TIP3   OH232675   7.835   5.650   4.394 -0.2472 -0.2092 -0.3479
10911TIP3    H132676   7.888   5.684   4.467  0.7857 -0.0254 -1.1573
10911TIP3    H232677   7.801   5.728   4.351 -0.5400 -0.3081 -0.2973
10912TIP3   OH232678   7.412   7.534   6.547 -0.2543  0.4584 -0.1332
10912TIP3    H132679   7.364   7.615   6.563 -0.7748 -0.0423  0.9078
10912TIP3    H232680   7.355   7.465   6.580  1.0598 -0.1771  0.8741
10913TIP3   OH232681   2.939   4.273   1.005 -0.5509  0.1036 -0.1268
10913TIP3    H132682   2.927   4.236   0.918 -0.8136 -2.6646  1.0090
10913TIP3    H232683   2.990   4.208   1.052  1.3881  2.4591  1.2435
10914TIP3   OH232684   1.168   2.402   2.798 -0.2810  0.1024  0.6916
10914TIP3    H132685   1.256   2.394   2.834  0.1789  1.0979 -0.1487
10914TIP3    H232686   1.110   2.388   2.872  0.5610 -1.4010  1.0904
10915TIP3   OH232687   0.852   0.783   6.637 -0.5291 -0.2380 -0.4221
10915TIP3    H132688   0.830   0.694   6.663  1.8803 -0.7678  0.0493
10915TIP3    H232689   0.768   0.828   6.629 -1.7609 -2.3950 -0.1418
10916TIP3   OH232690   0.846   6.487   0.442 -0.3843  0.0688  0.2306
10916TIP3    H132691   0.900   6.566   0.443 -0.4552  0.1592 -1.1107
10916TIP3    H232692   0.791   6.497   0.364 -1.4377 -0.6191  0.8634
10917TIP3   OH232693   1.153   4.053   0.393 -0.0614  0.0671  0.1172
10917TIP3    H132694   1.143   4.040   0.488 -0.2097  1.6249  0.3392
10917TIP3    H232695   1.236   4.100   0.384  0.0704 -0.2818 -0.5555
10918TIP3   OH232696   6.262   5.779   2.045 -0.1339 -0.2114 -0.1200
10918TIP3    H132697   6.298   5.777   1.956  1.1424 -1.4859  0.3763
10918TIP3    H232698   6.312   5.847   2.089 -1.2510  0.9138 -0.5359
10919TIP3   OH232699   3.796   6.731   1.237 -0.0485  0.2697  0.0069
10919TIP3    H132700   3.702   6.749   1.239 -0.2942 -0.8067  2.2007
10919TIP3    H232701   3.812   6.682   1.318  2.2241 -0.5203 -0.8385
10920TIP3   OH232702   3.188   6.698   1.229 -0.7389 -0.0431 -0.3095
10920TIP3    H132703   3.110   6.746   1.200 -0.2648  1.3667  0.6216
10920TIP3    H232704   3.239   6.684   1.149 -1.6401 -0.4044 -0.8299
10921TIP3   OH232705   1.906   7.682   3.955  0.5388 -0.4493  0.0571
10921TIP3    H132706   1.987   7.700   4.003  0.0512 -2.9481  2.0122
10921TIP3    H232707   1.915   7.591   3.926 -1.3030 -0.5572 -0.2752
10922TIP3   OH232708   7.335   6.314   6.091 -0.3492  0.5797  0.0685
10922TIP3    H132709   7.392   6.363   6.033  1.5188  0.1278  1.4023
10922TIP3    H232710   7.317   6.374   6.164 -0.7712  0.3814  0.1335
10923TIP3   OH232711   1.034   6.759   3.447  0.0460 -0.0789 -0.7376
10923TIP3    H132712   0.942   6.733   3.439 -0.2421  0.9206 -0.7417
10923TIP3    H232713   1.080   6.678   3.468 -0.8344 -0.5888 -0.7484
10924TIP3   OH232714   6.282   1.146   0.170  0.1325  0.2770 -0.2604
10924TIP3    H132715   6.315   1.190   0.249  2.9591 -0.7220 -0.7525
10924TIP3    H232716   6.255   1.217   0.113 -2.7219  1.0207  1.7597
10925TIP3   OH232717   8.081   1.556   5.878 -0.1455 -0.2194  0.1261
10925TIP3    H132718   8.097   1.586   5.788 -1.0344  1.3119  0.4422
10925TIP3    H232719   8.135   1.477   5.887  0.3535 -0.1127 -1.5810
10926TIP3   OH232720   5.243   0.117   3.926 -0.0768 -0.3925  0.1972
10926TIP3    H132721   5.222   0.196   3.977  1.7259  0.5475 -0.4471
10926TIP3    H232722   5.275   0.151   3.843  0.9321 -1.8076 -0.0158
10927TIP3   OH232723   5.355   1.153   2.446 -0.4741  0.1855  0.0938
10927TIP3    H132724   5.443   1.117   2.448 -0.5949 -0.1333 -0.2253
10927TIP3    H232725   5.311   1.115   2.522  0.2051  1.7710  1.3268
10928TIP3   OH232726   7.885   0.873   1.454  0.7301  0.0345 -0.5969
10928TIP3    H132727   7.855   0.794   1.408  0.9166  0.3777 -1.3255
10928TIP3    H232728   7.860   0.945   1.396 -2.2918  0.8407  1.4396
10929TIP3   OH232729   2.684   1.274   1.590 -0.9324 -0.4330 -0.0869
10929TIP3    H132730   2.661   1.208   1.525 -0.9032 -2.4698  1.8527
10929TIP3    H232731   2.731   1.226   1.658 -0.3347  1.7169  1.1364
10930TIP3   OH232732   3.785   7.282   4.140 -0.2411  0.2488 -0.4218
10930TIP3    H132733   3.727   7.316   4.072 -0.7644  0.7978  0.2759
10930TIP3    H232734   3.806   7.358   4.194  0.0982 -0.1858  0.0732
10931TIP3   OH232735   8.195   4.568   3.781  0.3027 -0.2361 -0.1040
10931TIP3    H132736   8.105   4.600   3.788  0.5087  0.4304 -0.4117
10931TIP3    H232737   8.188   4.487   3.731  0.0112  0.5420 -1.3879
10932TIP3   OH232738   8.178   0.870   1.247 -0.2784 -0.0702  0.1029
10932TIP3    H132739   8.173   0.895   1.339 -0.5904 -1.2337  0.4135
10932TIP3    H232740   8.256   0.816   1.240 -0.6489 -0.5790 -0.1651
10933TIP3   OH232741   0.141   6.542   1.297 -0.4543 -0.0618 -0.0107
10933TIP3    H132742   0.127   6.485   1.373  2.1375  0.4273  0.9393
10933TIP3    H232743   0.236   6.559   1.297 -0.4312  0.3847 -3.0663
10934TIP3   OH232744   2.396   1.911   2.178 -0.2230 -0.0696 -0.4557
10934TIP3    H132745   2.465   1.961   2.222  0.9054 -1.3002 -0.7729
10934TIP3    H232746   2.319   1.922   2.234  0.4985  0.4879  0.4477
10935TIP3   OH232747   5.424   4.741   4.607 -0.2882  0.2464 -0.3936
10935TIP3    H132748   5.449   4.790   4.529 -1.0114  0.2404 -0.6428
10935TIP3    H232749   5.329   4.753   4.613 -0.5703 -1.4972 -0.7500
10936TIP3   OH232750   3.902   0.296   2.635  0.2190 -0.2815 -0.6500
10936TIP3    H132751   3.819   0.311   2.592 -0.2736 -0.0649  0.3401
10936TIP3    H232752   3.883   0.307   2.728  0.9853 -1.7987 -0.2729
10937TIP3   OH232753   0.862   4.468   3.195 -0.1696  0.4995 -0.8080
10937TIP3    H132754   0.931   4.416   3.238  1.4299  2.5205 -0.7455
10937TIP3    H232755   0.788   4.408   3.188  0.8200 -1.1172  1.2099
10938TIP3   OH232756   8.098   2.721   1.942 -0.3659  0.2373 -0.4641
10938TIP3    H132757   8.055   2.795   1.985 -0.5817  0.0049 -0.2808
10938TIP3    H232758   8.124   2.663   2.013  0.5213  0.5137 -0.5508
10939TIP3   OH232759   5.127   0.649   5.025 -0.2192  0.0348 -0.1917
10939TIP3    H132760   5.211   0.651   5.072 -0.3207 -0.8287  0.0550
10939TIP3    H232761   5.144   0.696   4.943  0.2983  0.5102  0.1821
10940TIP3   OH232762   3.440   2.347   2.827  0.1577  1.0824 -0.2223
10940TIP3    H132763   3.449   2.392   2.911  2.5479 -0.5172  0.4941
10940TIP3    H232764   3.441   2.418   2.762 -0.2634  2.2723  1.0220
10941TIP3   OH232765   6.370   3.260   4.803  0.0751  0.7099 -0.0052
10941TIP3    H132766   6.316   3.209   4.863  1.1012 -0.8882 -0.3875
10941TIP3    H232767   6.394   3.338   4.853  0.2262 -0.1964  1.3895
10942TIP3   OH232768   5.457   5.469   2.627 -0.0152 -0.4641 -0.5080
10942TIP3    H132769   5.465   5.551   2.579  2.8138  0.1392  0.8443
10942TIP3    H232770   5.447   5.495   2.718 -0.1973 -1.6458 -0.1690
10943TIP3   OH232771   4.753   4.871   4.501  0.0508 -0.3048  0.2459
10943TIP3    H132772   4.790   4.814   4.434  0.4380  0.0936  0.1137
10943TIP3    H232773   4.723   4.948   4.454  0.9394  0.2753  0.5952
10944TIP3   OH232774   6.009   6.122   6.453  0.1412  0.3496  0.1063
10944TIP3    H132775   6.004   6.152   6.544  1.2964 -0.3485  0.4186
10944TIP3    H232776   6.057   6.191   6.408 -0.2489  0.5989  0.0722
10945TIP3   OH232777   5.090   5.835   3.964  0.4386 -0.5943 -0.2375
10945TIP3    H132778   5.172   5.870   3.998  0.5160 -0.4385 -0.5768
10945TIP3    H232779   5.096   5.740   3.979  0.8735 -0.6373 -0.6558
10946TIP3   OH232780   1.975   0.988   2.699 -0.0964  0.2589 -0.0613
10946TIP3    H132781   1.977   0.953   2.610 -0.1171  1.1363 -0.4102
10946TIP3    H232782   2.065   0.982   2.730 -0.4308 -2.0574  0.6755
10947TIP3   OH232783   7.384   3.159   3.613  0.3141  0.3825 -0.1245
10947TIP3    H132784   7.352   3.113   3.535 -1.2934 -0.6266  1.0634
10947TIP3    H232785   7.445   3.098   3.654  1.2449  0.9579 -0.6143
10948TIP3   OH232786   3.079   7.467   3.849 -0.9089  0.6413  0.3605
10948TIP3    H132787   3.145   7.502   3.790 -0.9855 -0.5583 -0.4758
10948TIP3    H232788   3.008   7.532   3.848 -1.0857  0.4610 -1.2069
10949TIP3   OH232789   0.147   6.316   2.063  0.2607  0.0233  0.4135
10949TIP3    H132790   0.144   6.358   2.149 -0.1105 -1.1488  0.9915
10949TIP3    H232791   0.102   6.378   2.005  1.3576  1.2648  0.8448
10950TIP3   OH232792   6.787   4.181   0.519  0.0156 -0.3277  0.2566
10950TIP3    H132793   6.766   4.215   0.606 -0.2836  1.2147 -0.3817
10950TIP3    H232794   6.807   4.089   0.534 -2.2491 -0.6954  1.6531
10951TIP3   OH232795   6.076   7.199   2.004 -0.3744 -0.2143  0.5761
10951TIP3    H132796   5.993   7.223   2.046 -0.2617 -0.2932  0.8439
10951TIP3    H232797   6.072   7.104   1.994 -1.3328 -0.0088 -1.5642
10952TIP3   OH232798   5.700   0.609   0.124 -0.1277  0.0387  0.1383
10952TIP3    H132799   5.790   0.577   0.122  0.0281  0.3660  1.1067
10952TIP3    H232800   5.707   0.703   0.105 -0.1705  0.2150  0.9449
10953TIP3   OH232801   1.837   7.025   2.716  0.6528 -0.8191  0.0165
10953TIP3    H132802   1.924   7.050   2.747 -0.0685  1.9908  0.0646
10953TIP3    H232803   1.841   7.037   2.621  0.2396 -0.2836  0.0578
10954TIP3   OH232804   6.344   0.069   0.588  0.2134 -0.0298  0.3107
10954TIP3    H132805   6.253   0.066   0.619 -0.3885  0.7274 -1.2590
10954TIP3    H232806   6.360   0.162   0.571  1.1847 -0.1950  0.2981
10955TIP3   OH232807   0.186   5.481   4.952  0.5229 -0.3304  0.0183
10955TIP3    H132808   0.153   5.392   4.963  2.1875 -1.0380 -0.5286
10955TIP3    H232809   0.121   5.536   4.997 -0.1147 -1.8710  1.0675
10956TIP3   OH232810   1.094   1.721   1.465 -0.3375 -0.3458 -0.3402
10956TIP3    H132811   1.043   1.762   1.395  1.3055  0.8267 -0.9239
10956TIP3    H232812   1.093   1.785   1.536  0.7290 -0.0800 -0.5559
10957TIP3   OH232813   7.570   5.288   6.318  0.5877 -0.0808 -0.0692
10957TIP3    H132814   7.487   5.294   6.271  0.7684 -1.3622 -0.6032
10957TIP3    H232815   7.633   5.257   6.252  1.1383 -0.6445  0.7008
10958TIP3   OH232816   7.957   3.632   6.605  0.2742 -0.3613  0.2890
10958TIP3    H132817   8.012   3.693   6.655 -0.0086 -0.4591  0.7188
10958TIP3    H232818   7.898   3.594   6.669 -1.1116  0.6228 -0.3417
10959TIP3   OH232819   6.125   6.374   3.336 -0.3839 -0.2686 -0.1042
10959TIP3    H132820   6.152   6.286   3.364  0.8557  0.4981  1.2402
10959TIP3    H232821   6.062   6.401   3.402 -0.8337 -0.1754 -0.5712
10960TIP3   OH232822   6.961   5.889   4.108 -0.3246  0.2755  0.1863
10960TIP3    H132823   6.966   5.930   4.022  1.0945 -0.3601 -0.0743
10960TIP3    H232824   6.886   5.930   4.151 -2.3672 -0.8273 -2.0836
10961TIP3   OH232825   3.264   1.912   3.557  0.4990 -0.0457  0.3729
10961TIP3    H132826   3.308   1.947   3.480  1.4670 -1.5108  0.2141
10961TIP3    H232827   3.172   1.909   3.533  0.3354  2.3797  0.4402
10962TIP3   OH232828   0.471   1.246   3.127  0.4616 -0.4912  0.7621
10962TIP3    H132829   0.429   1.260   3.043  1.8759  0.7681  0.2247
10962TIP3    H232830   0.399   1.240   3.190 -0.5483  0.2764 -0.2960
10963TIP3   OH232831   0.769   6.095   0.782 -0.2077 -0.3089  0.4183
10963TIP3    H132832   0.828   6.168   0.767 -1.7095  0.8398 -0.2361
10963TIP3    H232833   0.684   6.126   0.752 -0.4483 -3.3053 -2.7057
10964TIP3   OH232834   0.577   2.566   5.906 -0.0710 -0.2118 -0.6459
10964TIP3    H132835   0.579   2.477   5.871  0.3965 -0.2335 -0.5788
10964TIP3    H232836   0.550   2.620   5.832 -0.7506 -0.4546 -0.5772
10965TIP3   OH232837   1.244   6.411   3.282 -0.4958  0.1699  0.8807
10965TIP3    H132838   1.191   6.387   3.207 -2.1166 -1.2345  2.3819
10965TIP3    H232839   1.276   6.499   3.262 -1.3246  0.0431 -1.1896
10966TIP3   OH232840   6.093   3.087   4.831 -0.0191 -0.3699  0.3762
10966TIP3    H132841   6.015   3.137   4.855  0.3759 -0.1495  1.2665
10966TIP3    H232842   6.154   3.103   4.903 -0.3171 -3.1249  1.3703
10967TIP3   OH232843   6.107   3.700   1.658  0.1367  0.1427  0.3548
10967TIP3    H132844   6.079   3.765   1.594  0.2610  0.4972  0.6593
10967TIP3    H232845   6.031   3.689   1.716  0.2125  0.2246  0.4704
10968TIP3   OH232846   7.463   2.993   1.611  0.4619  0.1537  0.1474
10968TIP3    H132847   7.433   2.966   1.698 -1.6771  1.2815 -0.1861
10968TIP3    H232848   7.447   2.917   1.555 -1.0423  0.4342  0.1606
10969TIP3   OH232849   0.966   6.545   1.990 -0.2120 -0.6397 -0.5020
10969TIP3    H132850   0.930   6.596   1.917  0.2323  1.1742  0.4780
10969TIP3    H232851   1.002   6.466   1.949  1.2178  0.9254 -2.4829
10970TIP3   OH232852   3.577   5.289   6.514 -0.0835 -0.7323  0.3945
10970TIP3    H132853   3.541   5.277   6.426  0.0337  3.3580 -0.4134
10970TIP3    H232854   3.525   5.360   6.551 -0.2210 -2.4110  3.7998
10971TIP3   OH232855   6.784   1.302   1.278  0.4164 -0.1679 -0.3831
10971TIP3    H132856   6.862   1.248   1.294  0.9171  0.9099  1.1088
10971TIP3    H232857   6.801   1.382   1.328 -1.1018  0.6175 -1.0773
10972TIP3   OH232858   5.162   2.171   3.075 -0.4404  0.1650  0.3629
10972TIP3    H132859   5.135   2.257   3.043 -1.4306 -0.3111 -0.1214
10972TIP3    H232860   5.213   2.190   3.154 -1.3406  1.1621  0.7313
10973TIP3   OH232861   7.714   1.686   2.557 -0.2917 -0.1474 -0.4533
10973TIP3    H132862   7.749   1.769   2.524  0.1735 -0.4751 -0.7944
10973TIP3    H232863   7.791   1.636   2.583 -0.5477 -0.6364 -0.6301
10974TIP3   OH232864   1.401   6.791   0.940 -0.2124 -0.2571  0.3593
10974TIP3    H132865   1.306   6.799   0.935 -0.0595  1.4286 -0.7334
10974TIP3    H232866   1.432   6.822   0.854  1.3311 -0.6728  0.7328
10975TIP3   OH232867   5.183   4.069   2.252 -0.4395  0.0886 -0.2289
10975TIP3    H132868   5.139   3.986   2.231 -1.1229  0.9347 -2.4604
10975TIP3    H232869   5.182   4.118   2.169 -1.3570  2.9151  1.3380
10976TIP3   OH232870   1.830   6.187   3.532  0.0213  0.0556  0.4513
10976TIP3    H132871   1.778   6.106   3.531 -0.7300  0.5086  1.1368
10976TIP3    H232872   1.921   6.157   3.531 -0.2444 -0.8125  0.9512
10977TIP3   OH232873   4.267   5.111   6.626 -0.5680  0.0028  0.2476
10977TIP3    H132874   4.185   5.153   6.650 -1.1821 -0.9624 -0.1000
10977TIP3    H232875   4.243   5.020   6.608  0.7451 -0.5505  1.1667
10978TIP3   OH232876   3.988   7.592   3.398 -0.6137  0.0866  0.9607
10978TIP3    H132877   3.976   7.671   3.345 -1.1965  0.0210  0.9965
10978TIP3    H232878   4.083   7.588   3.412 -0.3750 -0.1973 -0.5341
10979TIP3   OH232879   6.995   0.788   2.343  0.2413 -0.3081  0.2116
10979TIP3    H132880   6.943   0.714   2.376  0.5453  0.5181  2.8172
10979TIP3    H232881   6.930   0.852   2.316 -0.0589 -1.8822 -3.3582
10980TIP3   OH232882   0.885   7.718   4.515  0.5079 -0.0348  0.0152
10980TIP3    H132883   0.903   7.665   4.437  0.5890  0.0058  0.0059
10980TIP3    H232884   0.791   7.730   4.515  0.5625  0.3979 -0.3571
10981TIP3   OH232885   4.310   7.351   3.728 -0.1978  0.3609  0.2770
10981TIP3    H132886   4.280   7.372   3.817  0.7700 -1.0638  0.9891
10981TIP3    H232887   4.355   7.429   3.698  1.5398  0.1006  2.0108
10982TIP3   OH232888   4.010   2.221   1.370  0.4685 -0.2271 -0.5117
10982TIP3    H132889   4.089   2.271   1.393  0.4729 -0.7223  0.6480
10982TIP3    H232890   3.948   2.286   1.339  0.4197  0.5568  1.0981
10983TIP3   OH232891   0.790   2.867   0.859 -0.3170 -0.2707  0.1813
10983TIP3    H132892   0.796   2.773   0.875 -2.2611 -0.3648  0.6239
10983TIP3    H232893   0.783   2.906   0.947  0.7472  0.3233  0.0170
10984TIP3   OH232894   1.806   0.223   4.072  0.0437 -0.3823  0.0336
10984TIP3    H132895   1.753   0.170   4.012  0.1748  0.5095 -0.9015
10984TIP3    H232896   1.752   0.299   4.091 -0.0768 -0.7553  1.2383
10985TIP3   OH232897   7.822   3.102   4.194  0.2072 -0.4999  0.2515
10985TIP3    H132898   7.849   3.190   4.219 -0.4050  0.3800 -1.9670
10985TIP3    H232899   7.826   3.101   4.098  1.8736 -3.4540  0.2064
10986TIP3   OH232900   5.809   6.368   5.966  0.0669  0.3132  0.0257
10986TIP3    H132901   5.740   6.345   6.028  0.3368 -0.5990  0.0077
10986TIP3    H232902   5.811   6.296   5.904  1.0177  0.3267  0.0131
10987TIP3   OH232903   8.184   5.601   4.557 -0.1536  0.2354 -0.0434
10987TIP3    H132904   8.121   5.577   4.489  0.0579 -1.6445  0.3543
10987TIP3    H232905   8.131   5.610   4.636 -0.0276 -0.6625  0.1519
10988TIP3   OH232906   0.632   1.804   1.012 -0.2371  0.1527  0.5506
10988TIP3    H132907   0.673   1.736   1.066  0.9735 -0.4777 -1.0891
10988TIP3    H232908   0.705   1.859   0.984 -0.9626  0.9721  0.2308
10989TIP3   OH232909   4.018   4.290   6.649  0.3709 -0.2991  0.3502
10989TIP3    H132910   4.098   4.335   6.678 -0.0263 -0.5143  1.8189
10989TIP3    H232911   3.956   4.301   6.721 -0.7198 -0.6956 -0.5047
10990TIP3   OH232912   2.466   2.179   0.000 -0.0784  0.0348 -0.4090
10990TIP3    H132913   2.494   2.102   0.050  1.8708  0.6194 -0.4938
10990TIP3    H232914   2.509   2.252   0.044 -0.9747  0.9443 -1.0225
10991TIP3   OH232915   6.853   7.639   0.676  0.0684 -0.2414 -0.2860
10991TIP3    H132916   6.768   7.670   0.708 -0.8286 -0.8671 -1.9494
10991TIP3    H232917   6.876   7.567   0.736 -0.7910 -0.3500 -0.0683
10992TIP3   OH232918   2.832   6.377   4.646 -0.1363  0.9428 -0.0935
10992TIP3    H132919   2.810   6.446   4.708 -0.7965  0.0227  0.7156
10992TIP3    H232920   2.844   6.299   4.700  0.4275  0.3739 -1.0125
10993TIP3   OH232921   2.987   2.832   0.988  0.1413 -0.0408  0.2141
10993TIP3    H132922   2.952   2.784   1.064 -2.3876  1.3716  0.0418
10993TIP3    H232923   3.045   2.897   1.026  1.4939 -1.4249  0.6361
10994TIP3   OH232924   6.908   7.620   6.225  0.7727  0.5871  0.3670
10994TIP3    H132925   6.852   7.602   6.301 -0.8710 -0.2437 -0.9601
10994TIP3    H232926   6.882   7.708   6.197  0.4765  0.4062  0.0591
10995TIP3   OH232927   2.901   4.927   5.070  0.3322  0.2707  0.1586
10995TIP3    H132928   2.947   4.872   5.133 -0.8538  1.2401  1.9663
10995TIP3    H232929   2.950   5.009   5.069 -1.1891  1.2954  2.0697
10996TIP3   OH232930   1.566   1.340   1.800 -0.0841 -0.2149  0.2492
10996TIP3    H132931   1.504   1.308   1.735 -1.0897 -1.2644  1.6590
10996TIP3    H232932   1.623   1.400   1.752 -0.4125 -1.3990 -1.7042
10997TIP3   OH232933   2.568   0.745   5.010  0.1407 -0.1490  0.4768
10997TIP3    H132934   2.564   0.658   5.049  0.7106  0.5374  2.1521
10997TIP3    H232935   2.650   0.746   4.962 -1.1387 -1.4226 -1.9318
10998TIP3   OH232936   4.563   5.564   5.672  0.4761 -0.4837  0.0889
10998TIP3    H132937   4.572   5.652   5.636 -0.7584 -0.5896 -0.5628
10998TIP3    H232938   4.472   5.560   5.703  0.4231 -1.6184 -0.1543
10999TIP3   OH232939   7.646   3.810   4.670  0.2398  0.0381  0.3620
10999TIP3    H132940   7.587   3.836   4.741 -1.5085 -0.5430 -0.8030
10999TIP3    H232941   7.631   3.716   4.660 -1.0983  0.4038 -2.0308
11000TIP3   OH232942   0.998   3.114   5.868 -0.3034  0.5353 -0.2801
11000TIP3    H132943   0.915   3.070   5.884  0.1555 -0.4581 -0.5788
11000TIP3    H232944   1.065   3.055   5.902  0.3367  0.9149 -0.8378
11001TIP3   OH232945   4.752   0.094   2.826 -0.1171  0.7721  0.0196
11001TIP3    H132946   4.670   0.100   2.777 -0.7505  0.2675  0.9972
11001TIP3    H232947   4.739   0.020   2.886  0.8623  1.0062  0.5368
11002TIP3   OH232948   1.560   1.996   5.817 -0.1877  0.3575 -0.4444
11002TIP3    H132949   1.611   2.025   5.892 -2.3281  0.0088  1.2330
11002TIP3    H232950   1.590   2.051   5.745  0.9651  1.6576  0.9668
11003TIP3   OH232951   6.645   2.676   6.397 -0.1828 -0.0645 -0.1296
11003TIP3    H132952   6.689   2.638   6.473 -1.1032 -1.5581 -0.3054
11003TIP3    H232953   6.570   2.723   6.435 -0.7932 -1.0296 -0.1059
11004TIP3   OH232954   3.435   3.858   6.793 -0.5638 -0.2221 -0.0953
11004TIP3    H132955   3.516   3.893   6.757 -2.5560  0.1120 -5.0519
11004TIP3    H232956   3.367   3.919   6.763 -2.9238 -1.6790  1.9045
11005TIP3   OH232957   1.356   0.906   3.393 -0.2782  0.2566  0.1579
11005TIP3    H132958   1.291   0.846   3.430 -0.2670  1.0019  1.4020
11005TIP3    H232959   1.379   0.865   3.309 -0.1118 -1.6006  1.0453
11006TIP3   OH232960   0.429   3.905   0.345 -0.2633 -0.0422  1.1401
11006TIP3    H132961   0.444   3.873   0.434  0.1414 -2.2027  0.3423
11006TIP3    H232962   0.500   3.969   0.331 -0.7413  0.8642  2.5658
11007TIP3   OH232963   0.623   6.620   1.396 -0.3011  0.0643 -0.7217
11007TIP3    H132964   0.690   6.602   1.329 -0.3274  0.6059 -0.8997
11007TIP3    H232965   0.671   6.659   1.469 -0.1136 -1.4698  0.0159
11008TIP3   OH232966   4.277   6.980   3.198  0.6959 -0.0374  0.4570
11008TIP3    H132967   4.351   7.040   3.205  0.7577  0.0074 -0.4435
11008TIP3    H232968   4.231   6.989   3.281  0.6747  1.2973  0.3247
11009TIP3   OH232969   1.562   5.100   1.545 -0.0991 -0.3349 -0.2977
11009TIP3    H132970   1.526   5.153   1.616 -0.9740 -2.6843  1.1571
11009TIP3    H232971   1.497   5.104   1.476 -0.3966  0.0771  0.0026
11010TIP3   OH232972   0.133   6.642   2.757  0.0123 -0.0738  0.4924
11010TIP3    H132973   0.119   6.547   2.758  0.0076 -0.1240 -1.5343
11010TIP3    H232974   0.226   6.652   2.740 -0.5034  0.2050 -2.8087
11011TIP3   OH232975   0.062   6.815   1.262  0.1868  1.0698  0.2197
11011TIP3    H132976   0.065   6.723   1.240 -0.2107  1.1818 -0.2968
11011TIP3    H232977   0.094   6.819   1.352  1.3954  0.5672 -0.1649
11012TIP3   OH232978   4.225   1.239   0.392 -0.7049  0.1193 -0.5639
11012TIP3    H132979   4.168   1.206   0.461 -0.7808 -0.1841 -0.7653
11012TIP3    H232980   4.191   1.325   0.371  0.7022  1.2304  1.3709
11013TIP3   OH232981   4.413   5.533   0.587 -0.3099  0.2089 -0.1582
11013TIP3    H132982   4.471   5.540   0.662 -0.0538  0.0203 -0.3346
11013TIP3    H232983   4.472   5.533   0.511 -0.2490 -3.1243 -0.2531
11014TIP3   OH232984   1.997   1.829   0.028  0.2251  0.3514  0.1030
11014TIP3    H132985   1.971   1.764   0.093  0.2557  0.1989 -0.0352
11014TIP3    H232986   2.093   1.826   0.028  0.3184  1.8199  1.5294
11015TIP3   OH232987   3.125   1.538   6.645  0.3170  0.2279 -0.1335
11015TIP3    H132988   3.212   1.540   6.604 -0.2337 -1.4331 -1.4711
11015TIP3    H232989   3.071   1.594   6.589  0.0732 -0.3116 -0.4443
11016TIP3   OH232990   3.435   5.477   4.841  0.3519 -0.1763  0.7526
11016TIP3    H132991   3.367   5.499   4.904 -0.5840  1.6674 -0.8251
11016TIP3    H232992   3.408   5.393   4.804 -1.2170  0.6242  0.0101
11017TIP3   OH232993   2.202   1.163   1.896 -0.4735  0.0945  0.1498
11017TIP3    H132994   2.131   1.224   1.917  1.0250  2.1140 -0.3394
11017TIP3    H232995   2.272   1.219   1.861  0.7896 -1.9924 -0.8469
11018TIP3   OH232996   3.875   4.927   4.030 -0.0568 -0.0222 -0.3777
11018TIP3    H132997   3.951   4.935   3.972  0.7727  1.2751  0.8133
11018TIP3    H232998   3.902   4.971   4.111 -2.1235  0.6068  0.0318
11019TIP3   OH232999   4.113   0.080   5.033  0.0255  0.3667  0.3377
11019TIP3    H133000   4.044   0.067   4.967 -0.2405  0.1672  0.6569
11019TIP3    H233001   4.191   0.041   4.993 -0.1406  0.2210  0.1499
11020TIP3   OH233002   6.636   3.176   0.541  0.5092 -0.0503  0.3218
11020TIP3    H133003   6.674   3.158   0.455  0.6110  1.0295  0.1289
11020TIP3    H233004   6.617   3.270   0.540 -0.1951 -0.1692  1.2005
11021TIP3   OH233005   1.191   1.445   3.962 -0.1728 -0.3156  0.0179
11021TIP3    H133006   1.174   1.480   4.050 -1.5788 -1.6910  0.3397
11021TIP3    H233007   1.108   1.456   3.916  0.6029  0.5467 -1.2366
11022TIP3   OH233008   7.255   2.976   4.901 -0.1149  0.1922  0.1701
11022TIP3    H133009   7.230   2.885   4.885  0.2263  0.3118 -1.1485
11022TIP3    H233010   7.185   3.027   4.860 -0.3953  0.5472  1.0540
11023TIP3   OH233011   4.607   5.143   0.121 -0.4423 -0.4706  0.0656
11023TIP3    H133012   4.575   5.060   0.156  0.4022 -0.3766  1.1119
11023TIP3    H233013   4.537   5.173   0.064 -0.8859 -1.7621 -0.1141
11024TIP3   OH233014   5.837   7.479   1.234 -0.1106  0.0338 -0.2902
11024TIP3    H133015   5.760   7.518   1.274 -0.2392  0.1045 -0.6001
11024TIP3    H233016   5.855   7.533   1.157 -0.5135 -0.7182 -0.9389
11025TIP3   OH233017   1.555   1.735   4.668 -0.1974  0.6419 -0.3365
11025TIP3    H133018   1.618   1.805   4.654  1.1279  0.2131  2.5800
11025TIP3    H233019   1.608   1.660   4.695 -1.7869 -0.4950 -0.1963
11026TIP3   OH233020   0.128   4.761   5.638  0.3308 -0.0423  0.2429
11026TIP3    H133021   0.196   4.755   5.570  0.5418 -0.0275  0.4508
11026TIP3    H233022   0.134   4.852   5.668  1.1217 -0.3940  1.1881
11027TIP3   OH233023   2.137   6.567   5.687  0.0380  0.0903 -0.3798
11027TIP3    H133024   2.141   6.645   5.632  0.2875 -0.5067 -1.2251
11027TIP3    H233025   2.202   6.583   5.755  1.2500 -0.0451 -1.4624
11028TIP3   OH233026   3.043   2.216   2.387  0.0237 -0.2544  0.6091
11028TIP3    H133027   3.095   2.229   2.307  0.3173 -0.5262  0.7539
11028TIP3    H233028   2.978   2.286   2.385 -0.3897 -0.6348 -0.2042
11029TIP3   OH233029   4.711   3.839   5.288  0.1490  0.5208  0.1496
11029TIP3    H133030   4.664   3.901   5.344 -0.2290 -1.6426  2.4372
11029TIP3    H233031   4.802   3.844   5.319  0.6796  1.7976 -1.5053
11030TIP3   OH233032   0.557   4.764   5.191 -0.3305 -0.5425  0.1860
11030TIP3    H133033   0.633   4.796   5.142 -1.7264  3.1721  0.1487
11030TIP3    H233034   0.494   4.739   5.123 -1.1398  1.7388  0.0239
11031TIP3   OH233035  -0.005   4.755   5.885  0.2867 -0.2748 -0.5430
11031TIP3    H133036   0.067   4.791   5.936 -0.9083  2.0997 -0.4032
11031TIP3    H233037   0.025   4.756   5.795  1.1365 -1.2457 -0.2925
11032TIP3   OH233038   4.839   3.907   2.210 -0.4601 -0.9347  0.3017
11032TIP3    H133039   4.926   3.877   2.187 -0.2181 -0.4404  0.5604
11032TIP3    H233040   4.818   3.973   2.144 -0.2506 -0.3780  0.7831
11033TIP3   OH233041   1.068   1.020   0.061  0.0821  0.0636 -0.2914
11033TIP3    H133042   1.058   1.012   0.156  1.3299  0.1422 -0.1424
11033TIP3    H233043   0.995   1.074   0.034 -1.1017 -1.1042  0.4298
11034TIP3   OH233044   3.124   6.616   0.658  0.3869  0.6752 -0.4273
11034TIP3    H133045   3.201   6.646   0.706 -1.4369  0.4055  2.9525
11034TIP3    H233046   3.120   6.522   0.676  0.1947  0.3294 -2.0908
11035TIP3   OH233047   5.049   2.950   6.252  0.3799  0.0223 -0.5095
11035TIP3    H133048   5.127   2.905   6.221  0.4781  0.9084 -1.6675
11035TIP3    H233049   4.997   2.964   6.172 -0.6968 -0.0613  0.1606
11036TIP3   OH233050   6.416   2.929   3.046  0.3477 -0.4326  0.5490
11036TIP3    H133051   6.477   2.948   2.974 -0.3541  1.0705  0.3157
11036TIP3    H233052   6.365   3.009   3.056 -1.0324 -1.3635  1.2968
11037TIP3   OH233053   4.269   3.100   0.130  0.1864 -0.5738 -0.7849
11037TIP3    H133054   4.301   3.025   0.079  2.7832  2.4062 -4.0292
11037TIP3    H233055   4.183   3.119   0.091  0.3202 -0.7946 -1.2002
11038TIP3   OH233056   0.765   6.724   3.432  0.0114 -0.1023  0.2325
11038TIP3    H133057   0.674   6.724   3.463 -0.1087  0.2946 -0.1069
11038TIP3    H233058   0.769   6.797   3.370  1.0946  1.2306  1.7780
11039TIP3   OH233059   7.767   2.659   5.231  0.0636  0.1055 -0.1606
11039TIP3    H133060   7.748   2.724   5.164  0.4933 -1.0841 -1.4912
11039TIP3    H233061   7.812   2.588   5.185  0.0601 -0.9267  1.3145
11040TIP3   OH233062   1.547   7.021   2.722 -0.3397 -0.3612  0.2965
11040TIP3    H133063   1.534   7.114   2.704 -0.8850 -0.3181  0.8779
11040TIP3    H233064   1.642   7.010   2.724 -0.1782 -0.4975 -3.1140
11041TIP3   OH233065   1.504   3.867   3.989 -0.1866 -0.4447  0.0787
11041TIP3    H133066   1.519   3.792   3.932 -0.3966 -0.6197  0.2524
11041TIP3    H233067   1.416   3.853   4.024 -0.1799 -0.1796  0.2055
11042TIP3   OH233068   6.693   0.455   5.988 -0.0201  0.5932  0.2479
11042TIP3    H133069   6.733   0.527   5.939  0.1699 -0.4118 -1.1180
11042TIP3    H233070   6.749   0.445   6.065  0.0083  1.8238  0.4171
11043TIP3   OH233071   7.872   5.019   6.646  0.4092 -0.1132  0.4927
11043TIP3    H133072   7.862   4.987   6.736  1.2245  0.5137  0.8202
11043TIP3    H233073   7.812   4.966   6.595 -1.0680  0.3993  1.6198
11044TIP3   OH233074   8.183   6.602   4.469  0.1187 -0.1042 -0.0599
11044TIP3    H133075   8.133   6.667   4.419 -0.7874 -1.0330 -0.3829
11044TIP3    H233076   8.148   6.518   4.442  1.5197 -0.7742  0.0867
11045TIP3   OH233077   1.286   5.511   2.590 -0.4899  0.1988  0.0013
11045TIP3    H133078   1.345   5.463   2.649 -1.5362  1.5023  2.2187
11045TIP3    H233079   1.234   5.443   2.548 -0.2641 -0.7551  1.1961
11046TIP3   OH233080   7.462   2.222   5.705  0.5062 -0.8434  0.4163
11046TIP3    H133081   7.381   2.250   5.662  1.0306  2.0705  1.0905
11046TIP3    H233082   7.531   2.238   5.641  0.9290  0.3726  1.1458
11047TIP3   OH233083   1.224   0.860   6.461  0.4316 -0.0280 -0.6818
11047TIP3    H133084   1.162   0.835   6.392 -0.4545 -1.3417  0.5376
11047TIP3    H233085   1.277   0.782   6.475  1.1812  0.5076 -0.4498
11048TIP3   OH233086   0.122   1.799   0.533 -0.4913 -0.5174  0.3199
11048TIP3    H133087   0.198   1.856   0.517 -0.1967 -1.1588 -0.6734
11048TIP3    H233088   0.117   1.792   0.628 -0.9655  1.7094  0.5081
11049TIP3   OH233089   0.904   0.409   3.071  0.0873 -0.1312  0.0662
11049TIP3    H133090   0.879   0.463   3.145  0.6724  0.3421 -0.0709
11049TIP3    H233091   0.846   0.437   3.000 -0.9720 -1.0915  0.5177
11050TIP3   OH233092   5.279   3.847   2.456 -0.4583 -0.2435  0.4736
11050TIP3    H133093   5.329   3.832   2.375 -0.7189  1.8404 -0.1381
11050TIP3    H233094   5.206   3.785   2.450  0.1589 -0.9302 -0.3060
11051TIP3   OH233095   1.043   1.337   4.649  0.1166  0.7021  0.3796
11051TIP3    H133096   1.137   1.345   4.669  0.3893  1.6451 -1.1293
11051TIP3    H233097   1.026   1.406   4.585 -1.1211 -0.8137 -1.0178
11052TIP3   OH233098   4.512   0.108   2.680  0.3279 -0.3027  0.3469
11052TIP3    H133099   4.421   0.134   2.666  0.1152 -1.0086  0.3582
11052TIP3    H233100   4.533   0.051   2.606  0.7723 -0.1171  0.3250
11053TIP3   OH233101   5.187   7.492   1.399 -0.3239 -0.2075  0.2949
11053TIP3    H133102   5.131   7.568   1.414  0.5040  0.6464 -0.7159
11053TIP3    H233103   5.162   7.461   1.312  0.8938  0.3459 -0.2847
11054TIP3   OH233104   7.751   3.531   6.424 -0.2096 -0.6168 -1.0937
11054TIP3    H133105   7.677   3.580   6.459  0.4696  0.2085 -0.7724
11054TIP3    H233106   7.819   3.540   6.490  0.7044 -0.0213 -2.0892
11055TIP3   OH233107   6.548   5.160   3.093  0.0775  0.1550  0.0047
11055TIP3    H133108   6.517   5.201   3.013 -1.0145  0.9800  0.8092
11055TIP3    H233109   6.495   5.080   3.101  0.2947 -0.0084 -0.1575
11056TIP3   OH233110   0.060   0.115   3.588 -0.3446 -0.4096 -0.2749
11056TIP3    H133111  -0.022   0.097   3.634 -0.2562  0.1597  0.1179
11056TIP3    H233112   0.127   0.106   3.655 -0.1768  0.0468 -0.3800
11057TIP3   OH233113   3.917   5.696   2.687 -0.0451  0.2587 -0.1735
11057TIP3    H133114   3.874   5.647   2.617 -0.7860  0.0169  0.4282
11057TIP3    H233115   3.847   5.750   2.724 -0.2329 -1.2239  1.8000
11058TIP3   OH233116   4.457   1.157   2.101 -0.0013 -0.0284  0.6045
11058TIP3    H133117   4.365   1.179   2.109  0.2772  0.5669  2.9352
11058TIP3    H233118   4.459   1.072   2.057 -1.5403  0.6490 -0.8770
11059TIP3   OH233119   0.639   1.430   5.479  0.3912 -0.5993 -0.1129
11059TIP3    H133120   0.732   1.453   5.477  0.5908 -1.3383  0.1429
11059TIP3    H233121   0.637   1.339   5.447 -0.4661  0.0827 -2.1786
11060TIP3   OH233122   6.348   5.744   6.021  0.1906 -0.2095 -0.5807
11060TIP3    H133123   6.430   5.779   6.055  1.1704 -3.0658  0.3780
11060TIP3    H233124   6.357   5.748   5.926  0.2670  1.8795 -0.5260
11061TIP3   OH233125   3.974   1.694   4.527  0.2433  0.0386  0.2433
11061TIP3    H133126   3.910   1.766   4.527  1.1382  0.8760 -0.6039
11061TIP3    H233127   3.970   1.658   4.615  0.2236  1.5705  0.9067
11062TIP3   OH233128   5.497   0.224   1.578  0.0541 -0.3960 -0.4129
11062TIP3    H133129   5.457   0.278   1.510  0.7067  2.5002  1.3514
11062TIP3    H233130   5.576   0.272   1.603  1.1656 -2.6445  0.7297
11063TIP3   OH233131   5.137   2.942   2.174  0.2395 -0.1362 -0.0557
11063TIP3    H133132   5.130   3.006   2.103 -0.0392 -0.4090 -0.2808
11063TIP3    H233133   5.223   2.957   2.212 -1.3223  3.2301  2.6364
11064TIP3   OH233134   8.220   3.525   4.863 -0.0137  0.6685  0.7099
11064TIP3    H133135   8.246   3.589   4.930  1.3050  0.1891  0.6800
11064TIP3    H233136   8.302   3.481   4.839 -0.6758 -0.0351 -0.3141
11065TIP3   OH233137   2.868   3.733   2.882  0.0566 -0.2383 -0.7756
11065TIP3    H133138   2.836   3.643   2.882  1.1713 -0.6628 -1.7941
11065TIP3    H233139   2.953   3.728   2.837  0.5351  1.1769 -0.0824
11066TIP3   OH233140   0.309   0.616   2.688 -0.2856  0.0021  0.8466
11066TIP3    H133141   0.348   0.590   2.605  0.0310  0.9508  0.6806
11066TIP3    H233142   0.218   0.636   2.667 -0.0381  0.9128  0.5642
11067TIP3   OH233143   4.423   3.315   2.091 -0.3169 -0.6908  0.4093
11067TIP3    H133144   4.508   3.284   2.122 -0.1685 -0.2152  0.4808
11067TIP3    H233145   4.437   3.407   2.072 -0.5100 -0.8860 -0.7154
11068TIP3   OH233146   0.555   7.670   3.979 -0.1453  0.2116 -0.3515
11068TIP3    H133147   0.642   7.690   3.944 -0.2215  0.4054 -0.4344
11068TIP3    H233148   0.572   7.634   4.066 -0.0396  1.6879  0.2681
11069TIP3   OH233149   2.948   6.045   3.997 -0.1959 -0.0990 -0.0194
11069TIP3    H133150   2.987   5.959   3.981 -0.3738 -0.3175  0.6837
11069TIP3    H233151   2.982   6.071   4.082 -0.1007  0.5582 -0.2532
11070TIP3   OH233152   2.708   2.687   4.651  0.4482 -0.0574 -0.4717
11070TIP3    H133153   2.785   2.734   4.620  0.5094 -0.0887 -0.3675
11070TIP3    H233154   2.740   2.600   4.672  0.5722  0.2001  0.4408
11071TIP3   OH233155   2.391   6.861   3.356  0.7540  0.8744  0.3065
11071TIP3    H133156   2.372   6.911   3.435 -2.2140  0.7857 -0.2371
11071TIP3    H233157   2.430   6.925   3.296  1.4056  1.3446  1.1964
11072TIP3   OH233158   6.286   2.329   5.143  0.4439 -0.4250 -0.2605
11072TIP3    H133159   6.261   2.422   5.139  0.8484 -0.2680  0.5567
11072TIP3    H233160   6.242   2.289   5.068 -0.0541  0.3544 -0.3979
11073TIP3   OH233161   5.947   5.826   1.354  0.2527  0.2133  0.4782
11073TIP3    H133162   5.987   5.742   1.330 -0.8245  0.0399 -0.8697
11073TIP3    H233163   5.888   5.845   1.281  0.5596  2.2102  0.7117
11074TIP3   OH233164   8.008   0.208   6.541  0.4267  0.4976  0.1793
11074TIP3    H133165   8.012   0.139   6.607 -2.3874  0.1205  0.0928
11074TIP3    H233166   7.984   0.163   6.460 -0.1483  1.3957 -0.1706
11075TIP3   OH233167   1.319   0.867   4.011 -0.0977  0.1126 -0.2131
11075TIP3    H133168   1.264   0.803   3.967 -0.0141 -1.9082  2.4230
11075TIP3    H233169   1.268   0.895   4.087  1.2192  0.6326  0.5098
11076TIP3   OH233170   4.352   3.013   3.043  0.0214 -0.1069  0.6584
11076TIP3    H133171   4.324   3.100   3.015  2.7725  0.8721  0.6056
11076TIP3    H233172   4.375   3.024   3.135 -0.4611 -1.0395  0.9068
11077TIP3   OH233173   5.750   2.684   3.788 -0.2930 -0.2745  0.2613
11077TIP3    H133174   5.728   2.768   3.828 -0.6977 -0.1569 -0.1912
11077TIP3    H233175   5.830   2.701   3.738 -0.0014 -0.3277  0.7041
11078TIP3   OH233176   5.447   0.311   3.402 -0.0966  0.1215 -0.1577
11078TIP3    H133177   5.438   0.238   3.341 -0.9871 -1.8599  2.1321
11078TIP3    H233178   5.503   0.276   3.472 -0.1369  1.8291  0.7814
11079TIP3   OH233179   5.939   6.043   4.531 -0.1567 -0.0367 -0.2501
11079TIP3    H133180   5.899   6.089   4.605 -0.3038  0.4706 -0.6360
11079TIP3    H233181   6.030   6.028   4.560  0.0618  1.0181 -0.3241
11080TIP3   OH233182   7.603   1.317   6.574 -0.4938  0.3510 -0.5838
11080TIP3    H133183   7.635   1.347   6.489 -0.6712 -1.8877 -1.5265
11080TIP3    H233184   7.532   1.377   6.596 -0.0619  1.3172 -1.7181
11081TIP3   OH233185   5.421   1.413   4.024 -0.6249  0.0826 -0.4250
11081TIP3    H133186   5.513   1.439   4.018 -0.6582  0.1254 -0.7720
11081TIP3    H233187   5.398   1.428   4.115 -0.1610 -0.3536 -0.2289
11082TIP3   OH233188   6.568   3.765   3.731  0.3320 -0.2341  0.0490
11082TIP3    H133189   6.587   3.855   3.756 -1.3338  0.9262 -2.5310
11082TIP3    H233190   6.650   3.732   3.695  1.0988  0.0000  1.4920
11083TIP3   OH233191   6.121   7.286   3.611  0.1753 -0.2063 -0.7447
11083TIP3    H133192   6.106   7.198   3.576  1.6632 -0.8963  0.2638
11083TIP3    H233193   6.186   7.274   3.679  1.0565  1.8093 -1.1653
11084TIP3   OH233194   0.929   0.723   2.197  0.0863 -0.0677 -0.0800
11084TIP3    H133195   0.836   0.737   2.179  0.1075 -0.7365 -0.7334
11084TIP3    H233196   0.967   0.700   2.112  1.0626  1.2796 -0.0314
11085TIP3   OH233197   6.716   1.754   0.854  0.2434 -0.1355  0.0183
11085TIP3    H133198   6.808   1.727   0.846  0.0115 -0.7364 -0.7254
11085TIP3    H233199   6.705   1.821   0.787  0.5306  1.0888  1.1461
11086TIP3   OH233200   3.053   3.841   4.504 -0.2915  0.0279  0.3379
11086TIP3    H133201   3.083   3.910   4.445 -0.7123 -1.4354 -1.7196
11086TIP3    H233202   2.959   3.856   4.513 -0.3136 -0.0345  0.2153
11087TIP3   OH233203   0.899   2.327   1.706 -0.2521  0.4903  0.6230
11087TIP3    H133204   0.951   2.251   1.680  0.4692  0.7515  1.2526
11087TIP3    H233205   0.844   2.295   1.777 -2.1397 -0.1938 -1.0706
11088TIP3   OH233206   4.036   0.088   1.723 -0.4673  0.0917 -0.1913
11088TIP3    H133207   3.961   0.030   1.730  1.2909 -2.2580  0.2097
11088TIP3    H233208   4.099   0.040   1.670  1.5565  1.0708  1.1976
11089TIP3   OH233209   4.909   6.910   1.161 -0.7453  0.2217  0.5640
11089TIP3    H133210   4.931   6.988   1.212 -0.4444  0.0711  0.6677
11089TIP3    H233211   4.935   6.836   1.217  1.0106  0.0593 -0.3871
11090TIP3   OH233212   3.375   6.729   2.144 -0.4267  0.5840  0.3459
11090TIP3    H133213   3.291   6.737   2.189  0.5796  1.1204  2.2317
11090TIP3    H233214   3.383   6.810   2.094 -1.6467 -0.1050 -1.0420
11091TIP3   OH233215   7.987   2.946   4.325 -0.6807  0.0012 -0.0579
11091TIP3    H133216   7.922   3.011   4.297 -1.8578 -0.7716  0.7960
11091TIP3    H233217   7.942   2.894   4.391  0.7234 -0.7653  0.3352
11092TIP3   OH233218   5.373   7.405   3.180  0.1808 -1.0606  0.5123
11092TIP3    H133219   5.465   7.379   3.181 -0.1653 -2.4493  1.8377
11092TIP3    H233220   5.368   7.476   3.117  2.1624 -0.9419  0.4270
11093TIP3   OH233221   7.602   5.634   4.963  0.2473 -0.0831 -0.1780
11093TIP3    H133222   7.696   5.634   4.945  0.3175  1.8162 -0.0217
11093TIP3    H233223   7.561   5.636   4.877  0.4002  0.6761 -0.2402
11094TIP3   OH233224   7.931   6.140   2.845  0.1695 -0.4609  0.3779
11094TIP3    H133225   7.928   6.216   2.787 -0.6979 -1.2791 -0.6793
11094TIP3    H233226   7.895   6.068   2.794 -1.2898 -1.0683  2.1406
11095TIP3   OH233227   1.183   1.797   5.140 -0.2630 -0.7942  0.0075
11095TIP3    H133228   1.278   1.788   5.147 -0.2110 -0.9423 -0.7749
11095TIP3    H233229   1.168   1.822   5.048 -0.8099  1.6201  0.6818
11096TIP3   OH233230   7.355   4.365   1.769 -0.2738 -0.2442 -0.1835
11096TIP3    H133231   7.436   4.325   1.801 -0.5827  0.6759  1.9016
11096TIP3    H233232   7.307   4.292   1.730  1.3676 -0.8764 -1.1359
11097TIP3   OH233233   7.127   4.245   0.531  0.1887  0.3356  0.3471
11097TIP3    H133234   7.081   4.188   0.592 -2.2644  0.8433 -0.9239
11097TIP3    H233235   7.091   4.332   0.546  1.2010  0.8793 -0.2645
11098TIP3   OH233236   8.231   4.246   5.268 -0.2447  0.0222  0.1391
11098TIP3    H133237   8.215   4.340   5.260  0.6113  0.0268 -1.9313
11098TIP3    H233238   8.157   4.205   5.223 -1.0540 -0.3884  1.7297
11099TIP3   OH233239   0.478   4.504   5.694 -0.0713 -0.6974  0.1283
11099TIP3    H133240   0.540   4.450   5.743 -0.0991 -0.1153  0.8268
11099TIP3    H233241   0.517   4.513   5.607 -0.1143 -1.9091 -0.0339
11100TIP3   OH233242   1.179   7.335   3.227 -0.4283  0.4644 -0.1001
11100TIP3    H133243   1.110   7.311   3.165 -0.8931 -0.5305  0.7647
11100TIP3    H233244   1.142   7.408   3.277 -1.0148 -0.2913  0.5945
11101TIP3   OH233245   7.791   4.377   2.964 -0.1052 -0.2710  0.0395
11101TIP3    H133246   7.726   4.308   2.980  0.1939 -0.2320  1.5336
11101TIP3    H233247   7.875   4.334   2.978  0.2184 -0.2531 -1.6438
11102TIP3   OH233248   5.528   3.947   5.945 -0.0113  0.3864  0.0074
11102TIP3    H133249   5.439   3.945   5.912 -0.6028 -1.6565  1.5673
11102TIP3    H233250   5.549   3.856   5.966  2.1750  0.9084  0.3800
11103TIP3   OH233251   5.590   0.829   4.143 -0.0660  0.0215 -0.0040
11103TIP3    H133252   5.529   0.785   4.085 -0.0544 -0.3623  0.2723
11103TIP3    H233253   5.535   0.889   4.195 -0.3273 -0.8580  0.7611
11104TIP3   OH233254   6.415   0.888   0.249  0.1900 -0.7559  0.3351
11104TIP3    H133255   6.399   0.907   0.156  2.0930 -0.1190  0.0893
11104TIP3    H233256   6.366   0.808   0.266 -1.0770 -0.2928 -0.9202
11105TIP3   OH233257   6.961   5.495   6.369  0.2487  0.2192  0.3176
11105TIP3    H133258   6.998   5.532   6.289  1.5028 -0.7047  0.4283
11105TIP3    H233259   7.032   5.502   6.433 -1.1174  2.0705  1.7502
11106TIP3   OH233260   2.989   3.512   1.894  0.2752  0.3736  0.1798
11106TIP3    H133261   2.939   3.581   1.937 -1.0755 -0.8949  0.7719
11106TIP3    H233262   2.924   3.442   1.880  1.2689 -0.2431 -1.6261
11107TIP3   OH233263   7.365   6.211   5.130 -0.1141  0.0292  0.2583
11107TIP3    H133264   7.423   6.190   5.203 -0.5951 -1.3486  0.2681
11107TIP3    H233265   7.400   6.162   5.056  0.7274  1.8800 -0.6443
11108TIP3   OH233266   3.321   4.336   5.446  0.6321  0.1658 -0.2326
11108TIP3    H133267   3.369   4.284   5.382  0.9149  0.0891  0.0427
11108TIP3    H233268   3.345   4.427   5.426 -0.8900  0.3240 -1.5806
11109TIP3   OH233269   0.310   2.343   5.834 -0.3528  0.2831  0.5539
11109TIP3    H133270   0.331   2.289   5.758 -4.0386  0.2463 -0.6521
11109TIP3    H233271   0.305   2.282   5.907  0.9902 -0.0365  0.4085
11110TIP3   OH233272   7.861   0.533   2.292  0.3606 -0.2898 -0.5501
11110TIP3    H133273   7.820   0.516   2.207 -0.5041  0.2323 -0.2452
11110TIP3    H233274   7.837   0.623   2.312 -1.3601 -1.1015  1.3003
11111TIP3   OH233275   1.431   2.145   1.346  0.1710  0.0613 -0.1198
11111TIP3    H133276   1.426   2.050   1.332  2.2011 -0.3159  1.2051
11111TIP3    H233277   1.355   2.165   1.401  1.6004 -1.5298  2.6584
11112TIP3   OH233278   2.823   7.596   2.970  0.2592 -0.0100  0.3783
11112TIP3    H133279   2.746   7.636   3.011 -0.6002 -0.9509 -0.2605
11112TIP3    H233280   2.835   7.513   3.017 -0.6103 -1.0022 -1.0651
11113TIP3   OH233281   6.199   7.830   4.828 -0.1726  0.6500 -0.2836
11113TIP3    H133282   6.191   7.749   4.779  0.8671  1.0527 -1.1469
11113TIP3    H233283   6.109   7.852   4.853 -0.4800 -0.6449 -0.2123
11114TIP3   OH233284  -0.029   1.494   5.391  0.0428  0.3179 -0.5250
11114TIP3    H133285   0.015   1.417   5.429 -0.8091 -0.2968 -0.7395
11114TIP3    H233286   0.015   1.569   5.432 -1.0386 -0.3044  1.9981
11115TIP3   OH233287   7.899   6.676   3.906  0.8162 -0.2513 -0.3852
11115TIP3    H133288   7.984   6.644   3.875  1.4746  2.4497 -1.6749
11115TIP3    H233289   7.920   6.742   3.971 -0.2788  0.5527 -0.8143
11116TIP3   OH233290   3.369   2.069   1.652  0.6786  0.0645 -0.1588
11116TIP3    H133291   3.318   2.018   1.715 -0.1067 -0.1386 -0.9518
11116TIP3    H233292   3.457   2.072   1.690  0.3522 -0.5294  0.6697
11117TIP3   OH233293   2.853   0.120   1.042 -0.1036  0.0257 -0.2617
11117TIP3    H133294   2.932   0.133   0.988 -0.3091  0.1986 -0.5231
11117TIP3    H233295   2.887   0.092   1.127  0.2332 -0.1163 -0.4381
11118TIP3   OH233296   2.668   1.574   2.966  0.4914 -0.4203 -0.0440
11118TIP3    H133297   2.667   1.478   2.958  1.9511 -0.3775 -1.0497
11118TIP3    H233298   2.745   1.602   2.916 -1.0893  1.4512 -1.5950
11119TIP3   OH233299   5.589   1.094   2.181 -0.2867 -0.4733 -0.0268
11119TIP3    H133300   5.503   1.125   2.152 -0.5489  0.2255  1.4070
11119TIP3    H233301   5.643   1.173   2.186  0.5261 -0.9384 -1.1299
11120TIP3   OH233302   7.481   1.119   2.322 -0.0551  0.3280 -0.2573
11120TIP3    H133303   7.424   1.071   2.262 -0.4403 -0.6257  0.8469
11120TIP3    H233304   7.569   1.105   2.288  0.1699 -3.3251  1.3597
11121TIP3   OH233305   5.652   2.171   0.175  0.3485  0.5367  0.6275
11121TIP3    H133306   5.677   2.135   0.260  1.7255 -2.2801 -0.8216
11121TIP3    H233307   5.714   2.241   0.159  1.3684 -0.2247  1.1173
11122TIP3   OH233308   1.086   3.533   6.699 -0.5914  0.5408  0.1532
11122TIP3    H133309   1.179   3.510   6.709 -0.5618  0.1839 -0.8823
11122TIP3    H233310   1.042   3.451   6.679 -1.7164  0.0493  3.9553
11123TIP3   OH233311   5.685   3.221   2.525  0.8756 -0.1229  0.3993
11123TIP3    H133312   5.701   3.186   2.437 -1.4965  0.6389 -0.4163
11123TIP3    H233313   5.637   3.302   2.510 -0.2342 -0.3448  2.3836
11124TIP3   OH233314   0.096   5.565   5.895 -0.3511 -0.6383 -0.0945
11124TIP3    H133315   0.149   5.500   5.941  1.1942  0.0388 -0.8497
11124TIP3    H233316   0.118   5.648   5.938 -0.6273 -0.3191 -0.5625
11125TIP3   OH233317   6.459   4.674   1.676 -0.4428  0.3495  0.0119
11125TIP3    H133318   6.448   4.602   1.614 -1.8595 -0.9123  1.6231
11125TIP3    H233319   6.534   4.649   1.729 -1.3249 -0.2873  0.9842
11126TIP3   OH233320   7.252   5.919   2.291  0.1586 -0.4556  0.3371
11126TIP3    H133321   7.301   5.928   2.373  1.4495  0.6013 -0.5150
11126TIP3    H233322   7.319   5.920   2.222 -1.0740  1.9702 -0.9411
11127TIP3   OH233323   0.647   7.736   3.710  0.1664  0.6687 -0.1222
11127TIP3    H133324   0.638   7.811   3.651 -1.7336  1.2384  0.8188
11127TIP3    H233325   0.558   7.705   3.723  0.8302 -1.1747  0.2938
11128TIP3   OH233326   2.095   0.182   2.940 -0.3600 -0.0112  0.0649
11128TIP3    H133327   2.016   0.129   2.935 -1.5098  1.5920  0.3922
11128TIP3    H233328   2.133   0.177   2.852 -1.9370  0.7725 -0.7025
11129TIP3   OH233329  -0.023   7.064   4.203 -0.0825  0.2826  0.1721
11129TIP3    H133330   0.038   7.127   4.242 -0.8148  0.4599  1.0678
11129TIP3    H233331   0.033   6.992   4.173  0.5248  0.0951  1.6502
11130TIP3   OH233332   4.402   6.895   4.741 -0.1869 -0.5942  0.0314
11130TIP3    H133333   4.445   6.877   4.824  1.1671 -0.7183 -0.6658
11130TIP3    H233334   4.409   6.990   4.730  0.7691 -0.7147 -0.5121
11131TIP3   OH233335   0.539   2.015   1.205 -0.2580  0.5954 -0.0446
11131TIP3    H133336   0.622   1.990   1.164  1.1732  0.4917  2.6987
11131TIP3    H233337   0.494   1.932   1.221 -0.7782  0.6306 -1.2361
11132TIP3   OH233338   3.737   5.916   4.618 -0.3457 -0.0988  0.5827
11132TIP3    H133339   3.716   6.008   4.602 -0.8764 -0.0006  1.7300
11132TIP3    H233340   3.831   5.916   4.636  0.0281 -0.0547 -1.1746
11133TIP3   OH233341   1.995   3.248   1.389 -0.1984  0.1828  0.5220
11133TIP3    H133342   2.004   3.306   1.314 -3.0613  1.0667  0.7068
11133TIP3    H233343   2.008   3.305   1.465  0.2377 -0.1658  0.7148
11134TIP3   OH233344   5.767   3.655   4.952 -0.3150  0.4607 -0.0956
11134TIP3    H133345   5.838   3.720   4.951 -1.3095  1.5969 -2.0744
11134TIP3    H233346   5.687   3.706   4.945 -1.2347 -0.9191 -0.0803
11135TIP3   OH233347   3.016   1.993   1.757  0.0101  0.8987 -0.5242
11135TIP3    H133348   3.108   1.999   1.783  0.4205  0.3318 -1.7703
11135TIP3    H233349   3.005   1.904   1.726 -1.0929  0.8248  0.0341
11136TIP3   OH233350   8.169   0.626   4.549  0.7689  0.2661  0.1331
11136TIP3    H133351   8.151   0.696   4.487 -1.5936  0.2210  0.6736
11136TIP3    H233352   8.231   0.664   4.611  0.2855  1.5397 -0.1343
11137TIP3   OH233353   6.064   6.824   5.067  0.4187 -0.0535  0.3716
11137TIP3    H133354   6.007   6.794   4.997 -1.4375  0.8429  1.4440
11137TIP3    H233355   6.022   6.795   5.148  2.4359 -0.9388  1.1674
11138TIP3   OH233356   1.008   7.233   0.298  0.2880  0.1357 -0.5819
11138TIP3    H133357   1.062   7.154   0.290 -0.0295  0.0193 -1.8764
11138TIP3    H233358   1.064   7.295   0.345 -0.6803 -1.8895  3.6757
11139TIP3   OH233359   7.069   5.325   1.800  0.4263  0.0084 -0.6349
11139TIP3    H133360   7.050   5.318   1.893  0.0486  0.7501 -0.6469
11139TIP3    H233361   7.160   5.299   1.792  0.6586  0.5688  0.0463
11140TIP3   OH233362   7.780   2.038   4.604 -0.3175  0.7495 -0.2404
11140TIP3    H133363   7.703   2.075   4.647 -1.4104 -1.4229 -0.1808
11140TIP3    H233364   7.848   2.040   4.672 -0.1150  3.1160 -0.4379
11141TIP3   OH233365   2.219   1.983   6.409 -0.0452 -0.1939 -0.1861
11141TIP3    H133366   2.222   1.972   6.504 -2.9185  0.9181  0.1127
11141TIP3    H233367   2.218   2.077   6.395 -2.3345 -0.3024 -1.1167
11142TIP3   OH233368   6.364   1.899   5.220 -0.3161 -0.3713 -0.1882
11142TIP3    H133369   6.381   1.986   5.184  1.3800 -0.8458 -0.6472
11142TIP3    H233370   6.269   1.894   5.227 -0.4426  1.7170  0.3817
11143TIP3   OH233371   7.385   0.417   3.196  0.1705  0.5040  0.4569
11143TIP3    H133372   7.471   0.382   3.222 -0.0825  1.3540  2.5970
11143TIP3    H233373   7.396   0.512   3.200 -0.6188  0.6287 -0.1887
11144TIP3   OH233374   2.155   4.728   5.947 -0.0887  0.3407 -0.1235
11144TIP3    H133375   2.145   4.812   5.993 -0.1461  0.5732 -0.5571
11144TIP3    H233376   2.136   4.748   5.856  0.1183 -0.1000 -0.2671
11145TIP3   OH233377   2.698   1.022   2.547  0.1246  0.2759  0.6118
11145TIP3    H133378   2.744   1.031   2.463 -1.0783  0.2983 -0.0572
11145TIP3    H233379   2.614   1.065   2.533  0.3123  1.2164  2.1718
11146TIP3   OH233380   6.687   5.856   2.705 -0.0567 -0.2725  0.4093
11146TIP3    H133381   6.654   5.936   2.664  0.8515  0.0008  0.2012
11146TIP3    H233382   6.612   5.796   2.703 -0.5592  0.3495 -0.0053
11147TIP3   OH233383   4.621   7.391   2.160 -0.0884 -0.1206 -0.1468
11147TIP3    H133384   4.591   7.378   2.250  1.5917 -1.1237  0.3088
11147TIP3    H233385   4.564   7.460   2.126 -1.4854 -0.4837  1.3142
11148TIP3   OH233386   7.151   1.323   2.724  0.2469 -0.2532 -0.1040
11148TIP3    H133387   7.124   1.363   2.642 -0.8376  0.6399  0.6494
11148TIP3    H233388   7.070   1.288   2.762  1.0767 -2.8248 -0.5034
11149TIP3   OH233389   0.585   6.443   3.316 -0.1538 -0.1921  0.7077
11149TIP3    H133390   0.599   6.456   3.410  0.6970  0.0580  0.5514
11149TIP3    H233391   0.559   6.529   3.283  1.0938  0.1044  0.4511
11150TIP3   OH233392   6.506   3.695   6.665 -0.4916 -0.5533  0.4366
11150TIP3    H133393   6.526   3.773   6.613  0.8295 -1.3462 -0.2784
11150TIP3    H233394   6.412   3.701   6.681 -0.8220  0.0275 -1.5110
11151TIP3   OH233395   2.735   0.401   1.102  0.3480  0.1585 -0.2190
11151TIP3    H133396   2.822   0.440   1.102  0.7873 -0.7614  0.4356
11151TIP3    H233397   2.751   0.307   1.089 -0.3196 -0.3905  2.3665
11152TIP3   OH233398   6.065   5.575   5.800  0.3481  0.1396 -0.2183
11152TIP3    H133399   6.120   5.652   5.785  2.4542 -1.0751  0.8138
11152TIP3    H233400   6.075   5.557   5.893  0.3770 -1.7058 -0.5460
11153TIP3   OH233401   2.897   3.116   5.159  0.8651  0.3786 -0.2341
11153TIP3    H133402   2.943   3.165   5.227  1.2467 -0.6790  0.2919
11153TIP3    H233403   2.927   3.026   5.170  0.8104  0.1590 -1.7127
11154TIP3   OH233404   4.705   5.156   3.867 -0.3027  0.6608  0.4227
11154TIP3    H133405   4.761   5.078   3.871  0.1641  1.0175  1.1961
11154TIP3    H233406   4.619   5.123   3.844  0.5563  0.2733 -2.5972
11155TIP3   OH233407   3.697   7.350   5.003 -0.5369  1.0174 -0.9502
11155TIP3    H133408   3.640   7.347   5.080  0.7927 -0.3569  0.0502
11155TIP3    H233409   3.756   7.424   5.020  3.0318 -2.0627  1.9962
11156TIP3   OH233410   0.943   2.840   3.892 -0.0738 -0.8912  0.1375
11156TIP3    H133411   1.020   2.895   3.878 -0.5321 -0.5284 -1.1509
11156TIP3    H233412   0.945   2.778   3.819 -2.0432  0.3816 -1.0825
11157TIP3   OH233413   3.963   0.876   0.588  0.8897  0.5243  0.4353
11157TIP3    H133414   4.056   0.899   0.580  0.9044  0.5572  0.6934
11157TIP3    H233415   3.925   0.947   0.638  0.7939  0.3381  0.6261
11158TIP3   OH233416   3.837   1.570   4.759 -0.1939  0.4837  0.2644
11158TIP3    H133417   3.808   1.487   4.720 -0.1465  0.7111 -0.2666
11158TIP3    H233418   3.760   1.627   4.754  0.1388  0.8838 -0.5628
11159TIP3   OH233419   4.035   3.861   0.487  0.4723 -0.0615  0.2932
11159TIP3    H133420   3.952   3.829   0.453  0.2715  1.1101 -0.3656
11159TIP3    H233421   4.041   3.826   0.575 -0.7441 -0.1159  0.3591
11160TIP3   OH233422   7.732   3.259   3.141  0.9397  0.7000  0.2806
11160TIP3    H133423   7.654   3.219   3.178  1.7722 -0.1801  1.1219
11160TIP3    H233424   7.744   3.339   3.193  1.1251  0.3594  0.7633
11161TIP3   OH233425   3.787   0.636   1.945  0.2452  0.1960  0.0249
11161TIP3    H133426   3.848   0.595   1.884  0.8121  0.3168  0.4997
11161TIP3    H233427   3.799   0.730   1.930  1.3952  0.2775  1.2555
11162TIP3   OH233428   4.205   4.265   0.258  0.1343  0.1272 -0.2415
11162TIP3    H133429   4.141   4.208   0.299 -0.5895  2.2207  1.7424
11162TIP3    H233430   4.197   4.247   0.164 -2.4978 -0.5329  0.0377
11163TIP3   OH233431   5.219   6.528   4.685  0.4987 -0.6362  0.0969
11163TIP3    H133432   5.310   6.513   4.660  0.8845 -0.0776  1.0929
11163TIP3    H233433   5.221   6.529   4.781 -0.3202  0.7566  0.1255
11164TIP3   OH233434   6.288   0.908   4.486  0.7480  0.4438 -0.3596
11164TIP3    H133435   6.248   0.926   4.401  2.4109 -0.2468 -1.3253
11164TIP3    H233436   6.250   0.824   4.512 -1.0887  1.4562  0.4701
11165TIP3   OH233437   7.746   2.051   3.083 -0.4325 -0.3447  0.0585
11165TIP3    H133438   7.822   1.992   3.083 -0.2072 -0.0546  0.4526
11165TIP3    H233439   7.684   2.010   3.022  0.8654  0.4945 -1.9236
11166TIP3   OH233440   0.514   6.951   3.245  0.0807  0.0240 -0.3206
11166TIP3    H133441   0.565   6.998   3.311  0.6236 -2.5735  1.2614
11166TIP3    H233442   0.521   7.004   3.166  0.3631  2.6884  1.3785
11167TIP3   OH233443   7.171   0.173   2.500 -0.0005 -0.2063  0.1581
11167TIP3    H133444   7.258   0.175   2.459  0.0685 -0.2261  0.3029
11167TIP3    H233445   7.175   0.242   2.566 -0.5743  0.7747 -0.7977
11168TIP3   OH233446   0.799   6.288   6.499 -0.1880 -0.2571  0.3152
11168TIP3    H133447   0.847   6.283   6.582 -1.0631 -1.2152  0.7822
11168TIP3    H233448   0.774   6.198   6.480  0.2747 -0.1021 -1.1747
11169TIP3   OH233449   4.675   1.097   6.148 -0.7237  0.4084  0.2220
11169TIP3    H133450   4.645   1.127   6.062 -1.4947 -0.4558  0.1678
11169TIP3    H233451   4.736   1.165   6.178 -1.0556  1.1097 -0.6537
11170TIP3   OH233452   0.893   0.151   5.941  0.4000  0.0454  0.4092
11170TIP3    H133453   0.938   0.099   5.875 -0.7018 -1.0380  0.4921
11170TIP3    H233454   0.811   0.179   5.899 -0.3523 -0.7235  1.3199
11171TIP3   OH233455   0.499   1.082   1.492 -0.2182 -0.5912 -0.2777
11171TIP3    H133456   0.423   1.130   1.457  0.6698  1.3822  0.3604
11171TIP3    H233457   0.574   1.125   1.452  0.6240 -1.6651  0.1251
11172TIP3   OH233458   2.955   4.576   3.658  0.1176  0.1713 -0.2479
11172TIP3    H133459   2.986   4.663   3.635  0.4784  0.0872 -0.0792
11172TIP3    H233460   2.949   4.577   3.754  0.9730 -0.2699 -0.1805
11173TIP3   OH233461   3.909   2.345   4.304 -0.5728  0.3854 -0.2816
11173TIP3    H133462   3.984   2.403   4.318 -1.5529  1.8924 -0.9761
11173TIP3    H233463   3.928   2.299   4.223  0.1846 -0.2560  0.2403
11174TIP3   OH233464   2.001   7.373   4.759  0.4353  0.2263 -0.1660
11174TIP3    H133465   1.983   7.365   4.853 -0.0822 -0.9670 -0.3532
11174TIP3    H233466   1.921   7.344   4.716  1.8118 -2.6999 -1.0039
11175TIP3   OH233467   0.710   6.307   0.574 -0.0323  0.7766 -0.1528
11175TIP3    H133468   0.635   6.308   0.514 -1.2084  0.6734  1.2616
11175TIP3    H233469   0.773   6.367   0.535 -0.3293 -0.0392 -2.0057
11176TIP3   OH233470   2.655   3.175   5.514 -0.0848 -0.3078  0.0468
11176TIP3    H133471   2.716   3.129   5.455  0.5178 -0.9206  1.1157
11176TIP3    H233472   2.570   3.134   5.498 -0.1641  0.2941 -1.1841
11177TIP3   OH233473   2.046   2.705   1.113 -0.2723  0.5532 -0.0084
11177TIP3    H133474   2.067   2.749   1.195 -1.0030  0.1671  0.3943
11177TIP3    H233475   2.118   2.644   1.099  0.2471  1.1754 -0.0619
11178TIP3   OH233476   7.089   1.101   2.183  0.5022  0.0041 -0.4824
11178TIP3    H133477   7.080   1.145   2.268 -0.0524 -0.1053 -0.4830
11178TIP3    H233478   7.002   1.065   2.165  0.8831 -0.8687 -0.6084
11179TIP3   OH233479   8.067   2.210   1.438 -0.2607  0.2529 -0.2435
11179TIP3    H133480   8.033   2.227   1.350  0.4079 -1.2606 -0.8387
11179TIP3    H233481   8.161   2.223   1.431 -0.2513  0.5420  0.3623
11180TIP3   OH233482   2.719   5.824   3.309  0.1920 -0.0863 -0.1976
11180TIP3    H133483   2.797   5.815   3.364  0.0805  1.8090  0.3531
11180TIP3    H233484   2.647   5.801   3.368  0.1621  0.8472  0.1618
11181TIP3   OH233485   5.820   3.046   5.024  0.5117 -0.2751  0.1279
11181TIP3    H133486   5.800   2.981   5.091  0.9485 -0.6958 -0.1488
11181TIP3    H233487   5.786   3.128   5.060  0.5630 -0.5334  0.7735
11182TIP3   OH233488   1.714   0.421   4.772 -0.3980 -0.3116  0.1685
11182TIP3    H133489   1.728   0.440   4.864  0.5449  0.0545 -0.0401
11182TIP3    H233490   1.621   0.398   4.766 -0.2576 -1.2646  1.3513
11183TIP3   OH233491   2.221   3.235   3.467  0.1902 -0.8279  0.1333
11183TIP3    H133492   2.223   3.196   3.379 -1.7837 -1.2091  0.2046
11183TIP3    H233493   2.187   3.323   3.453 -0.6081 -1.0589  0.5358
11184TIP3   OH233494   7.665   4.668   4.196  0.6704 -0.3377  0.0175
11184TIP3    H133495   7.693   4.758   4.182 -0.2921 -0.1445 -0.7955
11184TIP3    H233496   7.682   4.651   4.289  2.4023  0.1119 -0.1915
11185TIP3   OH233497   3.231   6.718   5.003 -0.2879  0.4510 -0.5367
11185TIP3    H133498   3.320   6.753   5.013  0.1505 -0.4288 -1.2223
11185TIP3    H233499   3.174   6.795   5.010  0.5814  1.1584 -0.9692
11186TIP3   OH233500   3.005   3.912   0.555 -0.6104  0.1875  0.1808
11186TIP3    H133501   3.075   3.949   0.502 -0.8144  0.1562 -0.1134
11186TIP3    H233502   3.048   3.886   0.637 -0.1685 -0.3166 -0.1980
11187TIP3   OH233503   4.703   6.442   4.625 -0.0249  0.3150 -0.4196
11187TIP3    H133504   4.796   6.457   4.608  0.0858  0.0617 -0.0480
11187TIP3    H233505   4.700   6.406   4.713 -0.4302 -0.2020 -0.6415
11188TIP3   OH233506   6.852   3.615   3.286  0.0495  0.6547 -0.4945
11188TIP3    H133507   6.828   3.703   3.315  0.0441  0.4374  0.1906
11188TIP3    H233508   6.773   3.583   3.242  0.0917  1.0355 -0.8512
11189TIP3   OH233509   2.931   4.707   2.883 -0.3070  0.4893  0.7494
11189TIP3    H133510   2.898   4.641   2.821 -0.3068  0.6799  0.5462
11189TIP3    H233511   2.881   4.786   2.863  0.8919  1.0491 -0.1768
11190TIP3   OH233512   6.725   5.441   4.279  0.2095 -0.3845 -0.2066
11190TIP3    H133513   6.751   5.350   4.266  0.9835  0.0757 -2.2659
11190TIP3    H233514   6.748   5.484   4.197 -0.4486  1.6079  0.6026
11191TIP3   OH233515   8.216   4.804   1.377 -0.3505 -0.2276  0.5130
11191TIP3    H133516   8.146   4.801   1.312 -1.2530  1.2177  1.3652
11191TIP3    H233517   8.276   4.871   1.345  1.2081 -2.0793 -0.6827
11192TIP3   OH233518   3.334   6.855   4.060 -0.2603 -0.1328  0.1191
11192TIP3    H133519   3.300   6.874   4.147 -0.5870 -1.1472  0.2195
11192TIP3    H233520   3.359   6.941   4.025  0.1718  0.2481  1.3211
11193TIP3   OH233521   1.630   5.816   4.636  0.7265  0.0470 -0.0913
11193TIP3    H133522   1.564   5.764   4.590 -1.8051  2.0333  1.0477
11193TIP3    H233523   1.660   5.880   4.571  0.7679 -0.2180 -0.3327
11194TIP3   OH233524   6.502   3.889   2.389  0.4348  0.1912 -0.5091
11194TIP3    H133525   6.436   3.923   2.329  0.9804  0.1106 -1.1686
11194TIP3    H233526   6.574   3.952   2.383  0.2329  0.5613  0.5957
11195TIP3   OH233527   1.079   5.977   6.098  0.5723  0.3020  0.2191
11195TIP3    H133528   1.016   6.037   6.058 -0.9916 -1.0220  0.5757
11195TIP3    H233529   1.113   5.925   6.025  1.9294  1.5500 -0.0903
11196TIP3   OH233530   7.918   2.621   0.227 -0.4955 -0.3747  0.0779
11196TIP3    H133531   7.861   2.692   0.196 -1.8831 -1.5196 -0.0602
11196TIP3    H233532   7.932   2.641   0.320 -1.7457 -0.4518  0.3065
11197TIP3   OH233533   0.166   6.832   5.722  0.1688 -0.0451 -0.0035
11197TIP3    H133534   0.176   6.890   5.646  1.3031  0.8285  0.7847
11197TIP3    H233535   0.169   6.890   5.798  0.5535 -1.0579  0.7799
11198TIP3   OH233536   6.993   5.457   0.629 -0.5536 -0.1208  0.6552
11198TIP3    H133537   6.980   5.552   0.631  0.1398  0.0859 -1.7579
11198TIP3    H233538   6.932   5.425   0.564  0.4641 -1.0794  0.1301
11199TIP3   OH233539   3.310   6.921   1.065 -0.3426  0.2689  0.2380
11199TIP3    H133540   3.373   6.990   1.044 -0.1562 -0.0676 -0.3536
11199TIP3    H233541   3.229   6.949   1.023 -0.5168  0.5777  0.7820
11200TIP3   OH233542   7.594   1.873   0.938 -0.2458  0.0580  0.5695
11200TIP3    H133543   7.646   1.818   0.996 -0.0389 -0.3850 -0.0339
11200TIP3    H233544   7.529   1.814   0.900 -0.6019  0.4189  0.6097
11201TIP3   OH233545   5.079   0.400   6.614  0.0600 -0.0642  0.4683
11201TIP3    H133546   5.127   0.367   6.689 -0.9470  2.4827  2.3535
11201TIP3    H233547   5.006   0.450   6.651  0.3880  2.6346 -2.1125
11202TIP3   OH233548   1.564   0.304   3.842  0.0178 -0.0754 -0.1241
11202TIP3    H133549   1.554   0.209   3.852 -0.1714 -0.0203  0.2509
11202TIP3    H233550   1.503   0.327   3.772 -2.0756  0.1522  1.6754
11203TIP3   OH233551   1.652   2.528   6.261  0.0264  0.0104 -0.0651
11203TIP3    H133552   1.651   2.460   6.194 -0.4423  0.5537 -0.6154
11203TIP3    H233553   1.667   2.609   6.213  1.0352  0.2581  0.6298
11204TIP3   OH233554   2.702   3.840   4.864  0.1025  0.3708  0.4567
11204TIP3    H133555   2.680   3.927   4.899  1.2040  1.0227 -0.3950
11204TIP3    H233556   2.631   3.820   4.804 -0.4205  0.4456  1.0364
11205TIP3   OH233557   5.310   1.206   6.100  0.0383 -0.1941 -0.0143
11205TIP3    H133558   5.290   1.167   6.185  1.2045 -0.3895  0.1884
11205TIP3    H233559   5.372   1.276   6.119 -0.1062  0.1157 -0.6477
11206TIP3   OH233560   6.681   6.723   1.343  0.2285  0.1731  0.0120
11206TIP3    H133561   6.718   6.794   1.290  1.4723 -1.5993 -1.6217
11206TIP3    H233562   6.757   6.675   1.375 -0.5859 -0.9691  0.2878
11207TIP3   OH233563   0.390   2.426   4.883 -0.4286  0.5845 -0.3768
11207TIP3    H133564   0.418   2.367   4.813  0.0205  0.4470 -0.0824
11207TIP3    H233565   0.470   2.471   4.910 -0.7138  1.0950 -0.3811
11208TIP3   OH233566   5.985   6.425   2.373 -0.0296 -0.3302 -0.5125
11208TIP3    H133567   5.922   6.418   2.444  1.6360  0.8742  1.1812
11208TIP3    H233568   6.055   6.364   2.396  1.1651  1.0441 -0.3608
11209TIP3   OH233569   1.359   0.787   3.143  0.1909  0.5768  0.4253
11209TIP3    H133570   1.326   0.744   3.064 -0.0056  0.5645  0.5139
11209TIP3    H233571   1.353   0.881   3.123  1.8187  0.5677 -0.2653
11210TIP3   OH233572   6.220   0.529   3.271 -0.0282  0.1517  0.5241
11210TIP3    H133573   6.154   0.595   3.288 -1.7476 -1.0921 -0.9418
11210TIP3    H233574   6.258   0.553   3.187  2.3027  1.4860  1.8440
11211TIP3   OH233575   5.693   1.366   5.667 -0.3784 -0.5354  0.1889
11211TIP3    H133576   5.759   1.375   5.599  0.8494 -1.1282  1.2563
11211TIP3    H233577   5.649   1.282   5.648 -0.5004 -0.3775 -0.2371
11212TIP3   OH233578   4.095   3.722   5.038 -0.0519  0.1680  0.0129
11212TIP3    H133579   4.147   3.798   5.012 -0.1091  0.0362 -0.4975
11212TIP3    H233580   4.159   3.663   5.078 -0.2450  1.0847  1.7626
11213TIP3   OH233581   4.125   0.906   5.721 -0.0408  0.6181 -0.3289
11213TIP3    H133582   4.100   0.853   5.645  0.8663 -1.4325  0.7150
11213TIP3    H233583   4.177   0.977   5.684  2.3689 -1.5993 -1.5282
11214TIP3   OH233584   1.316   3.218   6.020  0.0686  0.3445  0.0826
11214TIP3    H133585   1.254   3.205   6.092  1.1502  0.2072  1.0265
11214TIP3    H233586   1.335   3.311   6.021 -2.5341  1.0144 -2.3122
11215TIP3   OH233587   2.577   0.157   3.281 -0.3276 -0.1544 -0.0153
11215TIP3    H133588   2.548   0.238   3.238 -2.5272 -1.7538 -1.7530
11215TIP3    H233589   2.648   0.125   3.227 -1.0483 -0.5734 -0.7375
11216TIP3   OH233590   1.104   0.330   1.100  0.2675  0.2305 -0.0671
11216TIP3    H133591   1.086   0.272   1.026 -0.4203  1.0619 -0.5696
11216TIP3    H233592   1.019   0.367   1.123  0.5165  0.1616  0.9976
11217TIP3   OH233593   7.073   4.757   6.559  0.8414  0.0659 -0.0699
11217TIP3    H133594   7.125   4.807   6.621  0.5092  1.7860 -1.1121
11217TIP3    H233595   7.005   4.715   6.612  1.2198  0.6195  0.8660
11218TIP3   OH233596   5.797   0.047   0.918  0.4994  0.1310 -0.4590
11218TIP3    H133597   5.842   0.131   0.908 -0.8753  0.9739  0.1925
11218TIP3    H233598   5.819   0.019   1.008  0.3153  0.1796 -0.3992
11219TIP3   OH233599   1.712   0.982   4.835  0.5970  0.2471 -0.4251
11219TIP3    H133600   1.716   1.031   4.753 -1.1859 -0.3327 -0.8990
11219TIP3    H233601   1.677   1.045   4.898 -1.1550 -0.2023 -0.9026
11220TIP3   OH233602   3.470  -0.014   2.679 -0.3913  0.5907  0.4714
11220TIP3    H133603   3.438   0.075   2.686  0.7054  1.1568 -1.2209
11220TIP3    H233604   3.466  -0.035   2.586  2.1525 -0.0128  0.4126
11221TIP3   OH233605   0.385   6.694   5.632  0.4863  0.0265 -0.0592
11221TIP3    H133606   0.446   6.765   5.654  1.2708 -0.9936  1.1630
11221TIP3    H233607   0.302   6.720   5.672 -0.4225  2.1655 -2.9901
11222TIP3   OH233608   7.948   1.760   6.257  0.2330 -0.2210  0.3294
11222TIP3    H133609   7.998   1.695   6.306 -0.9960  0.3784  2.5127
11222TIP3    H233610   7.879   1.710   6.214  2.1391 -0.9546 -2.1536
11223TIP3   OH233611   6.229   5.051   1.594 -0.3809 -0.6473  0.8253
11223TIP3    H133612   6.218   5.109   1.518  2.3899 -0.6560  0.2988
11223TIP3    H233613   6.197   5.103   1.668 -2.5801 -0.4129 -0.2105
11224TIP3   OH233614   0.718   3.218   1.981 -0.9758 -0.3527 -0.0353
11224TIP3    H133615   0.646   3.281   1.975 -0.3149  0.3377 -1.7684
11224TIP3    H233616   0.796   3.270   1.958 -0.1975 -1.4662  0.0189
11225TIP3   OH233617   2.952   5.686   5.159 -0.3202 -0.4123  0.5948
11225TIP3    H133618   2.911   5.740   5.227  0.0870  1.2414 -0.4274
11225TIP3    H233619   2.884   5.676   5.093 -0.1231 -0.4337  0.3956
11226TIP3   OH233620   3.268   5.377   3.558 -0.4999  0.1740  0.4605
11226TIP3    H133621   3.331   5.337   3.498 -1.5984  2.0758 -2.1407
11226TIP3    H233622   3.196   5.314   3.562  0.1817 -0.5938  0.9510
11227TIP3   OH233623   0.720   7.174   6.506  0.6274  0.0527 -0.5532
11227TIP3    H133624   0.786   7.185   6.574 -2.0174  1.2032  2.1023
11227TIP3    H233625   0.654   7.117   6.546 -0.8465  0.4104 -2.3241
11228TIP3   OH233626   3.135   0.672   5.330 -0.1831 -1.0261  0.6118
11228TIP3    H133627   3.180   0.754   5.310  1.9787 -2.1390  0.6245
11228TIP3    H233628   3.193   0.604   5.296 -2.6261 -2.5546 -0.7643
11229TIP3   OH233629   1.925   5.451   6.641  0.0035  0.4557  0.2055
11229TIP3    H133630   1.854   5.477   6.700  1.1094  0.8729  1.4125
11229TIP3    H233631   1.901   5.489   6.556 -0.5370  1.8010  0.9225
11230TIP3   OH233632   0.420   5.359   6.422 -0.4241 -0.6120 -0.6278
11230TIP3    H133633   0.497   5.311   6.391  0.3730  1.3439 -1.8913
11230TIP3    H233634   0.419   5.345   6.517  1.2338 -1.0256 -0.6437
11231TIP3   OH233635   3.018   3.363   3.443 -0.2132  0.3292  0.1106
11231TIP3    H133636   2.934   3.334   3.478 -0.5534  0.0199 -0.9432
11231TIP3    H233637   3.080   3.345   3.513 -0.9692  0.2804  0.7877
11232TIP3   OH233638   3.432   2.078   4.674  0.0540 -0.5318 -0.1750
11232TIP3    H133639   3.371   2.053   4.604 -0.2793 -1.1391  0.3240
11232TIP3    H233640   3.489   2.001   4.683  0.5281 -0.1906 -0.2370
11233TIP3   OH233641   7.290   3.812   3.015 -0.4293 -0.0084 -0.2302
11233TIP3    H133642   7.230   3.800   3.088  0.2439  0.0313  0.3481
11233TIP3    H233643   7.275   3.736   2.959 -0.6822 -0.2431  0.1477
11234TIP3   OH233644   0.495   0.555   6.231 -0.6574  0.3105 -0.3353
11234TIP3    H133645   0.517   0.552   6.138 -1.3042  0.8225 -0.5098
11234TIP3    H233646   0.481   0.647   6.250 -0.1660  0.2484  0.3646
11235TIP3   OH233647   5.637   5.512   4.582  0.1724 -0.1218  0.1812
11235TIP3    H133648   5.561   5.568   4.597  0.1244 -0.2971  0.6068
11235TIP3    H233649   5.699   5.535   4.652 -0.1782 -1.1615  0.8632
11236TIP3   OH233650   5.494   2.622   2.404  0.1339 -0.0139 -0.1888
11236TIP3    H133651   5.413   2.660   2.370 -0.5196 -2.1480 -1.1812
11236TIP3    H233652   5.465   2.562   2.472  0.7260 -1.7768 -1.4337
11237TIP3   OH233653   6.014   3.909   0.868 -0.1501 -0.3775 -0.3109
11237TIP3    H133654   6.080   3.850   0.832  2.4366  1.3476  1.3047
11237TIP3    H233655   5.939   3.853   0.886  1.9769 -3.0943  0.7393
11238TIP3   OH233656   3.744   3.476   5.849  0.7555 -0.4183 -0.1063
11238TIP3    H133657   3.751   3.514   5.761  0.7540 -0.7600 -0.2583
11238TIP3    H233658   3.741   3.551   5.908  1.7714 -0.1897 -0.3213
11239TIP3   OH233659   4.158   7.662   4.154  0.1731 -0.2786 -0.0166
11239TIP3    H133660   4.114   7.724   4.211  0.8082 -0.6663  0.9101
11239TIP3    H233661   4.185   7.714   4.078  1.4113  0.7938  1.0966
11240TIP3   OH233662   4.610   7.040   5.473 -0.4501  0.2467  0.0400
11240TIP3    H133663   4.575   6.959   5.436 -0.7975  0.5731 -0.3404
11240TIP3    H233664   4.533   7.090   5.500 -0.2894  1.0271 -0.9261
11241TIP3   OH233665   8.041   5.709   5.989  0.3934  0.3025 -0.3127
11241TIP3    H133666   7.974   5.777   5.988  0.8638  0.7891  0.2636
11241TIP3    H233667   7.994   5.627   5.974 -0.1542  0.7757 -1.2564
11242TIP3   OH233668   1.707   4.202   6.482  0.0103  0.1010  0.4044
11242TIP3    H133669   1.801   4.190   6.467 -0.0178 -1.1318  1.1143
11242TIP3    H233670   1.697   4.196   6.577 -0.8138  0.0849  0.3238
11243TIP3   OH233671   1.615   0.810   4.400 -0.3411 -0.2367  0.0687
11243TIP3    H133672   1.624   0.748   4.472 -0.2958 -0.6001 -0.2515
11243TIP3    H233673   1.703   0.848   4.391 -1.1398  2.8151  2.8689
11244TIP3   OH233674   1.877   5.837   3.626  0.4270  0.0477  0.5548
11244TIP3    H133675   1.797   5.832   3.678  0.2719 -0.6932  0.2581
11244TIP3    H233676   1.855   5.792   3.544  0.9819  0.3067  0.2627
11245TIP3   OH233677   3.601   4.510   0.384 -0.5128  0.3203  0.1293
11245TIP3    H133678   3.544   4.574   0.425 -0.4783 -0.1980  1.0023
11245TIP3    H233679   3.581   4.428   0.429  0.4735  0.0116  0.0210
11246TIP3   OH233680   7.786   7.327   1.748  0.1381  0.2708  0.0510
11246TIP3    H133681   7.810   7.328   1.841 -1.5734 -0.6924  0.5408
11246TIP3    H233682   7.799   7.417   1.719  1.2400  0.4632  1.0731
11247TIP3   OH233683   5.815   2.877   4.577  0.4419  0.1026  0.0536
11247TIP3    H133684   5.787   2.959   4.618  0.5117 -0.6929  1.7698
11247TIP3    H233685   5.910   2.880   4.581  0.4899  0.4092 -0.9151
11248TIP3   OH233686   6.198   5.594   4.476  0.1342  0.8188 -0.0151
11248TIP3    H133687   6.107   5.617   4.455  0.7164  2.2068 -1.1657
11248TIP3    H233688   6.234   5.561   4.394  0.4092 -0.6969  0.6918
11249TIP3   OH233689   3.035   5.169   3.037 -0.2973 -0.3146  0.2490
11249TIP3    H133690   2.944   5.199   3.036 -0.3963 -0.5937  0.7890
11249TIP3    H233691   3.075   5.212   2.961 -0.8339 -0.0538  0.1097
11250TIP3   OH233692   4.785   3.552   6.408  0.6295  0.2272 -0.8569
11250TIP3    H133693   4.766   3.577   6.317 -1.2439 -0.4055 -0.6750
11250TIP3    H233694   4.786   3.457   6.407 -1.3352  0.1471  0.0963
11251TIP3   OH233695   4.433   1.393   1.873 -0.3124 -0.5323 -0.5306
11251TIP3    H133696   4.513   1.347   1.901 -0.3635 -1.1121 -1.3015
11251TIP3    H233697   4.392   1.421   1.955  0.0601 -1.2990 -0.0614
11252TIP3   OH233698   3.850   2.465   1.219 -0.2519 -0.6831  0.2424
11252TIP3    H133699   3.850   2.545   1.272  3.1038 -0.3544 -0.0328
11252TIP3    H233700   3.883   2.494   1.134 -1.6165 -1.9478 -0.7716
11253TIP3   OH233701   6.509   0.206   3.663  0.3114 -0.2619  0.6140
11253TIP3    H133702   6.500   0.176   3.572  0.9882 -0.6288  0.6618
11253TIP3    H233703   6.596   0.245   3.667  0.7925 -1.3648  1.4108
11254TIP3   OH233704   7.264   5.458   1.402  0.1081  0.1557  0.0147
11254TIP3    H133705   7.209   5.380   1.403 -1.0182  0.8844 -1.8516
11254TIP3    H233706   7.326   5.443   1.331  1.5190 -0.0492  1.2129
11255TIP3   OH233707   0.533   4.974   4.295  0.5983 -0.2030 -0.7181
11255TIP3    H133708   0.503   5.057   4.258  1.0919  0.5967  0.5645
11255TIP3    H233709   0.623   4.966   4.265  0.6493 -0.1062 -0.5947
11256TIP3   OH233710   7.928   6.232   6.577 -0.3224  0.1760 -0.0174
11256TIP3    H133711   7.976   6.230   6.494  1.9864  0.0173  1.2402
11256TIP3    H233712   7.900   6.141   6.590  0.4571 -0.0702 -0.0093
11257TIP3   OH233713   8.266   4.870   3.089 -0.2601 -0.3156 -0.5674
11257TIP3    H133714   8.245   4.959   3.062  0.9809  0.8427  1.8989
11257TIP3    H233715   8.359   4.873   3.112 -0.7970 -1.4227  2.2363
11258TIP3   OH233716   3.961   3.399   6.728  0.7640  0.6208  0.5898
11258TIP3    H133717   4.031   3.337   6.708 -0.8268 -1.9465  2.2970
11258TIP3    H233718   3.942   3.384   6.821 -0.8932  2.4361  0.6016
11259TIP3   OH233719   2.387   1.603   3.902  0.8706 -0.4771  0.8391
11259TIP3    H133720   2.421   1.689   3.926  0.2868 -0.2532  0.8724
11259TIP3    H233721   2.452   1.568   3.840  1.0802  0.0093  0.7818
11260TIP3   OH233722   4.618   0.333   0.908  0.0482 -0.2852 -0.5561
11260TIP3    H133723   4.598   0.310   0.818 -0.5833 -1.4609 -0.1418
11260TIP3    H233724   4.533   0.347   0.949  0.3226  0.0898 -0.1003
11261TIP3   OH233725   8.157   1.427   4.103 -0.1488 -0.4018 -0.3156
11261TIP3    H133726   8.150   1.491   4.032  1.6280  0.2118  0.0191
11261TIP3    H233727   8.189   1.347   4.060 -0.8438 -0.5916 -0.4850
11262TIP3   OH233728   5.632   0.708   4.599  0.6509  0.6449 -0.4840
11262TIP3    H133729   5.645   0.613   4.598  1.2398  0.7235 -1.5484
11262TIP3    H233730   5.671   0.736   4.682  1.0227  0.0300 -0.4421
11263TIP3   OH233731   4.833   5.873   5.103  0.1401 -0.0995  0.2856
11263TIP3    H133732   4.917   5.905   5.073  0.0562  0.2934  0.4680
11263TIP3    H233733   4.840   5.871   5.199 -0.0304 -0.1346  0.2982
11264TIP3   OH233734   4.898   4.230   2.827 -0.0449 -0.2193 -0.4943
11264TIP3    H133735   4.946   4.163   2.876 -0.9300 -0.0510  0.6484
11264TIP3    H233736   4.956   4.254   2.755  2.2032  0.9423  1.5691
11265TIP3   OH233737   6.883   0.374   3.452  0.0168 -0.2595 -0.2217
11265TIP3    H133738   6.973   0.341   3.445  0.0774 -0.3820  0.9061
11265TIP3    H233739   6.843   0.319   3.519 -1.1818 -0.7745 -1.3177
11266TIP3   OH233740   5.483   7.024   4.432 -0.0469  0.1210 -0.1112
11266TIP3    H133741   5.468   7.067   4.348  0.6226  0.2242 -0.1829
11266TIP3    H233742   5.439   7.079   4.497 -1.2753 -0.3960 -0.4808
11267TIP3   OH233743   5.651   7.654   0.688 -0.3202 -1.2082 -0.0286
11267TIP3    H133744   5.667   7.677   0.596 -0.3370 -2.0838 -0.2569
11267TIP3    H233745   5.577   7.708   0.713 -0.7759 -1.4702 -0.7513
11268TIP3   OH233746   7.646   7.690   2.272 -0.3809  0.1531  0.3566
11268TIP3    H133747   7.716   7.724   2.217  0.5398 -0.9232  0.8287
11268TIP3    H233748   7.691   7.645   2.344 -1.5232  1.4361  1.9832
11269TIP3   OH233749   0.021   1.364   1.879  0.0710  0.1217 -0.0573
11269TIP3    H133750  -0.049   1.323   1.930  0.5770  0.4834  0.9776
11269TIP3    H233751   0.074   1.410   1.945  1.4795 -0.4242 -0.7754
11270TIP3   OH233752   3.203   2.769   4.228  0.6553  0.4497 -0.1398
11270TIP3    H133753   3.231   2.695   4.174  2.4775  2.0376 -1.5317
11270TIP3    H233754   3.275   2.780   4.291 -0.0335  0.5011  0.6542
11271TIP3   OH233755   4.819   1.877   0.967 -0.3037 -0.9063  0.2750
11271TIP3    H133756   4.796   1.823   1.043  1.5994 -0.9472  0.8532
11271TIP3    H233757   4.828   1.814   0.896 -0.1263 -1.1036  0.4713
11272TIP3   OH233758   6.153   4.941   1.069  0.2416  0.4997  0.0252
11272TIP3    H133759   6.144   5.035   1.086  1.6874  0.8473 -0.9295
11272TIP3    H233760   6.123   4.899   1.150 -0.6840  1.7675  0.3646
11273TIP3   OH233761   1.419   1.215   4.065  0.0094 -0.3171  0.3946
11273TIP3    H133762   1.430   1.252   3.977  1.1691  0.6609  0.9211
11273TIP3    H233763   1.447   1.285   4.124 -1.6202 -0.6386  1.6013
11274TIP3   OH233764   0.522   1.249   4.639  0.0324 -0.0953 -0.0294
11274TIP3    H133765   0.595   1.294   4.682  1.5583 -1.5289 -0.9950
11274TIP3    H233766   0.521   1.285   4.551  0.3947 -0.9338 -0.3901
11275TIP3   OH233767   3.385   4.133   1.172 -0.3730  0.0931  0.1026
11275TIP3    H133768   3.441   4.114   1.248 -1.0598 -1.8913  0.1611
11275TIP3    H233769   3.406   4.065   1.109 -0.7487  0.9714 -1.0012
11276TIP3   OH233770   5.389   7.297   0.442  0.2751 -0.2056  0.1754
11276TIP3    H133771   5.328   7.244   0.391  0.5544  0.2209 -0.6226
11276TIP3    H233772   5.333   7.344   0.505 -0.2695  0.3624 -0.7032
11277TIP3   OH233773   5.483   1.693   0.094 -0.2576  0.2204 -0.2439
11277TIP3    H133774   5.397   1.665   0.061  0.2609  0.2900 -1.7554
11277TIP3    H233775   5.478   1.788   0.094  0.3281  0.2781 -1.8770
11278TIP3   OH233776   4.613   4.307   0.362  0.5705  0.1453 -0.1371
11278TIP3    H133777   4.530   4.345   0.390 -0.6387 -2.7562  0.5622
11278TIP3    H233778   4.677   4.377   0.376 -1.2624  1.5337  2.0788
11279TIP3   OH233779   1.272   4.640   0.395  0.2326 -0.4835 -0.3065
11279TIP3    H133780   1.313   4.562   0.433  0.6851 -0.1379 -0.0726
11279TIP3    H233781   1.224   4.607   0.319 -1.5808 -1.3572  1.1405
11280TIP3   OH233782   1.205   4.200   3.968 -0.0596  0.7119  0.0506
11280TIP3    H133783   1.278   4.243   3.923  1.0689 -1.7090 -0.5970
11280TIP3    H233784   1.127   4.226   3.917  0.8535  0.1758 -1.7073
11281TIP3   OH233785   1.062   1.903   1.669 -0.0355  0.3537 -0.2703
11281TIP3    H133786   1.127   1.972   1.681  0.9630  0.0315 -3.0607
11281TIP3    H233787   0.978   1.950   1.663  0.1006  0.9227  1.5668
11282TIP3   OH233788   4.740   1.214   0.900  0.4055  0.2250 -0.9685
11282TIP3    H133789   4.660   1.263   0.881 -0.4732 -1.2014 -1.0885
11282TIP3    H233790   4.795   1.276   0.949 -1.6525  0.5944  1.0258
11283TIP3   OH233791   4.733   3.925   0.037 -0.3353  0.0034 -0.8794
11283TIP3    H133792   4.789   3.967   0.102  0.3331  0.5370 -1.7840
11283TIP3    H233793   4.691   3.853   0.085  1.9122 -1.0925 -0.4209
11284TIP3   OH233794   6.776   4.889   0.846 -0.7837  0.1576  0.1695
11284TIP3    H133795   6.739   4.977   0.835 -1.0010  0.1193  0.5671
11284TIP3    H233796   6.705   4.839   0.887 -0.9494 -0.4259 -0.8012
11285TIP3   OH233797   4.789   5.973   3.551 -0.2765 -0.7187  0.2685
11285TIP3    H133798   4.849   5.919   3.603 -0.4421 -2.5351 -1.2962
11285TIP3    H233799   4.723   6.003   3.614  1.8909  0.8918  1.9209
11286TIP3   OH233800   5.592   0.176   1.245 -0.0389  0.3238  0.0347
11286TIP3    H133801   5.529   0.143   1.180 -0.8060 -1.3784  1.5551
11286TIP3    H233802   5.568   0.267   1.258 -0.6737  0.3460 -1.1370
11287TIP3   OH233803   4.563   6.364   2.848  1.2006 -0.1504 -0.0417
11287TIP3    H133804   4.521   6.279   2.834 -0.0242  0.5320 -0.5856
11287TIP3    H233805   4.607   6.355   2.933  0.4105 -1.0599  0.2815
11288TIP3   OH233806   1.492   2.871   4.311  0.5276 -0.1468 -0.1268
11288TIP3    H133807   1.510   2.941   4.374  1.2508  0.8867 -1.4157
11288TIP3    H233808   1.397   2.863   4.311  0.3113  1.7544 -0.8309
11289TIP3   OH233809   2.368   0.116   4.127 -0.2435 -0.1960  0.0544
11289TIP3    H133810   2.401   0.193   4.173  2.8327 -1.1338 -0.3701
11289TIP3    H233811   2.299   0.150   4.070 -0.0544  1.9562  0.9959
11290TIP3   OH233812   3.904   6.090   6.697 -0.4894 -0.9054  0.5024
11290TIP3    H133813   3.974   6.028   6.676 -0.0319 -0.2957  0.1950
11290TIP3    H233814   3.828   6.058   6.649  0.3572  0.0715 -1.5906
11291TIP3   OH233815   1.679   3.475   5.560  0.2524  0.2589 -0.0295
11291TIP3    H133816   1.604   3.533   5.557 -0.8734 -1.1755 -0.5128
11291TIP3    H233817   1.663   3.418   5.636  2.4743  1.9943  1.8942
11292TIP3   OH233818   1.119   2.176   6.544  0.0565  0.7858  0.1040
11292TIP3    H133819   1.089   2.204   6.458  0.3521  0.6125 -0.0532
11292TIP3    H233820   1.179   2.246   6.573  0.2823  0.6373 -0.0081
11293TIP3   OH233821   1.567   1.210   2.413  0.2569 -0.2499  0.3532
11293TIP3    H133822   1.652   1.251   2.397 -0.2260  0.6542  0.0265
11293TIP3    H233823   1.542   1.173   2.329 -1.1924  2.4381 -0.5152
11294TIP3   OH233824   7.288   2.842   5.351 -0.4084  0.1974  0.0612
11294TIP3    H133825   7.249   2.921   5.314 -0.3608 -0.5764 -1.7303
11294TIP3    H233826   7.362   2.874   5.403 -0.4877  1.3442 -0.5027
11295TIP3   OH233827   4.205   1.362   1.553 -0.1994 -0.0241 -0.1683
11295TIP3    H133828   4.130   1.395   1.503 -1.0607 -1.8203 -0.1352
11295TIP3    H233829   4.185   1.385   1.644 -0.4084  0.0391 -0.2300
11296TIP3   OH233830   7.335   3.221   5.946  0.2541  0.8110 -0.7239
11296TIP3    H133831   7.403   3.182   6.002 -0.3339  1.3029  0.3479
11296TIP3    H233832   7.373   3.218   5.858  1.5732  0.8500 -0.1854
11297TIP3   OH233833   2.911   7.703   4.902  0.3608 -0.0954 -0.3662
11297TIP3    H133834   2.953   7.660   4.828  0.0192 -0.3973 -0.3885
11297TIP3    H233835   2.819   7.712   4.875  0.2394 -0.1808  0.0083
11298TIP3   OH233836   6.382   6.565   3.304  0.1379 -0.1332 -0.4079
11298TIP3    H133837   6.403   6.632   3.369  1.7631 -2.1544  1.3165
11298TIP3    H233838   6.332   6.500   3.353 -1.1271 -0.3573 -1.9482
11299TIP3   OH233839   2.855   4.459   4.823  0.4655  0.1064  0.0176
11299TIP3    H133840   2.796   4.518   4.870  0.5387 -0.9296  1.4892
11299TIP3    H233841   2.907   4.517   4.767  0.5822  1.4758  1.4596
11300TIP3   OH233842   3.477   6.279   1.239  0.5780 -0.0351 -0.4297
11300TIP3    H133843   3.465   6.304   1.331  0.5987  0.2098 -0.4941
11300TIP3    H233844   3.405   6.219   1.221  0.9301 -0.5738 -0.0732
11301TIP3   OH233845   0.820   1.256   5.250 -0.1961  0.2778  0.1488
11301TIP3    H133846   0.729   1.229   5.248 -0.0326 -0.3615 -2.4057
11301TIP3    H233847   0.824   1.331   5.192  1.1986 -1.0089 -1.5400
11302TIP3   OH233848   3.904   0.200   4.070  0.1911  0.4104  0.0250
11302TIP3    H133849   3.881   0.251   4.148  0.4564  1.2575 -0.4428
11302TIP3    H233850   3.847   0.234   4.001  0.7417  0.4640 -0.4184
11303TIP3   OH233851   1.762   4.904   0.550 -0.2489 -0.4833  0.0841
11303TIP3    H133852   1.781   4.889   0.643 -1.7305  3.7202  1.3125
11303TIP3    H233853   1.667   4.906   0.545 -0.1890 -0.3196 -1.4866
11304TIP3   OH233854   0.832   3.662   1.332  0.1933 -0.1702  0.1039
11304TIP3    H133855   0.823   3.571   1.362 -0.4984 -0.0638  0.2242
11304TIP3    H233856   0.807   3.660   1.240  0.9509 -0.2395 -0.1076
11305TIP3   OH233857   5.104   0.881   1.110  0.1148 -0.1713  0.1422
11305TIP3    H133858   5.142   0.921   1.031 -0.1561 -0.9803 -0.4062
11305TIP3    H233859   5.025   0.838   1.079  0.8051 -1.8066  0.5749
11306TIP3   OH233860   0.357   7.046   4.469  0.1335  0.1397  0.8342
11306TIP3    H133861   0.398   7.132   4.473  1.9916 -0.4444 -2.0694
11306TIP3    H233862   0.388   7.000   4.547  0.6364  1.4851  1.4464
11307TIP3   OH233863   7.091   3.922   4.958 -0.1089 -0.2797 -0.8299
11307TIP3    H133864   7.011   3.915   4.907 -0.4098  1.0484 -0.5712
11307TIP3    H233865   7.075   3.994   5.019  1.7323  0.9518 -1.6667
11308TIP3   OH233866   7.009   0.452   6.455 -0.3297 -0.2075  0.5639
11308TIP3    H133867   6.958   0.510   6.511  0.3241 -1.6801  2.8351
11308TIP3    H233868   7.100   0.470   6.478 -0.0793 -1.2858  0.4913
11309TIP3   OH233869   0.547   4.825   1.256 -0.3823 -0.1456 -0.6559
11309TIP3    H133870   0.639   4.850   1.244 -0.4383  0.8105  0.7007
11309TIP3    H233871   0.548   4.730   1.253  0.9354 -0.2236  1.0649
11310TIP3   OH233872   2.108   3.375   0.284 -0.4033 -0.1737 -0.1694
11310TIP3    H133873   2.065   3.443   0.232  0.5771  0.7453  0.1771
11310TIP3    H233874   2.187   3.417   0.318  0.2070 -1.4773  0.1019
11311TIP3   OH233875   1.773   1.595   4.751  0.1320  0.2968 -0.2457
11311TIP3    H133876   1.832   1.519   4.751  0.7777  0.7903  0.1374
11311TIP3    H233877   1.803   1.648   4.677 -0.2804  0.2224 -0.4741
11312TIP3   OH233878   0.170   0.328   4.465  0.6345  0.2821  0.8195
11312TIP3    H133879   0.185   0.421   4.484  0.8888  0.3240  0.4200
11312TIP3    H233880   0.107   0.329   4.392  2.8111  0.2108 -1.1630
11313TIP3   OH233881   3.878   1.698   4.093  0.1183 -0.3675  0.1128
11313TIP3    H133882   3.929   1.624   4.058  0.4428 -0.0766 -0.0426
11313TIP3    H233883   3.789   1.665   4.101  0.3111 -0.8507  0.2733
11314TIP3   OH233884   4.793   2.643   4.903 -0.0468 -0.3348  0.0382
11314TIP3    H133885   4.853   2.586   4.953 -0.2939 -2.8701 -2.3458
11314TIP3    H233886   4.818   2.630   4.812 -0.1938  3.4517 -0.6983
11315TIP3   OH233887   1.794   6.415   3.175  0.5292 -0.5452 -0.5205
11315TIP3    H133888   1.721   6.473   3.198  1.6278  1.5203 -1.8782
11315TIP3    H233889   1.755   6.351   3.114 -0.7375 -1.3967  1.1063
11316TIP3   OH233890   8.150   3.526   1.268  0.1721 -0.5591  0.2764
11316TIP3    H133891   8.070   3.563   1.232 -0.6518 -0.3988  2.1636
11316TIP3    H233892   8.220   3.563   1.214 -0.8098  1.6919  0.4388
11317TIP3   OH233893   5.233   3.616   1.480 -0.1024  0.1384  0.3410
11317TIP3    H133894   5.327   3.622   1.463 -0.5152 -0.4720 -2.6817
11317TIP3    H233895   5.212   3.524   1.467 -1.1292  0.2426  1.1314
11318TIP3   OH233896   0.341   1.334   4.113  0.3144  0.0235 -0.2497
11318TIP3    H133897   0.424   1.296   4.142 -0.1605  1.1015  2.9817
11318TIP3    H233898   0.361   1.425   4.093  0.2134 -0.1765 -1.3332
11319TIP3   OH233899   0.888   3.945   6.309  0.6115 -0.4201 -0.2756
11319TIP3    H133900   0.898   3.957   6.403 -1.3073 -0.6560 -0.0151
11319TIP3    H233901   0.970   3.978   6.272  0.8505  0.9406  1.3701
11320TIP3   OH233902   5.269   0.169   6.298  0.1910 -0.2592  0.3582
11320TIP3    H133903   5.224   0.112   6.235  1.4211 -0.3659 -0.4658
11320TIP3    H233904   5.209   0.175   6.372 -0.4439 -1.7542  0.0120
11321TIP3   OH233905   6.291   6.971   0.827 -0.2225 -0.2470 -0.3175
11321TIP3    H133906   6.234   6.951   0.753  1.2383 -0.4946 -1.4307
11321TIP3    H233907   6.258   7.054   0.862  0.9022  1.6264 -3.2763
11322TIP3   OH233908   7.806   5.423   3.944  0.2341  0.1207 -0.3164
11322TIP3    H133909   7.764   5.508   3.949  1.1905  0.5466  1.3182
11322TIP3    H233910   7.789   5.392   3.855 -0.2175  1.9596 -0.8995
11323TIP3   OH233911   1.128   7.557   6.575 -0.4868 -0.1915  0.0105
11323TIP3    H133912   1.092   7.631   6.623 -1.6526  0.1052 -1.2409
11323TIP3    H233913   1.141   7.489   6.641  0.1070  0.9284  1.0856
11324TIP3   OH233914   2.255   6.501   4.815  0.5612 -0.0838 -0.1217
11324TIP3    H133915   2.291   6.525   4.729 -0.2894 -2.4255 -1.2085
11324TIP3    H233916   2.211   6.581   4.845  1.0383  0.8546 -1.7668
11325TIP3   OH233917   7.385   6.496   5.146  0.1490 -0.3212  0.0278
11325TIP3    H133918   7.410   6.424   5.088 -0.4735 -2.3658  2.1578
11325TIP3    H233919   7.321   6.546   5.096  0.4724 -1.3158 -1.4585
11326TIP3   OH233920   0.613   7.304   0.906  0.0726  0.9819  0.6920
11326TIP3    H133921   0.625   7.268   0.994 -1.4146  2.9147  1.7472
11326TIP3    H233922   0.686   7.267   0.855  0.4975 -0.8216  2.4959
11327TIP3   OH233923   7.383   2.391   1.897 -0.1272  0.0475 -0.6202
11327TIP3    H133924   7.470   2.353   1.903 -0.3274 -0.6517 -1.8298
11327TIP3    H233925   7.327   2.330   1.945 -0.0231  0.3066 -0.1580
11328TIP3   OH233926   8.013   0.442   1.213  0.1118 -0.4232 -0.3707
11328TIP3    H133927   8.060   0.415   1.134  0.9290  0.4500 -0.1942
11328TIP3    H233928   7.942   0.377   1.222  1.4177 -1.9269 -0.4942
11329TIP3   OH233929   2.600   1.384   0.910  0.1180  0.1036  0.3667
11329TIP3    H133930   2.687   1.343   0.917 -0.2270 -0.4932  1.3426
11329TIP3    H233931   2.607   1.441   0.834  0.7675 -1.4425 -0.7919
11330TIP3   OH233932   7.556   4.723   0.407 -0.0481 -0.0355  0.1066
11330TIP3    H133933   7.490   4.787   0.435  0.7659  1.1406 -0.5890
11330TIP3    H233934   7.606   4.768   0.339  0.4582 -1.4802 -0.5143
11331TIP3   OH233935   4.850   7.596   4.210  0.2568 -0.6458  0.2024
11331TIP3    H133936   4.800   7.669   4.247  0.0631 -1.0661  0.7746
11331TIP3    H233937   4.915   7.638   4.154 -1.0776 -0.0932 -1.0135
11332TIP3   OH233938   7.929   5.715   0.845 -0.0886 -0.4133  0.9417
11332TIP3    H133939   7.841   5.709   0.806  0.0950  0.5739  0.3478
11332TIP3    H233940   7.982   5.655   0.793  0.1280  0.8054 -0.3035
11333TIP3   OH233941   4.596   1.628   1.825  0.5374  0.2831  0.1562
11333TIP3    H133942   4.531   1.697   1.814 -0.4061 -0.2760  1.8927
11333TIP3    H233943   4.556   1.551   1.784  0.0950 -0.0604  1.2215
11334TIP3   OH233944   6.608   3.414   4.985  0.2657 -0.0640 -0.2622
11334TIP3    H133945   6.698   3.390   5.006  0.9952  1.4823 -1.4241
11334TIP3    H233946   6.555   3.363   5.047  1.9457 -0.4784  0.9240
11335TIP3   OH233947   4.014   5.314   2.944 -0.1185  0.2902  0.1826
11335TIP3    H133948   3.957   5.360   3.005  0.2920 -0.3261  1.0573
11335TIP3    H233949   3.976   5.331   2.858 -3.1078 -2.0155  0.8350
11336TIP3   OH233950   1.851   0.584   0.424 -0.3039 -0.7815  0.4134
11336TIP3    H133951   1.853   0.669   0.380 -0.8129  0.1120  2.0449
11336TIP3    H233952   1.816   0.524   0.358 -0.0822  0.2811 -0.7181
11337TIP3   OH233953   1.935   4.845   2.698  0.7152  0.1823 -0.1103
11337TIP3    H133954   1.968   4.932   2.676  0.5365  0.7552  1.7766
11337TIP3    H233955   2.002   4.785   2.663  1.6745  1.1432  0.0103
11338TIP3   OH233956   3.166   5.702   2.695  0.2054  0.0398  0.8015
11338TIP3    H133957   3.215   5.629   2.732  0.1680 -0.6631 -0.4722
11338TIP3    H233958   3.229   5.749   2.641 -0.4741 -0.9249 -0.9199
11339TIP3   OH233959   0.085   1.449   0.746  0.3644  0.7266  0.4621
11339TIP3    H133960   0.165   1.445   0.694  0.7049 -1.3728  1.0595
11339TIP3    H233961   0.027   1.384   0.706 -0.1043  0.4757  1.5164
11340TIP3   OH233962   2.461   6.447   1.349 -0.5138  0.5710 -0.3687
11340TIP3    H133963   2.484   6.401   1.430  1.1629  1.3273 -0.3677
11340TIP3    H233964   2.370   6.472   1.361 -0.6245 -0.2821  0.8189
11341TIP3   OH233965   0.910   7.260   6.705  0.1393 -0.0046  0.1845
11341TIP3    H133966   0.914   7.246   6.800  2.4116 -0.3217  0.1181
11341TIP3    H233967   0.856   7.338   6.695  0.1412  0.2512  1.7784
11342TIP3   OH233968   7.279   3.554   2.910  0.0239  0.0941  0.3014
11342TIP3    H133969   7.367   3.531   2.939 -0.8868 -0.9818  2.3673
11342TIP3    H233970   7.220   3.504   2.966 -1.9427 -0.4806 -2.0684
11343TIP3   OH233971   0.216   2.529   0.096  0.0354  0.1878  0.6464
11343TIP3    H133972   0.170   2.576   0.165 -1.9652 -0.6183 -0.0638
11343TIP3    H233973   0.150   2.471   0.058  1.3062 -0.0868 -1.3156
11344TIP3   OH233974   0.283   2.832   4.555  0.2268  0.4083  0.9387
11344TIP3    H133975   0.307   2.920   4.587  0.5811  1.3149 -1.5852
11344TIP3    H233976   0.366   2.786   4.547  0.4189  0.9636 -0.6705
11345TIP3   OH233977   1.929   1.512   5.097  0.1062  0.0553  0.0697
11345TIP3    H133978   1.984   1.565   5.155  1.5029 -0.4918 -0.6998
11345TIP3    H233979   1.953   1.421   5.118  1.6945 -0.1555 -2.2458
11346TIP3   OH233980   1.327   0.838   2.057  0.3771  0.1189 -0.3650
11346TIP3    H133981   1.325   0.757   2.108 -1.7884 -0.4309 -1.2116
11346TIP3    H233982   1.384   0.897   2.107  1.1692 -1.5587  0.7976
11347TIP3   OH233983   7.652   3.912   2.718 -0.5149  0.3299 -0.0925
11347TIP3    H133984   7.635   3.879   2.807  0.7604  0.8597  0.3776
11347TIP3    H233985   7.584   3.871   2.664 -1.1573 -0.2117  1.0796
11348TIP3   OH233986   1.237   3.794   1.601 -0.0755  0.6348  0.0792
11348TIP3    H133987   1.255   3.711   1.556  2.2446  2.0193 -1.8451
11348TIP3    H233988   1.273   3.782   1.688 -0.3840 -0.5844  0.0627
11349TIP3   OH233989   3.353   4.263   5.727  0.0171 -0.6267  0.3420
11349TIP3    H133990   3.367   4.300   5.640  0.9048 -0.7461  0.4286
11349TIP3    H233991   3.437   4.223   5.750 -0.3167 -0.9004  1.1066
11350TIP3   OH233992   1.019   1.273   1.763 -0.8211 -0.3299 -0.3977
11350TIP3    H133993   0.996   1.356   1.721  1.6368 -0.5361 -2.4580
11350TIP3    H233994   0.976   1.275   1.848 -0.9324  3.0005 -0.4208
11351TIP3   OH233995   3.449   7.451   4.239 -0.0313  0.5940  0.3119
11351TIP3    H133996   3.445   7.362   4.203 -2.1704  0.5696  0.4499
11351TIP3    H233997   3.422   7.507   4.167 -1.1335  0.8642  0.9112
11352TIP3   OH233998   5.167   1.094   2.259 -0.1883  0.5512 -0.5075
11352TIP3    H133999   5.230   1.131   2.196 -0.5729 -0.2129 -1.3538
11352TIP3    H234000   5.217   1.087   2.340 -0.1297  3.0736 -0.2367
11353TIP3   OH234001   2.688   0.636   3.528  0.0218 -0.3761 -0.3976
11353TIP3    H134002   2.598   0.666   3.542  0.1546 -0.0913 -0.1152
11353TIP3    H234003   2.731   0.709   3.484  0.1527 -0.4501 -0.3933
11354TIP3   OH234004   5.785   6.319   5.132  0.2773  0.5969 -0.2730
11354TIP3    H134005   5.828   6.384   5.188  2.6072 -0.3807 -0.7902
11354TIP3    H234006   5.697   6.310   5.168  0.1201  3.4398  0.2784
11355TIP3   OH234007   5.167   3.201   0.234 -0.6804  0.2505 -0.1408
11355TIP3    H134008   5.101   3.270   0.233 -1.3779 -0.3936 -0.1896
11355TIP3    H234009   5.117   3.121   0.253 -0.1729 -0.5112 -1.8645
11356TIP3   OH234010   3.337   2.919   1.405  0.1477  0.4903 -0.1244
11356TIP3    H134011   3.426   2.883   1.409  0.0367  0.0927 -1.1621
11356TIP3    H234012   3.281   2.845   1.383 -0.3409  0.9056 -0.3121
11357TIP3   OH234013   2.275   0.359   0.408  0.5329  0.3142  0.4889
11357TIP3    H134014   2.338   0.303   0.363 -0.1370  0.6961 -0.9822
11357TIP3    H234015   2.280   0.332   0.500  1.1121 -1.2963  0.0134
11358TIP3   OH234016   5.920   0.713   1.843 -0.1290 -0.1259 -0.3270
11358TIP3    H134017   5.854   0.644   1.854 -0.5075 -0.0400 -1.8194
11358TIP3    H234018   6.004   0.668   1.852 -0.3742 -0.7716 -1.1888
11359TIP3   OH234019   4.714   3.297   4.827  0.0855  0.1222 -0.3444
11359TIP3    H134020   4.749   3.208   4.822  0.6473  0.3230 -0.0435
11359TIP3    H234021   4.738   3.336   4.743 -0.7196 -0.2091 -0.7333
11360TIP3   OH234022   0.422   6.448   2.258  0.2064  0.1303  0.4430
11360TIP3    H134023   0.393   6.508   2.189  0.6094 -1.8057 -1.5388
11360TIP3    H234024   0.465   6.376   2.211  0.6716 -1.2151  2.7478
11361TIP3   OH234025   2.980   2.227   5.847  0.5721 -0.2373  0.6031
11361TIP3    H134026   3.069   2.193   5.838  0.7351  0.3033  0.0760
11361TIP3    H234027   2.964   2.274   5.765 -0.6675 -1.3850  0.1493
11362TIP3   OH234028   7.362   7.388   1.853  0.5914 -0.3671 -0.0513
11362TIP3    H134029   7.359   7.319   1.787 -0.1249  0.1006 -0.5308
11362TIP3    H234030   7.289   7.366   1.912 -1.5847  1.5059 -1.8334
11363TIP3   OH234031   7.289   7.461   0.111 -0.1227  0.0141  0.0594
11363TIP3    H134032   7.294   7.556   0.114  0.6791  0.0042 -0.5732
11363TIP3    H234033   7.373   7.433   0.074 -0.6766 -0.8915 -0.5783
11364TIP3   OH234034   7.794   7.701   5.271 -0.0457  0.0026  0.1584
11364TIP3    H134035   7.759   7.766   5.211 -0.6789 -1.3809 -1.0188
11364TIP3    H234036   7.759   7.726   5.357 -1.2758  0.5004 -0.4706
11365TIP3   OH234037   4.132   6.559   6.089  0.3448 -0.7084  0.0194
11365TIP3    H134038   4.075   6.567   6.165 -0.0298  0.4571 -0.3695
11365TIP3    H234039   4.220   6.576   6.123  0.0076  1.4773 -0.0564
11366TIP3   OH234040   7.049   0.757   2.845  0.1672  0.2474  0.2719
11366TIP3    H134041   7.086   0.785   2.762  1.3831  1.3427  1.1572
11366TIP3    H234042   6.998   0.832   2.876  0.0774  0.0135  0.7079
11367TIP3   OH234043   7.261   2.802   6.648 -0.1010  0.0729  0.3169
11367TIP3    H134044   7.259   2.723   6.702  1.7701 -0.8405 -0.8442
11367TIP3    H234045   7.328   2.784   6.582 -1.5795  1.5513 -1.6901
11368TIP3   OH234046   7.833   7.801   2.094  0.1242  0.0718 -0.1393
11368TIP3    H134047   7.771   7.853   2.043 -0.5728  0.3563  0.9510
11368TIP3    H234048   7.894   7.766   2.029 -1.2320 -0.2970 -1.2626
11369TIP3   OH234049   5.806   4.148   6.675 -0.2303 -0.4051  0.2295
11369TIP3    H134050   5.798   4.228   6.622 -0.8616 -0.2500  0.5460
11369TIP3    H234051   5.820   4.181   6.764 -0.1318 -0.6512  0.3037
11370TIP3   OH234052   5.100   4.298   4.134 -0.0726  0.9425  0.5422
11370TIP3    H134053   5.031   4.274   4.196  1.2782 -3.4047  0.7139
11370TIP3    H234054   5.169   4.335   4.188 -0.4558  0.9133  1.0572
11371TIP3   OH234055   0.933   0.380   5.630  0.6050  0.1200  0.6628
11371TIP3    H134056   0.843   0.350   5.633  0.6840 -0.5930 -1.6866
11371TIP3    H234057   0.971   0.336   5.553  1.9743  2.8805 -0.4043
11372TIP3   OH234058   2.958   6.845   0.435  0.4068 -0.0010  0.0522
11372TIP3    H134059   2.923   6.883   0.516  2.0574  0.9085  0.3922
11372TIP3    H234060   3.049   6.826   0.455  0.9667  0.5966 -1.7066
11373TIP3   OH234061   7.673   4.345   0.089 -0.1692  0.0407  0.2199
11373TIP3    H134062   7.616   4.421   0.104  0.7655  1.1261 -1.4549
11373TIP3    H234063   7.754   4.367   0.135  0.8010  1.0071 -1.8160
11374TIP3   OH234064   5.343   7.001   0.533 -0.2595 -0.0107 -0.1142
11374TIP3    H134065   5.418   6.944   0.517 -0.0831  0.5096 -1.1771
11374TIP3    H234066   5.305   7.017   0.447 -0.5707  1.1287  0.2116
11375TIP3   OH234067   7.584   3.554   4.616 -0.0731 -0.1073  0.4345
11375TIP3    H134068   7.659   3.494   4.618  1.2365  1.4638 -0.0565
11375TIP3    H234069   7.562   3.563   4.524 -0.5210 -0.1054  0.5361
11376TIP3   OH234070   3.067   0.670   2.645 -0.2527  0.9797 -0.0274
11376TIP3    H134071   3.021   0.674   2.561 -2.0642  0.0138  0.8458
11376TIP3    H234072   3.011   0.719   2.705  0.8028  1.3156  0.7090
11377TIP3   OH234073   0.659   5.682   1.099  0.4697 -0.1509  0.4248
11377TIP3    H134074   0.641   5.732   1.179  1.9457  0.0474  0.6500
11377TIP3    H234075   0.733   5.727   1.058 -0.0986 -0.4048 -0.9342
11378TIP3   OH234076   1.245   3.468   5.875  0.2293 -0.5444  0.2265
11378TIP3    H134077   1.274   3.548   5.832  2.5687 -0.7103  1.3042
11378TIP3    H234078   1.296   3.398   5.832 -0.4913 -1.2388  0.4713
11379TIP3   OH234079   5.994   3.089   3.039 -0.4766  0.2870  0.0004
11379TIP3    H134080   5.967   3.166   3.089 -1.2855 -0.2271  0.3868
11379TIP3    H234081   6.023   3.026   3.106 -2.9479 -0.9554  0.0368
11380TIP3   OH234082   4.798   2.628   2.588 -0.0559 -0.0070  0.1434
11380TIP3    H134083   4.798   2.723   2.580  0.3464  0.0439  0.6699
11380TIP3    H234084   4.889   2.606   2.609 -0.2424 -0.4693  0.4759
11381TIP3   OH234085   2.542   4.547   6.135  0.3030  0.2420  0.3788
11381TIP3    H134086   2.462   4.580   6.177 -0.8917 -1.5160 -0.3903
11381TIP3    H234087   2.513   4.515   6.050  2.0179  0.3305 -0.2845
11382TIP3   OH234088   7.670   4.887   5.286  0.4378  0.1381 -0.6195
11382TIP3    H134089   7.611   4.947   5.331  1.7141  0.2574  0.9537
11382TIP3    H234090   7.646   4.896   5.193 -1.7027  0.4845 -0.0903
11383TIP3   OH234091   1.426   0.408   4.800  0.8969 -0.1855  0.0039
11383TIP3    H134092   1.406   0.437   4.889 -0.3154 -1.0225  0.0408
11383TIP3    H234093   1.364   0.456   4.745 -0.1108 -1.5398 -0.0883
11384TIP3   OH234094   0.876   2.613   1.308  0.2209 -0.6220  0.0505
11384TIP3    H134095   0.946   2.588   1.368  0.7766 -0.0356 -0.3346
11384TIP3    H234096   0.917   2.607   1.221  0.0127  0.3957 -0.1313
11385TIP3   OH234097   4.997   1.154   5.111  0.3339  0.0601 -0.2911
11385TIP3    H134098   4.961   1.073   5.073  2.6704 -0.8631 -0.7104
11385TIP3    H234099   5.073   1.174   5.057  1.4652  0.9291  1.5355
11386TIP3   OH234100   7.226   0.285   2.075 -0.6070  0.1499  0.8172
11386TIP3    H134101   7.179   0.317   1.997 -0.9092 -0.5626  0.6959
11386TIP3    H234102   7.223   0.190   2.067  0.2985  0.0814  1.1552
11387TIP3   OH234103   7.352   5.457   1.663  0.0667  0.3017  0.3423
11387TIP3    H134104   7.345   5.364   1.685  0.8199  0.4734  1.3980
11387TIP3    H234105   7.310   5.464   1.577  1.6148 -1.3542 -0.6442
11388TIP3   OH234106   5.398   2.296   3.262 -0.2985 -0.1956  0.0180
11388TIP3    H134107   5.317   2.288   3.313 -0.2615 -1.3549 -0.0745
11388TIP3    H234108   5.467   2.266   3.322 -0.0604 -0.0872 -0.2006
11389TIP3   OH234109   4.714   2.356   2.718 -0.1739 -0.3390 -0.2986
11389TIP3    H134110   4.690   2.442   2.751  0.4350  0.2624 -1.3787
11389TIP3    H234111   4.807   2.364   2.694  0.4543 -1.8376  1.3247
11390TIP3   OH234112   2.670   2.226   6.406 -0.5646  0.6139  0.2863
11390TIP3    H134113   2.746   2.278   6.381  1.7439 -2.0571  1.2617
11390TIP3    H234114   2.670   2.153   6.344 -0.8146 -0.7456  1.8493
11391TIP3   OH234115   0.439   3.949   2.911  0.3161  0.6849 -0.2954
11391TIP3    H134116   0.380   4.021   2.888 -1.3524 -0.7049 -0.5593
11391TIP3    H234117   0.406   3.874   2.862  1.3229 -0.5309  0.8123
11392TIP3   OH234118   6.544   4.609   2.543  0.3555  0.2130 -0.1227
11392TIP3    H134119   6.629   4.575   2.569 -0.4733 -0.4534  1.9442
11392TIP3    H234120   6.542   4.600   2.447  1.6719 -2.0113 -0.0113
11393TIP3   OH234121   5.740   1.646   2.635  0.3873  0.5962 -0.4222
11393TIP3    H134122   5.664   1.658   2.693  0.2328 -0.3260 -0.4126
11393TIP3    H234123   5.768   1.734   2.614  0.6610  0.9647  1.3468
11394TIP3   OH234124   0.768   4.277   1.578  0.2892  0.1859 -0.2751
11394TIP3    H134125   0.702   4.209   1.585  2.2514 -1.7041  1.6005
11394TIP3    H234126   0.729   4.354   1.618 -0.9674 -0.6932  0.2261
11395TIP3   OH234127   5.422   5.265   4.422  0.2280  0.2530  0.0254
11395TIP3    H134128   5.499   5.311   4.457  0.5697 -0.0107 -0.3723
11395TIP3    H234129   5.354   5.279   4.488  0.5773  0.6023  0.3177
11396TIP3   OH234130   4.055   7.546   0.589  0.0837  0.5755 -0.2022
11396TIP3    H134131   4.055   7.641   0.574 -0.1720  0.6609  0.3159
11396TIP3    H234132   4.117   7.533   0.660 -1.2462  0.5756  0.9971
11397TIP3   OH234133   1.141   7.189   4.741 -0.3329  0.0890 -0.3121
11397TIP3    H134134   1.130   7.280   4.768 -1.7337  0.3281 -1.5739
11397TIP3    H234135   1.060   7.167   4.696 -0.9856 -2.4913  1.8597
11398TIP3   OH234136   5.648   1.056   2.762 -0.2727  0.2225 -0.1795
11398TIP3    H134137   5.731   1.061   2.715  0.4916  0.4460  1.1204
11398TIP3    H234138   5.672   1.069   2.854 -1.7156 -0.0183  0.2638
11399TIP3   OH234139   5.995   5.574   6.467  0.0073 -0.1025  0.0018
11399TIP3    H134140   5.991   5.669   6.460  1.1227 -0.0309  0.1891
11399TIP3    H234141   5.906   5.545   6.446  0.2310  0.8148 -2.6799
11400TIP3   OH234142   6.750   0.281   1.711 -0.0426  0.8460  0.0685
11400TIP3    H134143   6.691   0.353   1.733 -0.9779  0.1520 -0.0929
11400TIP3    H234144   6.719   0.207   1.764 -0.1455  0.1173 -0.9807
11401TIP3   OH234145   0.492   2.279   2.590 -0.1179  0.2693 -0.4369
11401TIP3    H134146   0.496   2.211   2.657  0.0501 -1.0580 -1.7416
11401TIP3    H234147   0.576   2.273   2.544  0.0364  1.5981 -0.3748
11402TIP3   OH234148   2.096   3.017   6.138 -0.2568  0.2871 -0.0526
11402TIP3    H134149   2.164   2.955   6.164 -0.2435  0.0677 -0.5875
11402TIP3    H234150   2.118   3.098   6.184  1.6686  0.9020 -1.8968
11403TIP3   OH234151   7.738   4.140   5.907  0.5269 -0.2385 -1.0559
11403TIP3    H134152   7.752   4.134   6.001 -2.4090 -1.2943 -0.5883
11403TIP3    H234153   7.816   4.100   5.869  2.1171  0.8824  0.8513
11404TIP3   OH234154   6.540   1.202   3.598  0.4192  0.3766  0.1781
11404TIP3    H134155   6.501   1.282   3.634  0.4743  0.6639 -0.3906
11404TIP3    H234156   6.595   1.232   3.525 -1.1731 -0.3336 -1.4065
11405TIP3   OH234157   1.249   2.769   1.336 -0.3758 -0.2683  0.0660
11405TIP3    H134158   1.205   2.694   1.376  0.3702  1.4524  4.8905
11405TIP3    H234159   1.334   2.773   1.379  0.1264  2.5877 -0.9430
11406TIP3   OH234160   0.799   1.845   2.365  0.4301 -0.7080 -0.0585
11406TIP3    H134161   0.788   1.795   2.446 -0.4155 -1.9681 -0.9039
11406TIP3    H234162   0.889   1.829   2.338  0.6148 -0.5483  0.4526
11407TIP3   OH234163   4.708   0.118   1.630  0.5894 -0.4278  0.4555
11407TIP3    H134164   4.621   0.125   1.670 -0.0423  1.2174 -1.0625
11407TIP3    H234165   4.692   0.127   1.536  2.1634 -2.7518 -0.1310
11408TIP3   OH234166   3.361   4.671   6.312 -0.1009 -0.4857  0.7871
11408TIP3    H134167   3.402   4.675   6.398  1.0472 -2.1825  0.3654
11408TIP3    H234168   3.432   4.687   6.250 -0.2884 -2.1767  0.0844
11409TIP3   OH234169   6.315   6.613   4.520  0.0794 -0.7803 -0.2766
11409TIP3    H134170   6.263   6.534   4.528 -0.1216 -0.6011  0.2295
11409TIP3    H234171   6.368   6.616   4.600  0.8327 -0.9344 -0.7608
11410TIP3   OH234172   0.856   7.475   2.395 -0.4710  0.7796 -0.2917
11410TIP3    H134173   0.887   7.397   2.350  0.0167  1.4384 -1.1079
11410TIP3    H234174   0.779   7.502   2.346  0.6857  2.1280 -1.4417
11411TIP3   OH234175   3.727   3.813   6.774  0.0312  0.1334 -0.3252
11411TIP3    H134176   3.753   3.879   6.710  1.0564  2.9200  2.6681
11411TIP3    H234177   3.800   3.751   6.776  0.4675  0.6124 -1.0784
11412TIP3   OH234178   7.823   5.629   5.819 -0.0660 -0.7332 -0.1215
11412TIP3    H134179   7.799   5.570   5.748 -1.1201 -0.2540 -0.1882
11412TIP3    H234180   7.750   5.623   5.881 -0.2960  0.6381 -0.2281
11413TIP3   OH234181   3.965   1.204   5.744 -0.1242  0.4693  0.0653
11413TIP3    H134182   3.907   1.141   5.785 -0.1336  0.0431 -0.5913
11413TIP3    H234183   4.040   1.211   5.804  0.3841 -0.9854 -0.3723
11414TIP3   OH234184   4.292   2.056   4.316 -0.7221 -0.2878  0.3545
11414TIP3    H134185   4.197   2.050   4.330 -0.6378  0.6698  1.5032
11414TIP3    H234186   4.301   2.116   4.242 -1.0379 -1.6488 -0.8320
11415TIP3   OH234187   5.989   7.784   4.566  0.0581 -0.3760 -0.1696
11415TIP3    H134188   5.970   7.878   4.569 -1.0400 -0.5411 -1.0453
11415TIP3    H234189   5.937   7.747   4.637 -0.3527 -0.4431 -0.5025
11416TIP3   OH234190   7.643   5.098   3.208  0.3602 -0.5002 -0.6358
11416TIP3    H134191   7.635   5.038   3.134  0.4047  0.3836 -1.3913
11416TIP3    H234192   7.572   5.073   3.267  1.1710 -2.1178 -0.2899
11417TIP3   OH234193   2.507   2.365   4.571  0.0486  0.1850  0.1127
11417TIP3    H134194   2.533   2.292   4.626 -0.6485  1.3071  2.0474
11417TIP3    H234195   2.441   2.328   4.511  1.5141 -1.2663 -0.6852
11418TIP3   OH234196   6.514   2.238   2.625  0.0556 -0.0935  0.0189
11418TIP3    H134197   6.567   2.286   2.688  0.2298 -0.1686 -0.0683
11418TIP3    H234198   6.487   2.303   2.561  1.3847 -0.3435 -0.8265
11419TIP3   OH234199   2.695   7.612   4.237  0.0755 -0.6331 -0.2950
11419TIP3    H134200   2.697   7.655   4.152 -0.2723  0.3141  0.1686
11419TIP3    H234201   2.780   7.633   4.277 -1.7395  3.7841  1.9003
11420TIP3   OH234202   1.872   3.386   5.255 -0.6161 -0.4567 -0.2453
11420TIP3    H134203   1.872   3.354   5.345 -2.0379  2.0389  0.7382
11420TIP3    H234204   1.913   3.472   5.259 -1.3299  0.0060 -1.8725
11421TIP3   OH234205   7.240   2.267   3.319  0.3444  0.2915 -0.0697
11421TIP3    H134206   7.206   2.334   3.259  0.1568 -0.3181 -0.6466
11421TIP3    H234207   7.335   2.276   3.313  0.3523  2.0634  1.6198
11422TIP3   OH234208   1.432   2.714   3.067  0.6668 -0.9396  0.1509
11422TIP3    H134209   1.455   2.807   3.058  0.0942 -0.7548  0.5695
11422TIP3    H234210   1.411   2.704   3.160 -1.4424 -0.9837 -0.2847
11423TIP3   OH234211   3.043   3.949   4.793  0.1691 -0.3097  0.0556
11423TIP3    H134212   3.048   3.924   4.701 -0.2747  1.2590 -0.4228
11423TIP3    H234213   3.131   3.980   4.814 -0.1923  1.1023 -0.4053
11424TIP3   OH234214   7.513   3.880   4.916  0.0679  0.0649 -0.2136
11424TIP3    H134215   7.473   3.832   4.988  1.7340 -1.2730 -0.1127
11424TIP3    H234216   7.534   3.966   4.953 -0.8580  0.0907  0.2851
11425TIP3   OH234217   0.997   0.085   2.831 -0.0274  0.1469 -0.4443
11425TIP3    H134218   0.995   0.040   2.746 -0.8799 -2.6221  0.8968
11425TIP3    H234219   0.928   0.042   2.882  1.4222  0.6513  2.1216
11426TIP3   OH234220   1.466   1.318   1.499  0.4885  0.7042  0.3732
11426TIP3    H134221   1.377   1.336   1.470  0.8054  0.2153 -0.9950
11426TIP3    H234222   1.518   1.322   1.418  1.4878 -0.3123  0.9414
11427TIP3   OH234223   5.402   1.777   5.715  0.6798 -0.3847  0.4764
11427TIP3    H134224   5.432   1.865   5.739 -2.7292  0.6137  1.6228
11427TIP3    H234225   5.400   1.779   5.619  1.0982  0.5966  0.4673
11428TIP3   OH234226   2.517   3.093   4.485 -0.0912 -0.4652  0.1474
11428TIP3    H134227   2.610   3.114   4.479  0.2210 -2.0232 -1.5974
11428TIP3    H234228   2.513   2.998   4.475 -1.8486 -0.4929  0.7364
11429TIP3   OH234229   0.931   4.455   1.457  0.2090 -0.2999 -0.2667
11429TIP3    H134230   0.870   4.384   1.482  1.0495 -1.3044 -0.9736
11429TIP3    H234231   0.979   4.475   1.537  0.2313 -0.8130 -0.1481
11430TIP3   OH234232   7.453   1.502   4.349 -0.3423 -0.4822  0.2035
11430TIP3    H134233   7.489   1.455   4.274 -0.3894 -1.1727  0.6106
11430TIP3    H234234   7.523   1.500   4.414  0.7820  2.4854 -0.7368
11431TIP3   OH234235   4.405   7.163   4.739  0.0126 -0.5655 -0.5278
11431TIP3    H134236   4.414   7.229   4.807  1.9666 -0.1188 -1.1561
11431TIP3    H234237   4.326   7.188   4.691  0.2046  0.7818 -0.1858
11432TIP3   OH234238   0.244   0.218   4.917  0.0275  0.1963  0.1024
11432TIP3    H134239   0.270   0.145   4.973  0.3380 -0.1960 -0.5267
11432TIP3    H234240   0.327   0.252   4.883 -0.1990 -0.6619 -1.4393
11433TIP3   OH234241   8.178   4.883   5.201  0.2311 -0.2917  0.0775
11433TIP3    H134242   8.083   4.884   5.210  0.2114 -0.7473 -0.0525
11433TIP3    H234243   8.211   4.877   5.290  0.1243 -0.7591  0.0858
11434TIP3   OH234244   7.559   2.932   5.497 -0.1029  0.6989  0.0073
11434TIP3    H134245   7.648   2.915   5.528  0.9571  2.3797 -1.8758
11434TIP3    H234246   7.538   2.857   5.442 -1.0713 -1.1313  2.6961
11435TIP3   OH234247   4.258   5.561   6.371 -0.4052 -0.1321  0.0085
11435TIP3    H134248   4.349   5.533   6.377 -0.5810 -0.4572  1.7035
11435TIP3    H234249   4.242   5.607   6.454 -2.1019 -1.0993  0.2568
11436TIP3   OH234250   7.881   2.573   5.471 -0.4766 -0.1880 -0.0406
11436TIP3    H134251   7.844   2.521   5.400 -0.3293 -1.3074  0.6691
11436TIP3    H234252   7.936   2.511   5.520  0.8010  0.9583  0.0544
11437TIP3   OH234253   3.212   3.871   2.600 -0.2605  0.4492 -0.2654
11437TIP3    H134254   3.237   3.952   2.645  0.1655  0.9059 -1.3042
11437TIP3    H234255   3.294   3.837   2.565 -0.3385 -0.7656  0.6638
11438TIP3   OH234256   2.894   0.128   2.619  0.0757  0.0004  0.4733
11438TIP3    H134257   2.915   0.221   2.615 -0.0489  0.0363  0.6752
11438TIP3    H234258   2.851   0.110   2.535 -2.0217  0.6392  1.3577
11439TIP3   OH234259   0.271   6.054   1.509  0.1944 -0.1535 -0.5702
11439TIP3    H134260   0.363   6.030   1.518  1.1959  2.7587 -1.8911
11439TIP3    H234261   0.256   6.056   1.414 -0.8027  0.7066 -0.4145
11440TIP3   OH234262   0.964   2.754   2.739  0.0247 -0.1260 -0.7606
11440TIP3    H134263   0.931   2.695   2.807 -2.2555 -0.4753 -2.0852
11440TIP3    H234264   0.988   2.697   2.667  1.5322  0.3178 -0.6470
11441TIP3   OH234265   3.873   7.658   2.928 -0.2703  0.3839  0.4221
11441TIP3    H134266   3.940   7.601   2.965 -0.9262 -0.9098 -0.3229
11441TIP3    H234267   3.822   7.602   2.871 -0.7750  1.7920 -0.5802
11442TIP3   OH234268   6.492   1.915   0.443 -0.3963 -0.5905  0.2969
11442TIP3    H134269   6.562   1.939   0.382  1.1900 -1.9151  1.5085
11442TIP3    H234270   6.513   1.825   0.469 -0.6185  0.1510  3.3421
11443TIP3   OH234271   1.244   3.523   3.612 -0.1547 -1.0897  0.3222
11443TIP3    H134272   1.260   3.481   3.697 -0.7666 -2.4724 -0.2143
11443TIP3    H234273   1.244   3.450   3.549  1.1636 -0.0124 -1.0121
11444TIP3   OH234274   8.015   2.064   5.208 -0.0305  0.1364  0.6526
11444TIP3    H134275   8.022   2.145   5.257 -2.5105  1.8462 -1.5665
11444TIP3    H234276   7.921   2.046   5.204  0.4293 -2.9125  1.0600
11445TIP3   OH234277   7.742   7.498   3.794  0.4733 -0.1814 -0.1720
11445TIP3    H134278   7.785   7.573   3.754 -0.6893  0.3613 -0.4308
11445TIP3    H234279   7.676   7.470   3.730 -1.0253  0.3372  1.0682
11446TIP3   OH234280   2.133   3.452   4.450  0.3967  0.0533  0.4523
11446TIP3    H134281   2.136   3.357   4.445  0.2411 -0.0425  1.8637
11446TIP3    H234282   2.184   3.482   4.374 -2.6638 -1.0813 -2.2582
11447TIP3   OH234283   0.796   4.456   1.850  0.0289  0.2744 -0.4475
11447TIP3    H134284   0.763   4.369   1.870  0.8058  0.0428 -0.1036
11447TIP3    H234285   0.719   4.513   1.852 -0.3790 -0.2850  0.0593
11448TIP3   OH234286   6.731   6.488   6.532 -0.6571  0.0866 -0.3283
11448TIP3    H134287   6.818   6.452   6.548 -0.9906 -0.4436  0.3384
11448TIP3    H234288   6.685   6.479   6.616 -0.6765  2.2930 -0.0223
11449TIP3   OH234289   4.709   1.629   3.598 -0.1818 -0.5378  0.9231
11449TIP3    H134290   4.741   1.630   3.508 -1.8561 -0.2913  0.2970
11449TIP3    H234291   4.784   1.658   3.650  0.9012 -0.9384 -0.3456
11450TIP3   OH234292   6.878   2.680   6.250  0.4675 -0.2641 -0.2795
11450TIP3    H134293   6.808   2.663   6.313  0.2608  0.4541 -0.2999
11450TIP3    H234294   6.903   2.771   6.267  2.2276 -0.8554  0.5396
11451TIP3   OH234295   0.444   7.302   3.809 -0.4474  0.4233  0.3568
11451TIP3    H134296   0.510   7.355   3.765 -1.5416  0.6692 -1.0553
11451TIP3    H234297   0.369   7.360   3.821 -0.5060  0.1039  1.7843
11452TIP3   OH234298   2.414   6.939   6.157  0.0591  0.0778  0.3127
11452TIP3    H134299   2.436   7.002   6.088 -0.1793  0.6391  0.7378
11452TIP3    H234300   2.485   6.875   6.156  0.5540  0.6249  0.1905
11453TIP3   OH234301   1.599   0.182   2.748 -0.2938  0.1348 -0.0121
11453TIP3    H134302   1.582   0.256   2.690  1.4459  0.8247  0.2728
11453TIP3    H234303   1.563   0.209   2.832  1.0552  1.0734  0.3033
11454TIP3   OH234304   5.545   5.767   5.155  0.4935 -0.3235  0.6727
11454TIP3    H134305   5.489   5.723   5.219  0.1799  0.6184  1.0589
11454TIP3    H234306   5.562   5.853   5.193  1.2120 -0.1557 -0.0062
11455TIP3   OH234307   0.416   2.533   2.304 -0.3814 -0.0351  0.1865
11455TIP3    H134308   0.509   2.520   2.285 -0.2156  2.4963 -1.2568
11455TIP3    H234309   0.414   2.605   2.367 -1.3771 -0.7450  1.0075
11456TIP3   OH234310   6.714   4.155   1.137  0.1913  0.1934 -0.7077
11456TIP3    H134311   6.649   4.177   1.071  0.2750 -0.5424 -1.0414
11456TIP3    H234312   6.792   4.205   1.111  0.0245  0.4094 -0.7941
11457TIP3   OH234313   8.020   5.821   6.238 -0.3977  0.3971 -0.1931
11457TIP3    H134314   8.103   5.808   6.284 -0.8990 -0.8815  0.3966
11457TIP3    H234315   8.033   5.779   6.152  0.7291  3.2667 -1.5380
11458TIP3   OH234316   2.178   0.170   5.821 -0.0411 -0.1997  0.0379
11458TIP3    H134317   2.099   0.149   5.871 -2.0001 -0.5620 -2.9568
11458TIP3    H234318   2.185   0.265   5.826 -1.3681 -0.0428 -0.5472
11459TIP3   OH234319   6.932   5.013   2.770  0.5206  0.7327 -0.1490
11459TIP3    H134320   7.001   4.948   2.755 -0.1078  0.3292 -1.5384
11459TIP3    H234321   6.855   4.960   2.793  0.3447  1.0890  0.0879
11460TIP3   OH234322   5.818   6.863   1.778  0.2590  0.4043 -0.2251
11460TIP3    H134323   5.833   6.900   1.691  1.6612 -1.0321 -0.6434
11460TIP3    H234324   5.854   6.927   1.839  0.3324  0.8782 -0.7617
11461TIP3   OH234325   3.874   2.438   3.297 -0.0288  0.7239  0.3991
11461TIP3    H134326   3.794   2.438   3.350 -0.1532 -0.5432  0.2550
11461TIP3    H234327   3.905   2.347   3.301  1.6902  1.3017  0.8565
11462TIP3   OH234328   2.717   5.330   4.566 -0.1308 -0.0457 -0.2042
11462TIP3    H134329   2.730   5.372   4.481  1.1072  0.7829  0.3796
11462TIP3    H234330   2.792   5.271   4.575 -0.3689 -0.2873  0.2299
11463TIP3   OH234331   5.434   2.792   1.258 -0.2750 -0.2387  0.3739
11463TIP3    H134332   5.385   2.726   1.309  0.3841 -0.2933  0.9586
11463TIP3    H234333   5.471   2.850   1.325 -0.2951  0.3339 -0.1097
11464TIP3   OH234334   7.625   7.149   6.729 -0.8092  0.9363  0.5950
11464TIP3    H134335   7.667   7.066   6.707  0.3306  1.4077  0.9452
11464TIP3    H234336   7.597   7.138   6.820 -1.9485  0.4426  0.2141
11465TIP3   OH234337   4.514   1.169   3.959  0.5700  0.4630  0.2507
11465TIP3    H134338   4.431   1.206   3.989 -0.2324 -2.1182  1.5520
11465TIP3    H234339   4.511   1.178   3.864 -1.6282 -0.2662  0.1840
11466TIP3   OH234340   8.064   4.983   1.597  0.4609 -0.3629 -0.1785
11466TIP3    H134341   8.018   4.966   1.515 -0.9863 -1.6971  0.8443
11466TIP3    H234342   8.031   5.069   1.625  0.1989 -0.3497 -0.5209
11467TIP3   OH234343   7.845   5.900   4.255  0.4099  0.2752  0.1609
11467TIP3    H134344   7.810   5.944   4.178  1.3748  1.1345  0.1848
11467TIP3    H234345   7.881   5.971   4.309 -1.9223 -0.0869  2.3443
11468TIP3   OH234346   6.461   3.812   0.175  0.3061 -0.0017 -0.4153
11468TIP3    H134347   6.505   3.826   0.091  3.0695 -0.4979  0.8127
11468TIP3    H234348   6.533   3.798   0.237 -1.6189  0.1611  2.0159
11469TIP3   OH234349   1.027   3.023   0.752  0.2309  1.0461 -0.4792
11469TIP3    H134350   0.943   2.992   0.787 -0.3193  0.6444 -2.0593
11469TIP3    H234351   1.073   2.943   0.728 -0.2094  1.3263 -2.3939
11470TIP3   OH234352   5.065   6.338   5.647 -0.5626 -0.3376 -0.8933
11470TIP3    H134353   5.099   6.341   5.737 -2.3722 -1.3109 -0.1450
11470TIP3    H234354   5.139   6.367   5.594  0.2264  1.4057  0.9790
11471TIP3   OH234355   0.227   1.962   5.494 -0.2615  0.0257 -0.2111
11471TIP3    H134356   0.235   1.969   5.399 -1.6347 -1.0401 -0.4399
11471TIP3    H234357   0.272   1.880   5.515 -0.9157 -0.3064 -0.0919
11472TIP3   OH234358   0.505   4.896   3.963 -0.0467  0.0221 -0.6266
11472TIP3    H134359   0.489   4.982   4.002  1.5220 -0.1386  0.5040
11472TIP3    H234360   0.431   4.882   3.904 -1.3460  1.2922  0.6165
11473TIP3   OH234361   6.678   6.100   4.371  0.3135  0.3257 -0.1052
11473TIP3    H134362   6.657   6.073   4.281  0.5514 -0.4615  0.0703
11473TIP3    H234363   6.651   6.192   4.375 -1.5919 -0.1863 -0.3657
11474TIP3   OH234364   8.065   2.459   3.023  0.1669  0.1177 -0.0973
11474TIP3    H134365   8.123   2.391   3.058  0.1716  0.0054 -0.3240
11474TIP3    H234366   8.007   2.481   3.096 -1.1527 -1.5393 -0.5968
11475TIP3   OH234367   6.558   7.089   2.740 -0.6759  0.0380  0.5224
11475TIP3    H134368   6.530   7.101   2.831 -1.7780 -1.5476  0.4374
11475TIP3    H234369   6.479   7.064   2.693 -0.1395  0.8936 -0.9133
11476TIP3   OH234370   3.121   0.834   3.809  0.0155 -0.0305 -0.1016
11476TIP3    H134371   3.117   0.830   3.713 -0.5319 -0.4012 -0.0651
11476TIP3    H234372   3.174   0.759   3.834 -1.0247 -0.7609 -0.0409
11477TIP3   OH234373   0.782   2.914   1.128  0.2909  0.0907  0.0814
11477TIP3    H134374   0.737   2.831   1.141 -1.4781  0.9374 -0.4261
11477TIP3    H234375   0.769   2.962   1.210  0.2370  0.3587 -0.0821
11478TIP3   OH234376   2.720   3.311   3.430  0.0014 -0.2260  0.0692
11478TIP3    H134377   2.703   3.292   3.337  2.1436 -0.2752 -0.3650
11478TIP3    H234378   2.710   3.226   3.473  0.8624 -0.6215 -0.4592
11479TIP3   OH234379   4.359   0.531   3.820  0.9995 -0.2581  0.2565
11479TIP3    H134380   4.281   0.535   3.764  0.7747  1.4589  0.6170
11479TIP3    H234381   4.403   0.450   3.795 -0.4970 -0.8734 -0.5014
11480TIP3   OH234382   0.174   1.859   1.035  0.1857  0.4001  0.0941
11480TIP3    H134383   0.151   1.932   1.092 -0.1590 -0.4656  1.0885
11480TIP3    H234384   0.140   1.781   1.080 -0.7498 -0.2577 -1.6273
11481TIP3   OH234385   6.950   3.852   2.323 -0.2317 -0.5084  0.4937
11481TIP3    H134386   6.997   3.827   2.403  0.1978  2.1323  1.1563
11481TIP3    H234387   6.895   3.776   2.303  1.8717 -2.4418  1.5396
11482TIP3   OH234388   3.039   6.904   0.973 -0.2008 -0.0230  0.0133
11482TIP3    H134389   3.014   6.931   1.062  0.1035  0.8589 -0.1545
11482TIP3    H234390   3.046   6.809   0.978 -0.1614  0.0167  0.9453
11483TIP3   OH234391   1.388   4.915   4.208 -0.5204 -0.2153 -0.3147
11483TIP3    H134392   1.382   4.920   4.113 -0.8600 -0.3749 -0.3015
11483TIP3    H234393   1.298   4.900   4.237 -0.4745  0.2050  0.0536
11484TIP3   OH234394   1.457   3.491   1.761 -0.3173  0.1398  0.0480
11484TIP3    H134395   1.420   3.577   1.784  1.4323  0.8142  0.4644
11484TIP3    H234396   1.381   3.439   1.734 -1.4545  1.7182  0.0683
11485TIP3   OH234397   1.203   7.771   3.700 -0.2108  0.1459 -0.9201
11485TIP3    H134398   1.172   7.859   3.722  1.3475  0.6899 -0.7851
11485TIP3    H234399   1.246   7.741   3.780 -2.8294 -1.7991 -0.0743
11486TIP3   OH234400   6.966   0.562   5.039  0.0700  0.2770  0.6214
11486TIP3    H134401   6.998   0.473   5.051  0.9669  0.4752 -0.2037
11486TIP3    H234402   7.044   0.617   5.041 -0.3798  0.9589  0.2431
11487TIP3   OH234403   1.064   6.645   5.722  0.0962  0.1690 -0.2961
11487TIP3    H134404   1.140   6.612   5.771  0.5028 -0.8272 -1.5400
11487TIP3    H234405   1.102   6.692   5.648 -0.4998  2.3157  0.6923
11488TIP3   OH234406   4.945   4.267   3.444  0.5952 -0.5670  0.1551
11488TIP3    H134407   5.005   4.337   3.422 -1.1648  1.4951  1.4416
11488TIP3    H234408   4.918   4.230   3.360  1.2929  0.5635 -0.5836
11489TIP3   OH234409   2.334   6.496   6.385  0.2940 -0.1491 -0.1347
11489TIP3    H134410   2.313   6.423   6.444  3.4868 -0.7130  0.4924
11489TIP3    H234411   2.277   6.567   6.413 -0.9354 -1.5436  1.0955
11490TIP3   OH234412   8.301   4.613   1.166 -0.0861 -0.1813 -0.3755
11490TIP3    H134413   8.208   4.635   1.156 -0.3309  0.3015  2.1204
11490TIP3    H234414   8.344   4.697   1.178  0.8529 -0.3440 -2.3569
11491TIP3   OH234415   1.197   0.753   0.329  0.8095  0.8169  0.1068
11491TIP3    H134416   1.106   0.772   0.351  0.2919 -0.2239 -1.0564
11491TIP3    H234417   1.229   0.702   0.404  0.2291  0.5773  0.1938
11492TIP3   OH234418   6.631   5.266   4.797  0.2658  0.0565  0.1407
11492TIP3    H134419   6.649   5.262   4.891  1.1281 -1.0929 -0.0505
11492TIP3    H234420   6.535   5.266   4.791  0.1833 -1.2667  1.0014
11493TIP3   OH234421   8.016   6.448   0.685 -0.1776  0.0508 -0.1398
11493TIP3    H134422   7.937   6.428   0.635 -0.4480 -0.2419  0.3992
11493TIP3    H234423   8.033   6.540   0.666  0.5969 -0.4211 -1.9761
11494TIP3   OH234424   0.501   7.150   4.947 -0.5063 -0.5089 -0.6180
11494TIP3    H134425   0.523   7.207   5.021  0.7355 -2.1910  0.3660
11494TIP3    H234426   0.484   7.065   4.986 -0.1991 -1.3613 -2.2578
11495TIP3   OH234427   4.002   4.682   4.616  0.1948  0.1019  0.6975
11495TIP3    H134428   4.022   4.627   4.692 -0.7016  0.5117  1.2594
11495TIP3    H234429   4.038   4.768   4.638  1.9338 -0.3252 -0.3449
11496TIP3   OH234430   3.771   0.132   4.542  0.3519 -0.2712 -0.2823
11496TIP3    H134431   3.801   0.169   4.459  2.1838 -2.4260 -0.6630
11496TIP3    H234432   3.715   0.059   4.518 -0.3366  0.0089  0.4168
11497TIP3   OH234433   3.041   3.963   6.123  0.4332  0.3509  0.1025
11497TIP3    H134434   2.976   3.893   6.126 -1.3308  1.9491  0.8732
11497TIP3    H234435   3.125   3.917   6.111 -0.6595 -1.8601  0.4306
11498TIP3   OH234436   6.418   0.370   0.097  0.1487 -0.8753 -0.1806
11498TIP3    H134437   6.324   0.366   0.110  0.0423 -0.5783 -0.8138
11498TIP3    H234438   6.439   0.291   0.048  0.5598 -2.0343  1.7664
11499TIP3   OH234439   7.197   0.300   3.361 -0.3098  0.1083 -0.1278
11499TIP3    H134440   7.247   0.355   3.302 -0.4496  0.6480  0.2537
11499TIP3    H234441   7.208   0.340   3.447  1.3050 -1.6160  0.5353
11500TIP3   OH234442   1.752   5.887   1.521  0.0988  0.4321 -0.2146
11500TIP3    H134443   1.774   5.960   1.463  0.2171 -0.0121 -0.7406
11500TIP3    H234444   1.735   5.928   1.606 -1.6677  1.2668 -0.9310
11501TIP3   OH234445   8.292   1.843   0.239  0.0990  0.4517 -0.4864
11501TIP3    H134446   8.358   1.892   0.190 -0.8072 -1.2894 -3.6832
11501TIP3    H234447   8.215   1.901   0.240  0.6320  1.1701  0.4181
11502TIP3   OH234448   1.236   6.101   2.327  0.0429  0.0527  0.0287
11502TIP3    H134449   1.141   6.093   2.317  0.1764  0.2663 -1.7244
11502TIP3    H234450   1.270   6.080   2.240  1.4005  3.2195 -0.3265
11503TIP3   OH234451   0.642   1.396   3.367  0.0317  0.1120 -0.0087
11503TIP3    H134452   0.560   1.385   3.415  0.2432 -0.1004  0.3087
11503TIP3    H234453   0.667   1.307   3.341 -0.0089  0.2091 -0.3967
11504TIP3   OH234454   1.635   4.116   6.747 -0.3622  0.0438  0.2964
11504TIP3    H134455   1.689   4.185   6.786  0.3464 -0.3061 -0.0343
11504TIP3    H234456   1.691   4.038   6.750 -1.4137 -0.6936  1.3121
11505TIP3   OH234457   4.507   1.190   6.352  0.0103 -0.0147 -0.0128
11505TIP3    H134458   4.476   1.276   6.324  2.0555  0.5688 -0.6956
11505TIP3    H234459   4.550   1.153   6.275  0.8278 -0.8179  0.7843
11506TIP3   OH234460   1.983   2.328   3.361  0.5028 -0.4444  0.1712
11506TIP3    H134461   2.078   2.339   3.353  0.4059  1.5460  1.2336
11506TIP3    H234462   1.949   2.417   3.364 -1.3044 -1.1261  0.9364
11507TIP3   OH234463   8.197   4.545   4.371  0.2118 -0.1061 -0.3350
11507TIP3    H134464   8.188   4.625   4.318 -0.7031 -1.2176 -1.9422
11507TIP3    H234465   8.244   4.574   4.449  1.0135  1.7596 -1.4226
11508TIP3   OH234466   0.745   3.984   6.704 -0.1579  0.0596  0.3604
11508TIP3    H134467   0.813   3.959   6.642 -0.2165 -1.0304  0.7163
11508TIP3    H234468   0.683   4.037   6.652  0.8700  0.9529  0.0082
11509TIP3   OH234469   1.689   4.710   6.393 -0.0372  0.3906  0.0014
11509TIP3    H134470   1.683   4.790   6.447  0.9762  1.4768 -1.4092
11509TIP3    H234471   1.704   4.640   6.457 -0.2095  1.4227  1.2305
11510TIP3   OH234472   4.029   4.514   5.949 -0.4093  0.1344  0.0984
11510TIP3    H134473   4.037   4.454   6.024 -0.4232  0.6767  0.5453
11510TIP3    H234474   3.965   4.578   5.978  0.2415  0.8585 -0.0378
11511TIP3   OH234475   4.703   0.820   5.643 -0.3128 -0.0883  0.0464
11511TIP3    H134476   4.685   0.746   5.701  0.1665 -0.6633 -0.5261
11511TIP3    H234477   4.781   0.793   5.594  0.2387  1.0563  0.2706
11512TIP3   OH234478   4.424   6.352   3.196 -0.4165  0.3928  0.7648
11512TIP3    H134479   4.368   6.310   3.130 -1.3528 -0.8659  2.2928
11512TIP3    H234480   4.367   6.417   3.238 -0.6934 -0.6912  2.1279
11513TIP3   OH234481   5.743   7.242   2.071  0.0790 -0.7429  0.3693
11513TIP3    H134482   5.728   7.324   2.118 -3.1490 -0.0204 -1.6237
11513TIP3    H234483   5.730   7.265   1.979 -1.5187 -3.5691 -0.2164
11514TIP3   OH234484   5.449   1.967   0.128  0.2274  0.4122 -0.4448
11514TIP3    H134485   5.361   2.001   0.145 -0.6347 -2.0979  0.6015
11514TIP3    H234486   5.508   2.038   0.153 -1.4561  1.7891 -0.1871
11515TIP3   OH234487   4.854   1.548   2.810 -0.6535 -0.4340 -0.2063
11515TIP3    H134488   4.856   1.520   2.718  1.9469 -1.3703  0.0461
11515TIP3    H234489   4.839   1.642   2.806  0.4741 -0.2670 -1.6910
11516TIP3   OH234490   5.524   7.184   1.082  0.2964 -0.3152  0.3680
11516TIP3    H134491   5.489   7.270   1.106 -1.4888 -1.5075  2.3498
11516TIP3    H234492   5.520   7.183   0.986  1.3635  2.1448  0.2015
11517TIP3   OH234493   7.218   5.682   1.781 -0.2379  0.0610  0.0686
11517TIP3    H134494   7.126   5.657   1.765  0.0954  0.0238 -2.1897
11517TIP3    H234495   7.265   5.599   1.787 -0.6496 -0.0683  4.2789
11518TIP3   OH234496   1.770   1.721   3.966  0.2703 -0.2370 -0.8421
11518TIP3    H134497   1.830   1.768   4.024 -0.0029 -1.2784  0.3129
11518TIP3    H234498   1.812   1.725   3.880  1.5339 -0.1534 -0.2411
11519TIP3   OH234499   7.497   1.056   1.926  0.1689  0.5211  0.7030
11519TIP3    H134500   7.507   1.005   2.006  0.2106 -0.8044 -0.1160
11519TIP3    H234501   7.576   1.109   1.921  1.4447 -1.3315  0.2307
11520TIP3   OH234502   3.263   3.260   5.465  0.7343  0.0189  0.0132
11520TIP3    H134503   3.241   3.228   5.553 -0.6403  0.4879 -0.1475
11520TIP3    H234504   3.341   3.314   5.478  0.0650  0.7507  1.0782
11521TIP3   OH234505   3.444   2.981   4.286  0.4366  0.3662  0.9347
11521TIP3    H134506   3.399   3.036   4.221 -0.9634 -1.0805  0.5980
11521TIP3    H234507   3.500   2.924   4.234  0.6766  0.4126  1.1431
11522TIP3   OH234508   2.308   4.331   6.606 -0.1763 -0.0805 -0.1323
11522TIP3    H134509   2.299   4.259   6.544  2.2669 -1.1326  0.6042
11522TIP3    H234510   2.387   4.378   6.578 -0.9814  1.5381  0.1879
11523TIP3   OH234511   8.169   2.934   2.513 -0.0242  0.0568 -0.1484
11523TIP3    H134512   8.106   2.969   2.450  0.3858  0.4669 -0.3396
11523TIP3    H234513   8.252   2.975   2.489  0.4994 -1.1218 -0.4331
11524TIP3   OH234514   7.053   2.952   6.497 -0.6686  0.0740 -0.1872
11524TIP3    H134515   7.092   2.888   6.556 -0.8068 -1.0933 -1.3263
11524TIP3    H234516   6.962   2.958   6.525 -0.3728  0.7169  0.6979
11525TIP3   OH234517   7.163   7.148   4.522  0.0263 -0.6079  0.1174
11525TIP3    H134518   7.133   7.234   4.495  0.0881 -0.8122 -0.6261
11525TIP3    H234519   7.214   7.164   4.602  3.7551  0.6931 -2.2337
11526TIP3   OH234520   6.400   3.497   1.064  0.1926 -0.4773  0.0997
11526TIP3    H134521   6.429   3.440   1.136 -0.5973 -0.4160  0.4798
11526TIP3    H234522   6.310   3.521   1.087  0.2763  0.3724 -0.4019
11527TIP3   OH234523   0.523   0.717   1.879 -0.7058 -0.1239  0.6577
11527TIP3    H134524   0.541   0.763   1.797 -2.1080 -0.3660  0.1739
11527TIP3    H234525   0.514   0.625   1.853  1.5563 -0.6411  1.5334
11528TIP3   OH234526   0.793   5.580   6.513  0.1729  0.0910 -0.2076
11528TIP3    H134527   0.867   5.520   6.503  1.6510  1.8157 -0.2002
11528TIP3    H234528   0.832   5.661   6.547 -1.3559  1.8333 -2.3419
11529TIP3   OH234529   0.719   3.118   0.393  0.2257 -0.0714  0.0460
11529TIP3    H134530   0.703   3.138   0.300 -1.8492 -0.7108  0.2169
11529TIP3    H234531   0.707   3.202   0.437  0.0684  0.0125 -0.1503
11530TIP3   OH234532   0.587   0.962   2.881  0.2463 -0.2349 -0.1264
11530TIP3    H134533   0.574   0.888   2.822  0.8634 -0.1035 -0.4382
11530TIP3    H234534   0.539   0.939   2.960 -1.1217 -0.1391 -0.8952
11531TIP3   OH234535   4.405   2.145   1.312  0.6320  0.4550 -0.3584
11531TIP3    H134536   4.336   2.143   1.380 -0.9487  1.3239 -1.8626
11531TIP3    H234537   4.461   2.071   1.334 -1.1487 -0.7035  0.6080
11532TIP3   OH234538   7.119   4.326   1.090 -0.4164  0.0398 -0.1493
11532TIP3    H134539   7.138   4.259   1.155 -0.7479  1.4012  1.4205
11532TIP3    H234540   7.024   4.339   1.096 -0.3456  0.6858 -0.3760
11533TIP3   OH234541   1.626   3.280   5.336  0.0014 -0.7186 -0.0950
11533TIP3    H134542   1.693   3.293   5.269 -0.6858 -2.1329 -1.1181
11533TIP3    H234543   1.655   3.332   5.410  1.5974 -0.3401 -0.9491
11534TIP3   OH234544   7.758   1.393   2.732  0.1619  0.5644  0.3007
11534TIP3    H134545   7.749   1.379   2.637  1.6058 -0.1074  0.2458
11534TIP3    H234546   7.835   1.448   2.741  0.7422 -0.3556  1.1383
11535TIP3   OH234547   1.794   3.935   3.803  0.4514 -0.6022  0.0299
11535TIP3    H134548   1.703   3.963   3.800  0.8204  0.5135 -1.9106
11535TIP3    H234549   1.841   4.012   3.836  0.9777 -0.2276 -1.5069
11536TIP3   OH234550   5.396   0.217   3.713 -0.0978  0.4968 -0.3054
11536TIP3    H134551   5.378   0.195   3.621 -1.2926 -1.9169  0.4176
11536TIP3    H234552   5.485   0.186   3.728  0.1074  0.9120 -0.6517
11537TIP3   OH234553   6.182   4.027   0.426 -0.2831 -0.5641 -0.7257
11537TIP3    H134554   6.235   3.978   0.490  0.0383  0.0577 -0.5121
11537TIP3    H234555   6.216   4.116   0.430  0.2450 -0.6663 -2.2979
11538TIP3   OH234556   1.070   1.833   4.188 -0.4325 -0.4431 -0.1345
11538TIP3    H134557   0.976   1.845   4.173  0.0518  2.3108 -1.5654
11538TIP3    H234558   1.080   1.845   4.283 -1.5547 -1.4457  0.1426
11539TIP3   OH234559   0.805   1.881   5.527 -0.0386 -0.0981  0.0367
11539TIP3    H134560   0.873   1.912   5.587 -0.1084  0.3497 -0.1145
11539TIP3    H234561   0.852   1.861   5.446 -0.1390  0.5994 -0.2015
11540TIP3   OH234562   3.412   5.741   2.828  0.2686 -0.2630 -0.5650
11540TIP3    H134563   3.440   5.730   2.738  1.8265  0.6259 -0.2162
11540TIP3    H234564   3.372   5.828   2.831 -1.6111 -1.0670 -0.8009
11541TIP3   OH234565   5.176   1.957   5.428  0.0661 -0.5851 -0.3099
11541TIP3    H134566   5.258   1.908   5.422 -0.5992 -1.6753 -0.9452
11541TIP3    H234567   5.200   2.038   5.472  1.6844 -0.4439 -1.3297
11542TIP3   OH234568   1.332   1.995   0.579 -0.1840 -0.0531  0.0799
11542TIP3    H134569   1.382   2.054   0.635  1.9339 -1.6434  0.0355
11542TIP3    H234570   1.275   1.947   0.640  1.1334 -0.8398  0.7486
11543TIP3   OH234571   3.975   2.841   4.933 -0.5312 -0.6524  0.1243
11543TIP3    H134572   4.024   2.913   4.973 -0.1616 -0.6896 -0.2611
11543TIP3    H234573   3.982   2.856   4.839  0.6078 -1.8897 -0.0046
11544TIP3   OH234574   2.521   7.424   5.498  0.0506  0.4622 -0.5196
11544TIP3    H134575   2.600   7.437   5.550  1.3525  1.2791 -2.5777
11544TIP3    H234576   2.518   7.500   5.439 -2.6930  0.8400 -0.0451
11545TIP3   OH234577   4.217   0.596   2.598 -0.5790 -0.6452  0.4869
11545TIP3    H134578   4.211   0.691   2.591  0.4403 -0.5320  1.0352
11545TIP3    H234579   4.175   0.563   2.517  1.0499  0.3222 -0.8004
11546TIP3   OH234580   4.218   1.705   0.315  0.1734 -0.0758 -0.2144
11546TIP3    H134581   4.233   1.772   0.248  0.3273  0.5886  0.4672
11546TIP3    H234582   4.244   1.747   0.397  0.9847 -1.2170  0.1488
11547TIP3   OH234583   6.189   2.236   5.420 -0.1592 -0.3870  0.0474
11547TIP3    H134584   6.213   2.243   5.328  0.3251  1.4748  0.2810
11547TIP3    H234585   6.223   2.150   5.447  2.0013  0.1042 -0.8917
11548TIP3   OH234586   4.867   3.658   4.630  0.3082 -0.0867 -0.1807
11548TIP3    H134587   4.953   3.675   4.591 -0.0995 -0.6003 -1.3315
11548TIP3    H234588   4.842   3.572   4.597 -0.3599 -0.2498  0.6990
11549TIP3   OH234589   2.628   1.703   1.650 -0.0734  0.2472 -0.2431
11549TIP3    H134590   2.679   1.637   1.603  1.1827  0.7826  0.3084
11549TIP3    H234591   2.566   1.653   1.702 -0.0277 -0.4375 -0.8317
11550TIP3   OH234592   6.738   0.444   5.252  0.2426  0.4141 -0.0408
11550TIP3    H134593   6.830   0.419   5.247  0.1754  0.1097  0.2394
11550TIP3    H234594   6.722   0.491   5.170 -0.1827 -2.2571 -1.5952
11551TIP3   OH234595   8.046   1.080   2.491 -0.1988 -0.1235  0.2515
11551TIP3    H134596   7.983   1.051   2.425 -0.8802  0.4604  0.6300
11551TIP3    H234597   8.060   1.002   2.545 -0.5200 -0.2884  0.1064
11552TIP3   OH234598   4.755   7.207   4.579 -0.5289  0.1171 -0.0209
11552TIP3    H134599   4.739   7.197   4.673  0.0264 -2.0259 -0.1082
11552TIP3    H234600   4.843   7.246   4.574 -0.2140 -0.5190  0.3666
11553TIP3   OH234601   1.017   1.085   2.091  0.3803 -0.4079  0.3547
11553TIP3    H134602   0.947   1.148   2.071 -1.5651 -2.6118 -0.2297
11553TIP3    H234603   1.005   1.065   2.184  1.2832  0.3691  0.6534
11554TIP3   OH234604   4.364   0.138   3.546 -0.2060 -0.2882  0.2340
11554TIP3    H134605   4.365   0.084   3.626  0.3910  0.2848  0.6213
11554TIP3    H234606   4.430   0.098   3.490  0.5392  0.2748  0.6909
11555TIP3   OH234607   6.410   5.492   5.512  0.4992  0.2108 -0.0475
11555TIP3    H134608   6.377   5.571   5.555 -0.2672 -0.4236  0.5737
11555TIP3    H234609   6.360   5.420   5.552  0.1121 -0.4627 -1.6412
11556TIP3   OH234610   7.434   1.270   1.373 -0.1953  0.0014 -0.4403
11556TIP3    H134611   7.524   1.256   1.343 -0.7439 -0.2300 -2.0719
11556TIP3    H234612   7.414   1.191   1.425  0.3498 -0.2163 -0.5534
11557TIP3   OH234613   4.573   5.879   2.106  0.1357  0.1212  0.2754
11557TIP3    H134614   4.568   5.784   2.117  1.2372 -0.1390 -1.2200
11557TIP3    H234615   4.667   5.897   2.101 -0.0411  1.3894  1.1955
11558TIP3   OH234616   4.167   3.765   0.269 -0.0308  0.2944  0.4652
11558TIP3    H134617   4.132   3.812   0.345 -3.3586  0.8128 -1.2000
11558TIP3    H234618   4.156   3.673   0.291  0.3237  0.3973  1.1220
11559TIP3   OH234619   7.880   1.394   1.953 -0.2643 -0.3754  0.5169
11559TIP3    H134620   7.835   1.326   1.902  1.6931 -1.2723 -0.1380
11559TIP3    H234621   7.945   1.346   2.004  1.1108  0.9690  0.1047
11560TIP3   OH234622   6.082   0.098   4.838 -0.1161  0.9452  0.1086
11560TIP3    H134623   6.175   0.093   4.858 -0.0684 -0.9737 -0.4170
11560TIP3    H234624   6.075   0.169   4.774  1.3186 -0.2858 -1.4868
11561TIP3   OH234625   3.413   2.251   6.471 -0.3848  0.5651  0.1544
11561TIP3    H134626   3.478   2.197   6.515 -0.1073  0.2293 -0.6488
11561TIP3    H234627   3.356   2.188   6.427 -0.6341  0.8943  0.0020
11562TIP3   OH234628   6.944   1.837   3.447  0.1440  0.1267 -0.1184
11562TIP3    H134629   6.990   1.915   3.478  1.6689 -0.9120  0.3395
11562TIP3    H234630   6.985   1.817   3.363 -0.4316 -0.0248 -0.3650
11563TIP3   OH234631   2.976   2.882   2.314 -0.3995  0.2942 -0.1888
11563TIP3    H134632   2.905   2.851   2.257 -2.1752  0.5405  1.7701
11563TIP3    H234633   3.011   2.803   2.354 -1.6321  0.3466  1.0847
11564TIP3   OH234634   7.651   1.857   5.807  0.1864  0.3587  0.4171
11564TIP3    H134635   7.591   1.870   5.734  0.8186  0.5311 -0.0692
11564TIP3    H234636   7.731   1.824   5.768  0.1513 -0.6684  1.1499
11565TIP3   OH234637   2.238   1.322   2.613 -0.3811 -0.2167  0.2488
11565TIP3    H134638   2.243   1.259   2.684 -1.1336  0.8112  1.2488
11565TIP3    H234639   2.292   1.396   2.643  0.0885 -0.1640 -0.6798
11566TIP3   OH234640   4.305   3.604   2.723  0.3706  0.5170 -0.4097
11566TIP3    H134641   4.393   3.568   2.719  0.5385  0.8465  0.1455
11566TIP3    H234642   4.248   3.529   2.743  0.7179  0.5472  0.7708
11567TIP3   OH234643   5.123   7.787   3.352  0.4145  0.0597 -0.2482
11567TIP3    H134644   5.182   7.816   3.421  0.2331  0.3461 -0.2117
11567TIP3    H234645   5.138   7.692   3.346  0.7902  0.1109 -0.1610
11568TIP3   OH234646   6.310   3.782   1.874 -0.4936  0.0831 -0.3901
11568TIP3    H134647   6.255   3.756   1.800  0.0423  0.0020 -0.7749
11568TIP3    H234648   6.366   3.851   1.838  0.7540 -0.9312 -0.4790
11569TIP3   OH234649   2.429   4.443   1.217  0.3032  0.7121 -0.7535
11569TIP3    H134650   2.390   4.526   1.245 -0.5925  0.3989 -1.0435
11569TIP3    H234651   2.361   4.401   1.164  0.7213 -0.2490 -0.5467
11570TIP3   OH234652   7.322   1.660   6.743 -0.1121 -0.4877 -0.0385
11570TIP3    H134653   7.271   1.593   6.697 -0.0239 -0.7379  0.2260
11570TIP3    H234654   7.323   1.630   6.834  2.5118 -1.7415 -0.4052
11571TIP3   OH234655   7.511   1.575   1.856 -0.3846 -0.1929  0.0762
11571TIP3    H134656   7.547   1.504   1.909  0.0201 -1.1106 -1.3786
11571TIP3    H234657   7.542   1.655   1.899  0.8059 -0.9240  0.6406
11572TIP3   OH234658   4.018   0.129   0.323  0.3639 -0.7008  0.2408
11572TIP3    H134659   4.093   0.081   0.288  0.2434 -0.2781 -0.6200
11572TIP3    H234660   3.993   0.188   0.253  0.6652  0.8205  1.3520
11573TIP3   OH234661   1.129   2.753   6.378 -0.2374 -0.9447 -0.3522
11573TIP3    H134662   1.163   2.738   6.466  0.5635 -0.6696 -0.6051
11573TIP3    H234663   1.175   2.831   6.348 -0.3623 -1.1501 -1.0839
11574TIP3   OH234664   4.098   6.648   2.992 -0.3402  0.2631  0.2775
11574TIP3    H134665   4.189   6.675   2.993 -0.6058  1.1736  1.1423
11574TIP3    H234666   4.049   6.725   3.020 -1.4123 -0.1076 -0.4850
11575TIP3   OH234667   7.585   5.981   3.084  0.3085 -0.2361  0.1207
11575TIP3    H134668   7.640   6.060   3.090 -0.2650  0.2971 -1.2410
11575TIP3    H234669   7.543   5.975   3.170  2.4502 -0.6600  1.2084
11576TIP3   OH234670   2.999   1.029   2.658  0.4048  0.3960  0.2026
11576TIP3    H134671   2.958   0.946   2.683 -2.0574  1.4625  0.0128
11576TIP3    H234672   3.093   1.010   2.655 -0.1131 -2.4686 -0.2513
11577TIP3   OH234673   4.218   3.436   4.327 -0.2579 -0.4385  0.0050
11577TIP3    H134674   4.171   3.502   4.277 -0.1917 -0.8125 -0.5600
11577TIP3    H234675   4.196   3.353   4.284  0.7482 -0.6378 -0.1525
11578TIP3   OH234676   3.788   1.484   1.245 -0.1634  0.6040  0.2254
11578TIP3    H134677   3.829   1.570   1.255 -1.2742  1.1445  0.3952
11578TIP3    H234678   3.741   1.490   1.162  0.6966 -0.2590 -0.3335
11579TIP3   OH234679   8.245   5.828   2.198  0.2306  0.2021  0.0460
11579TIP3    H134680   8.163   5.854   2.157 -0.8886 -1.7764  0.8915
11579TIP3    H234681   8.305   5.813   2.125 -0.2999  1.1512 -0.6064
11580TIP3   OH234682   6.238   4.506   3.428  0.1476 -0.8893 -0.6207
11580TIP3    H134683   6.307   4.439   3.423  1.4386  0.2541  0.7817
11580TIP3    H234684   6.256   4.563   3.353  0.8364 -0.5432 -0.2107
11581TIP3   OH234685   5.751   5.756   1.697 -0.3039  0.2625 -0.8271
11581TIP3    H134686   5.764   5.676   1.646 -1.6868  0.2851 -1.2408
11581TIP3    H234687   5.774   5.827   1.637 -0.6628  0.2407 -0.9887
11582TIP3   OH234688   5.706   2.205   2.929 -0.3909 -0.2469 -0.7674
11582TIP3    H134689   5.771   2.239   2.868 -0.8489  1.5868 -0.2993
11582TIP3    H234690   5.666   2.284   2.967 -1.0473 -1.3340  0.8837
11583TIP3   OH234691   6.568   4.862   6.629  0.9974 -0.1540  0.0163
11583TIP3    H134692   6.542   4.927   6.564  1.1558  0.8498  0.9373
11583TIP3    H234693   6.594   4.913   6.705 -1.7304 -1.3606  1.8750
11584TIP3   OH234694   7.808   1.855   1.806 -0.2154 -0.0129 -0.5401
11584TIP3    H134695   7.842   1.769   1.784  0.1253 -0.1046  0.3319
11584TIP3    H234696   7.727   1.862   1.754 -1.8109 -2.0270  1.4365
11585TIP3   OH234697   0.392   2.942   4.279  0.5580 -0.5104 -0.3282
11585TIP3    H134698   0.355   3.020   4.319  1.2030 -0.0791 -0.5630
11585TIP3    H234699   0.483   2.940   4.309  1.1684  0.0128 -2.0031
11586TIP3   OH234700   1.844   6.942   3.420  0.0289 -0.0579  0.3318
11586TIP3    H134701   1.835   6.864   3.474  1.7955 -0.0246  0.7417
11586TIP3    H234702   1.912   6.994   3.463 -0.4982  1.2991 -0.4073
11587TIP3   OH234703   0.209   1.857   4.132 -0.2386 -0.3261 -0.2681
11587TIP3    H134704   0.248   1.803   4.200  0.4612  0.2429 -0.2086
11587TIP3    H234705   0.220   1.947   4.163  1.4255  0.0487 -1.7977
11588TIP3   OH234706   0.113   4.346   4.627  0.0157 -0.2067 -0.2762
11588TIP3    H134707   0.184   4.303   4.674 -0.2275 -0.6768 -0.3315
11588TIP3    H234708   0.156   4.412   4.573  0.2054  1.0599  1.3702
11589TIP3   OH234709   0.574   5.122   5.707  0.0429 -0.4276 -0.2121
11589TIP3    H134710   0.627   5.047   5.680  1.2814 -0.2144  1.4253
11589TIP3    H234711   0.630   5.169   5.769 -1.9295  0.0173  1.3543
11590TIP3   OH234712   0.059   0.430   3.281  0.5022 -0.7388  0.0503
11590TIP3    H134713  -0.029   0.426   3.243  1.7643 -2.6782 -3.1078
11590TIP3    H234714   0.097   0.511   3.246  0.7312 -1.1216 -0.6138
11591TIP3   OH234715   2.998   5.485   0.884 -0.4927 -0.6335 -0.0986
11591TIP3    H134716   2.967   5.506   0.972  0.3115 -1.4425  0.3938
11591TIP3    H234717   3.077   5.538   0.873 -0.7966 -0.2486 -0.4950
11592TIP3   OH234718   5.864   3.129   1.351  0.1740  0.2572  0.0303
11592TIP3    H134719   5.943   3.171   1.318 -0.3241  2.7341  1.6669
11592TIP3    H234720   5.872   3.134   1.446 -1.2635 -0.8380  0.2454
11593TIP3   OH234721   1.318   4.842   3.060 -0.0411  0.4104 -0.0284
11593TIP3    H134722   1.409   4.833   3.087  0.5671  1.6024 -1.4931
11593TIP3    H234723   1.275   4.764   3.094  1.7226 -0.6325 -0.0610
11594TIP3   OH234724   4.702   3.300   0.718  0.3075 -0.1697 -0.4293
11594TIP3    H134725   4.628   3.244   0.695  0.2181 -0.3311  0.2241
11594TIP3    H234726   4.724   3.274   0.808  1.2662 -0.2493 -0.6745
11595TIP3   OH234727   3.713   0.868   2.575  0.4577  0.4513  0.2399
11595TIP3    H134728   3.793   0.838   2.618  1.3702 -2.1472 -2.8733
11595TIP3    H234729   3.663   0.788   2.558  0.0422  1.2371 -3.0351
11596TIP3   OH234730   4.879   6.209   5.922  0.1383  0.1000 -0.2258
11596TIP3    H134731   4.970   6.223   5.898  1.0909 -1.5345  2.0764
11596TIP3    H234732   4.875   6.118   5.951 -2.0656  0.3210  0.3900
11597TIP3   OH234733   5.195   2.585   6.305 -0.3313 -0.2296 -0.2500
11597TIP3    H134734   5.175   2.526   6.378 -0.6159  0.1287 -0.0342
11597TIP3    H234735   5.252   2.652   6.343 -1.4911  0.6694 -0.0376
11598TIP3   OH234736   4.629   5.791   5.479 -0.1371 -0.2379 -0.0309
11598TIP3    H134737   4.710   5.823   5.440 -1.2640  2.7578 -0.1763
11598TIP3    H234738   4.596   5.727   5.416  1.9338 -1.3502 -0.0811
11599TIP3   OH234739   4.258   7.011   2.579  0.1446  0.2230 -0.2045
11599TIP3    H134740   4.316   7.051   2.644  0.5556  0.3740 -0.6602
11599TIP3    H234741   4.240   6.924   2.614  0.6811  0.1603 -0.0744
11600TIP3   OH234742   0.652   7.203   2.791  0.3163  0.3013  0.1064
11600TIP3    H134743   0.623   7.180   2.703 -0.2632  1.6555 -0.0884
11600TIP3    H234744   0.747   7.193   2.788  0.1350 -1.9186  0.0497
11601TIP3   OH234745   0.096   0.400   1.398  0.4977  0.1168 -0.1038
11601TIP3    H134746   0.185   0.367   1.406  0.1204 -1.1169 -0.7592
11601TIP3    H234747   0.047   0.356   1.467 -0.0084 -0.7124 -0.9748
11602TIP3   OH234748   5.744   2.556   6.460 -0.1491  0.3160  0.2857
11602TIP3    H134749   5.720   2.534   6.550 -0.0853 -0.6991  0.0705
11602TIP3    H234750   5.801   2.633   6.469 -0.4815  0.4840  1.0749
11603TIP3   OH234751   0.761   5.152   4.429 -0.2582  0.5883 -0.2594
11603TIP3    H134752   0.749   5.098   4.508 -0.4562  0.2778 -0.4977
11603TIP3    H234753   0.675   5.192   4.414 -0.2127  0.6700 -0.3014
11604TIP3   OH234754   7.847   3.286   2.518  0.3400  0.3329 -0.2758
11604TIP3    H134755   7.812   3.293   2.429 -1.9495  0.4463  0.5626
11604TIP3    H234756   7.938   3.261   2.506 -0.0704 -0.2749 -2.6444
11605TIP3   OH234757   7.033   5.262   5.087  0.5230  0.5778  0.4439
11605TIP3    H134758   7.077   5.222   5.012  0.4069  0.7995  0.2575
11605TIP3    H234759   7.044   5.198   5.158  0.4403  0.2640  0.1798
11606TIP3   OH234760   2.011   5.316   0.602  0.0247 -0.1319 -0.7831
11606TIP3    H134761   1.979   5.226   0.605 -0.4562  0.0600  0.0789
11606TIP3    H234762   2.080   5.319   0.668 -0.2199  0.2287 -0.5430
11607TIP3   OH234763   6.889   4.378   4.752 -0.0924 -0.4016  0.3491
11607TIP3    H134764   6.865   4.427   4.673 -0.8709 -1.9772 -0.4223
11607TIP3    H234765   6.985   4.373   4.748 -0.1124 -0.3344 -0.4132
11608TIP3   OH234766   2.743   0.924   6.524 -0.2623  0.4102  0.0766
11608TIP3    H134767   2.661   0.935   6.476  0.0310 -0.7753 -0.7394
11608TIP3    H234768   2.769   0.834   6.507  0.9576  0.6164  0.7295
11609TIP3   OH234769   1.511   2.291   0.020 -0.3456  0.2518 -0.1489
11609TIP3    H134770   1.485   2.383   0.008  0.5752  0.5530  0.0935
11609TIP3    H234771   1.566   2.291   0.098 -0.8480 -0.6184  0.2208
11610TIP3   OH234772   0.547   2.564   5.317  0.0637 -0.2297  0.3647
11610TIP3    H134773   0.539   2.659   5.324  0.4597 -0.2096  0.5789
11610TIP3    H234774   0.605   2.550   5.242 -0.9502 -0.3410 -0.4251
11611TIP3   OH234775   0.980   1.566   4.859  0.2582 -0.1054  0.2359
11611TIP3    H134776   0.989   1.556   4.765  0.2802 -0.8877  0.3138
11611TIP3    H234777   1.035   1.497   4.896  1.3586  1.0726  0.8505
11612TIP3   OH234778   1.874   0.703   1.175 -0.0019 -0.4852 -0.2555
11612TIP3    H134779   1.781   0.725   1.165  0.1344 -0.0308 -0.5078
11612TIP3    H234780   1.877   0.608   1.162 -0.3429 -0.4156 -0.8544
11613TIP3   OH234781   2.911   7.258   6.091 -0.1167 -0.1263 -0.2515
11613TIP3    H134782   2.915   7.349   6.061  0.0837  0.0773  0.3621
11613TIP3    H234783   2.999   7.224   6.077 -0.0526 -0.0643 -0.0129
11614TIP3   OH234784   4.940   3.008   5.997 -0.2653 -0.5447 -0.2580
11614TIP3    H134785   4.850   2.977   5.986 -0.2495 -0.0447 -1.9924
11614TIP3    H234786   4.969   3.031   5.909  1.0049  0.8814  0.4864
11615TIP3   OH234787   4.173   0.037   2.248 -0.0753  1.1045  0.1356
11615TIP3    H134788   4.096   0.070   2.294  0.0780  2.3962 -0.5015
11615TIP3    H234789   4.139  -0.027   2.185 -0.4280  0.4097  1.0075
11616TIP3   OH234790   0.878   4.197   6.078  0.1337  0.1121 -0.0553
11616TIP3    H134791   0.897   4.196   6.171  0.3560 -1.6847 -0.0741
11616TIP3    H234792   0.955   4.238   6.038 -0.4916  2.0131  0.6131
11617TIP3   OH234793   5.756   4.777   4.185 -0.0496  0.1766 -0.3208
11617TIP3    H134794   5.661   4.767   4.190  0.1650 -1.6212  1.8408
11617TIP3    H234795   5.779   4.827   4.263  0.6956  1.8091 -1.5446
11618TIP3   OH234796   6.305   3.533   2.008  0.0645 -0.1866 -0.0540
11618TIP3    H134797   6.344   3.519   2.094 -1.6725 -1.5686  0.5787
11618TIP3    H234798   6.333   3.621   1.983 -0.1494  0.6510  2.3658
11619TIP3   OH234799   7.193   3.737   1.914  0.0499 -0.0847  0.0767
11619TIP3    H134800   7.101   3.734   1.885  0.0651  0.7324 -0.0590
11619TIP3    H234801   7.243   3.712   1.837 -0.0283 -0.0816  0.0245
11620TIP3   OH234802   2.354   5.222   5.900  0.1821 -0.4826 -0.3163
11620TIP3    H134803   2.272   5.257   5.937 -1.2558 -0.8009 -2.9362
11620TIP3    H234804   2.368   5.274   5.820  2.6108 -0.4095  0.0899
11621TIP3   OH234805   5.195   6.347   1.628  0.5905 -0.5512 -0.3792
11621TIP3    H134806   5.153   6.271   1.587 -0.1104 -0.4692  0.1700
11621TIP3    H234807   5.285   6.318   1.644  0.5950 -0.9330 -1.0414
11622TIP3   OH234808   8.115   6.256   3.590  0.2567  0.3829  0.1506
11622TIP3    H134809   8.140   6.344   3.563  0.9419  0.6119  1.4446
11622TIP3    H234810   8.197   6.208   3.597  0.2538  0.5957  2.5920
11623TIP3   OH234811   7.553   0.217   4.518  0.5820 -0.2659  0.1686
11623TIP3    H134812   7.616   0.240   4.449 -0.0719 -0.6455 -0.5718
11623TIP3    H234813   7.599   0.153   4.572  1.1031  0.0287  0.0836
11624TIP3   OH234814   7.109   5.021   3.158  0.1814  0.4752  0.6117
11624TIP3    H134815   7.140   5.040   3.246  1.2430  0.0252  0.3457
11624TIP3    H234816   7.014   5.030   3.164 -0.1204 -2.5086  2.5844
11625TIP3   OH234817   3.196   7.240   5.602 -0.1166 -0.1034 -0.0446
11625TIP3    H134818   3.266   7.265   5.662 -0.3901  0.8352 -0.0967
11625TIP3    H234819   3.210   7.147   5.587  1.6720  0.2178 -0.7550
11626TIP3   OH234820   6.404   2.182   4.040  0.1837  0.2013 -0.1422
11626TIP3    H134821   6.470   2.156   4.105 -0.1416 -3.2801 -0.9700
11626TIP3    H234822   6.445   2.162   3.956 -1.3323 -0.5850 -0.7385
11627TIP3   OH234823   2.067   0.066   1.072  0.0245  0.3465  0.0367
11627TIP3    H134824   2.079   0.035   0.982 -0.8251 -2.1167  0.6921
11627TIP3    H234825   2.156   0.080   1.105  0.5531 -2.2675 -0.0849
11628TIP3   OH234826   4.820   1.477   1.500  0.4071  0.0653 -0.3979
11628TIP3    H134827   4.909   1.467   1.535  0.2860 -0.3875 -0.2051
11628TIP3    H234828   4.820   1.427   1.419  0.0259 -0.8462  0.1539
11629TIP3   OH234829   6.845   5.886   6.227  0.3796  0.3611 -0.1413
11629TIP3    H134830   6.891   5.969   6.242  0.0051  0.2054  2.3310
11629TIP3    H234831   6.893   5.845   6.155  2.1579  1.5917  0.2698
11630TIP3   OH234832   2.152   3.738   0.932 -0.0589  0.1448 -0.0084
11630TIP3    H134833   2.062   3.709   0.922  0.2186 -1.0910  0.8352
11630TIP3    H234834   2.199   3.698   0.859 -0.0261  0.0486  0.0658
11631TIP3   OH234835   6.973   1.752   2.914  0.0457  0.0807  0.2071
11631TIP3    H134836   7.067   1.769   2.907  0.2189 -1.3753 -1.7839
11631TIP3    H234837   6.933   1.816   2.854 -0.1424 -0.0097  0.2367
11632TIP3   OH234838   5.970   5.846   6.466 -0.9290  0.6266 -0.5988
11632TIP3    H134839   5.994   5.938   6.459 -0.9730  0.5889 -1.3590
11632TIP3    H234840   5.874   5.846   6.472 -1.0612  0.5713 -2.2572
11633TIP3   OH234841   5.534   3.510   2.892 -0.1411 -0.3427  0.3125
11633TIP3    H134842   5.439   3.518   2.882 -0.3539  0.2130  2.3370
11633TIP3    H234843   5.569   3.526   2.804 -1.7993  1.7036 -0.0569
11634TIP3   OH234844   3.028   4.549   0.885 -0.4525  0.1483  0.3531
11634TIP3    H134845   2.954   4.595   0.925 -1.3010 -1.3939  0.6006
11634TIP3    H234846   3.014   4.457   0.906  1.4133 -0.2110  0.1914
11635TIP3   OH234847   4.531   4.409   4.725  0.4596  0.9297  0.2158
11635TIP3    H134848   4.565   4.471   4.661  1.4853  0.4479  0.2729
11635TIP3    H234849   4.606   4.388   4.780  0.5179 -1.3741 -0.6172
11636TIP3   OH234850   4.253   2.115   1.540 -0.5491  0.2713  0.2602
11636TIP3    H134851   4.171   2.115   1.590 -0.5700  0.0616  0.2251
11636TIP3    H234852   4.301   2.039   1.573 -1.1116 -0.6404 -0.9527
11637TIP3   OH234853   8.041   0.655   2.462 -0.0534  0.3279 -0.1917
11637TIP3    H134854   8.104   0.691   2.400 -0.9782  1.0030 -0.7566
11637TIP3    H234855   7.976   0.611   2.409  1.7168 -3.5422  0.4981
11638TIP3   OH234856   7.076   3.721   6.615 -0.7834 -0.3858 -0.0189
11638TIP3    H134857   7.020   3.798   6.628  0.6443  0.4773  1.3942
11638TIP3    H234858   7.023   3.647   6.644 -1.3596  0.3495  0.8543
11639TIP3   OH234859   5.382   7.042   3.612 -0.4254  0.0770 -0.8057
11639TIP3    H134860   5.436   7.122   3.611  0.8292 -0.6280  1.7445
11639TIP3    H234861   5.445   6.971   3.605 -1.0369 -0.7568  1.3645
11640TIP3   OH234862   3.702   1.916   6.764 -0.1429 -0.3901  0.2120
11640TIP3    H134863   3.758   1.881   6.833 -2.3518 -0.2359  2.2131
11640TIP3    H234864   3.673   1.839   6.715  0.8430 -0.5722 -0.1175
11641TIP3   OH234865   6.587   2.498   3.501  0.1887 -0.3799 -0.9357
11641TIP3    H134866   6.509   2.552   3.512  1.2395  1.4597 -1.9710
11641TIP3    H234867   6.576   2.457   3.415 -0.2641 -1.2663 -0.4693
11642TIP3   OH234868   2.022   2.437   1.333 -0.5977  0.3113  0.0347
11642TIP3    H134869   2.102   2.404   1.374 -0.7211 -1.4728 -1.0359
11642TIP3    H234870   1.957   2.435   1.404  0.1373  1.2175  0.7626
11643TIP3   OH234871   4.028   1.863   3.217 -0.0034 -0.5621 -0.9389
11643TIP3    H134872   4.004   1.771   3.202 -0.4173 -0.5349 -0.4669
11643TIP3    H234873   4.007   1.878   3.309  2.5531 -0.7497 -0.2413
11644TIP3   OH234874   5.549   1.775   3.963  0.2718 -0.2395  0.2658
11644TIP3    H134875   5.624   1.834   3.956 -0.1253  0.2609  0.1528
11644TIP3    H234876   5.563   1.728   4.045 -0.0649  0.9688  1.0493
11645TIP3   OH234877   0.409   6.901   0.210 -0.9376 -0.4321 -0.2647
11645TIP3    H134878   0.336   6.950   0.248 -0.9846  0.2398 -1.2031
11645TIP3    H234879   0.444   6.958   0.142 -0.1060 -1.1291 -0.4397
11646TIP3   OH234880   7.722   4.276   1.088  0.0507 -0.1756 -0.4473
11646TIP3    H134881   7.753   4.352   1.137  2.8262 -1.3568 -0.1596
11646TIP3    H234882   7.653   4.239   1.143  1.2133  0.0712  1.2756
11647TIP3   OH234883   2.422   0.992   3.944  0.1873  1.1434  0.0340
11647TIP3    H134884   2.358   1.008   4.014 -0.2008  0.9175 -0.2672
11647TIP3    H234885   2.377   1.022   3.864  0.2246  0.4219 -0.2623
11648TIP3   OH234886   1.447   2.268   1.093  0.1381 -0.7866  0.0044
11648TIP3    H134887   1.461   2.185   1.048  1.8132 -1.1943  1.1535
11648TIP3    H234888   1.444   2.244   1.186  1.9154  0.5448  0.4497
11649TIP3   OH234889   5.527   0.678   1.989 -0.2126 -0.3772 -0.2482
11649TIP3    H134890   5.546   0.761   1.945 -0.7854 -1.0299 -1.8191
11649TIP3    H234891   5.607   0.626   1.981  0.0214 -0.1221  0.4013
11650TIP3   OH234892   0.980   3.490   3.150  0.1994  0.4001  0.2083
11650TIP3    H134893   0.929   3.500   3.069  0.1271  1.2266  0.3429
11650TIP3    H234894   0.942   3.414   3.193  0.2279 -0.0390 -0.5272
11651TIP3   OH234895   2.357   1.835   1.205 -0.4744  0.1307 -0.0968
11651TIP3    H134896   2.402   1.815   1.122 -0.5965  0.7297 -0.3123
11651TIP3    H234897   2.400   1.914   1.238  0.0079 -0.4804  0.7499
11652TIP3   OH234898   6.350   1.539   0.349  0.1519 -0.3945  0.2669
11652TIP3    H134899   6.337   1.581   0.434  0.0832 -0.8795  0.5026
11652TIP3    H234900   6.354   1.445   0.369  1.3999 -0.4455 -0.1063
11653TIP3   OH234901   3.434   4.952   3.609  0.4131  0.3250  0.0362
11653TIP3    H134902   3.502   4.998   3.560  0.3446  0.1317 -0.2464
11653TIP3    H234903   3.446   4.860   3.587 -0.7336  0.4062 -1.0489
11654TIP3   OH234904   3.827   5.988   0.705  0.4167 -0.6316  0.8542
11654TIP3    H134905   3.786   6.039   0.774  1.2667  1.2656  0.0502
11654TIP3    H234906   3.892   5.934   0.750  0.7875  0.3884  1.5759
11655TIP3   OH234907   0.689   7.113   1.111 -0.6581 -0.3058  0.4212
11655TIP3    H134908   0.633   7.036   1.121  0.2404 -0.7310  2.6603
11655TIP3    H234909   0.639   7.184   1.153 -1.7498  0.5787 -2.1372
11656TIP3   OH234910   4.285   1.435   2.098 -0.2057  0.7901  0.0457
11656TIP3    H134911   4.291   1.491   2.175 -0.8206 -0.0636  0.7256
11656TIP3    H234912   4.243   1.356   2.129  1.8109 -0.6135 -0.5917
11657TIP3   OH234913   1.619   2.598   0.825 -0.0905  0.3926  0.4701
11657TIP3    H134914   1.534   2.642   0.818  0.3104  1.1931  0.4510
11657TIP3    H234915   1.678   2.666   0.858  0.0472 -0.7824  2.8990
11658TIP3   OH234916   0.485   6.136   0.769  0.0965 -0.7638  0.7360
11658TIP3    H134917   0.460   6.044   0.774 -0.7014 -0.5778  0.2898
11658TIP3    H234918   0.444   6.169   0.689  0.1951  0.0312  0.9952
11659TIP3   OH234919   8.049   2.893   2.145 -0.0405  0.2682 -0.4048
11659TIP3    H134920   8.091   2.965   2.099  3.7632 -2.3984 -1.5635
11659TIP3    H234921   8.023   2.931   2.230  0.5550  3.2349 -1.4289
11660TIP3   OH234922   8.075   7.660   6.055 -0.9194  0.3217  0.3369
11660TIP3    H134923   7.991   7.664   6.009  0.1967  1.6055 -1.7340
11660TIP3    H234924   8.121   7.586   6.015  0.2766  1.7811 -1.0933
11661TIP3   OH234925   7.210   2.994   1.432 -0.0808 -0.1084 -0.3878
11661TIP3    H134926   7.207   3.083   1.396  1.1082  0.7901  1.6163
11661TIP3    H234927   7.138   2.948   1.388 -0.2610  1.6013 -2.0065
11662TIP3   OH234928   5.117   5.727   3.191 -0.0492  0.4070 -0.2089
11662TIP3    H134929   5.141   5.820   3.187  0.4616  0.3411  1.0022
11662TIP3    H234930   5.168   5.692   3.264  1.2965 -1.3087 -1.8876
11663TIP3   OH234931   4.073   7.514   3.053 -0.5374 -0.0070  0.3122
11663TIP3    H134932   4.085   7.521   3.148  0.2105 -2.1285  0.4164
11663TIP3    H234933   4.160   7.528   3.016 -0.4454 -1.1035  0.0870
11664TIP3   OH234934   2.089   2.982   4.268  0.3160  0.0977  0.7643
11664TIP3    H134935   1.997   2.971   4.294 -0.2235  1.7827 -0.2245
11664TIP3    H234936   2.111   3.070   4.299 -0.3455  2.2692 -4.0466
11665TIP3   OH234937   7.140   1.116   5.890  0.4565 -0.0605  0.1455
11665TIP3    H134938   7.116   1.168   5.967 -0.6161  2.4756 -1.7742
11665TIP3    H234939   7.233   1.133   5.878  0.3254  0.6631  0.0987
11666TIP3   OH234940   6.546   4.613   4.640  0.0635 -0.4961  1.0634
11666TIP3    H134941   6.553   4.576   4.728  0.6525  1.0505  1.7041
11666TIP3    H234942   6.462   4.658   4.640  0.3746  0.0873  1.0725
11667TIP3   OH234943   4.498   3.772   1.057  0.2241  0.1078 -0.5779
11667TIP3    H134944   4.571   3.743   1.111  1.1061  1.5161 -0.9643
11667TIP3    H234945   4.450   3.833   1.113 -1.4500 -1.7637  0.1320
11668TIP3   OH234946   2.722   0.681   1.238  0.0122  0.6428  0.0259
11668TIP3    H134947   2.717   0.586   1.236 -1.4045  0.7079 -0.3491
11668TIP3    H234948   2.722   0.708   1.146  1.8671  0.9736  0.0845
11669TIP3   OH234949   3.233   4.990   4.543 -0.4899 -0.1454  0.1669
11669TIP3    H134950   3.158   4.963   4.490 -2.0808  0.9289  1.7098
11669TIP3    H234951   3.198   4.993   4.633  1.2703  0.8658  0.8700
11670TIP3   OH234952   3.341   2.853   2.294  0.1468 -0.5945  0.2921
11670TIP3    H134953   3.260   2.896   2.268  0.8570  0.3265 -0.4940
11670TIP3    H234954   3.403   2.874   2.224  2.9256  4.1488  3.5495
11671TIP3   OH234955   1.530   4.554   5.428 -0.1290  0.7426  0.2249
11671TIP3    H134956   1.531   4.580   5.521 -3.3964  2.4891 -0.0778
11671TIP3    H234957   1.578   4.624   5.384 -0.2725  0.9435  0.3862
11672TIP3   OH234958   3.225   0.765   0.560  0.2891 -0.1395 -0.0811
11672TIP3    H134959   3.284   0.759   0.635 -0.5902  0.1361  0.6648
11672TIP3    H234960   3.273   0.816   0.495  1.1189 -0.4902  0.2475
11673TIP3   OH234961   5.247   0.598   1.123 -0.0001 -0.0249 -0.1416
11673TIP3    H134962   5.172   0.548   1.089 -0.0338  0.4069 -0.7161
11673TIP3    H234963   5.213   0.687   1.133  0.5198  0.2418 -0.6977
11674TIP3   OH234964  -0.007   0.338   1.170  0.0396  0.3681  0.1749
11674TIP3    H134965  -0.014   0.246   1.196  1.7594  0.1423 -0.0507
11674TIP3    H234966   0.036   0.381   1.244  0.8551  0.6135 -0.4226
11675TIP3   OH234967   7.324   2.575   0.652 -0.4305  0.2328 -1.0069
11675TIP3    H134968   7.391   2.618   0.705 -0.1726  2.1134 -2.7202
11675TIP3    H234969   7.343   2.482   0.659  2.5007  0.7080 -1.5623
11676TIP3   OH234970   5.837   5.089   1.999 -0.2297  0.1037  0.7737
11676TIP3    H134971   5.795   5.146   2.063  0.4238 -0.7349  1.9809
11676TIP3    H234972   5.849   5.005   2.045 -2.0811 -1.3775 -1.2497
11677TIP3   OH234973   0.815   6.566   2.813 -0.6479  0.1354 -0.0596
11677TIP3    H134974   0.812   6.581   2.907  1.1905 -1.9824  0.4200
11677TIP3    H234975   0.732   6.523   2.793 -0.7783  0.0041  0.7333
11678TIP3   OH234976   0.260   0.098   4.237 -0.1709  0.0685 -0.6772
11678TIP3    H134977   0.259   0.180   4.288 -1.4647 -0.3005 -0.0571
11678TIP3    H234978   0.344   0.058   4.258 -0.8112 -0.2547  1.5435
11679TIP3   OH234979   5.990   4.158   4.840  0.3907 -0.1981 -0.0261
11679TIP3    H134980   5.954   4.100   4.907  1.4852 -2.6400 -1.3908
11679TIP3    H234981   5.995   4.103   4.762  2.8279  1.3416 -1.0633
11680TIP3   OH234982   7.970   6.974   5.462 -0.0508 -0.3439 -0.6079
11680TIP3    H134983   7.980   7.068   5.445  0.8192 -0.4362 -0.6417
11680TIP3    H234984   8.052   6.935   5.431 -0.0623 -1.0107  0.1620
11681TIP3   OH234985   4.352   2.384   0.847 -0.3677  0.2573  0.2109
11681TIP3    H134986   4.264   2.369   0.880 -0.7969  0.7954 -0.6496
11681TIP3    H234987   4.400   2.304   0.871 -1.3994 -0.5574 -0.3350
11682TIP3   OH234988   2.025   2.139   4.197  0.1304 -0.5313 -0.4725
11682TIP3    H134989   2.060   2.204   4.137 -0.6159  0.4264  0.1051
11682TIP3    H234990   2.101   2.108   4.247  0.4384  0.1516 -0.5132
11683TIP3   OH234991   4.948   4.574   1.996  0.4717  0.2377  0.0059
11683TIP3    H134992   5.020   4.559   1.935  0.7927  1.6262  0.0104
11683TIP3    H234993   4.979   4.644   2.053 -0.9462  0.9911 -0.0956
11684TIP3   OH234994   2.056   5.997   3.812 -0.0489 -0.5703  0.1863
11684TIP3    H134995   1.988   5.960   3.756 -0.6220 -1.6343  1.5382
11684TIP3    H234996   2.051   6.091   3.796  0.0871 -0.8585 -1.8253
11685TIP3   OH234997   0.361   7.286   2.858  0.4399  0.4809  0.3676
11685TIP3    H134998   0.422   7.214   2.844  0.5147  0.8252 -1.1863
11685TIP3    H234999   0.322   7.268   2.944  1.9337 -0.3075  0.9057
11686TIP3   OH235000   8.209   5.109   0.996 -0.1298  0.0884  0.2018
11686TIP3    H135001   8.166   5.188   1.029 -1.3228 -0.7254  0.6663
11686TIP3    H235002   8.137   5.050   0.974  0.7190 -1.4502  1.3049
11687TIP3   OH235003   4.754   0.324   4.209  0.3935 -0.1602 -0.3652
11687TIP3    H135004   4.754   0.277   4.292 -0.3504  1.8166  0.8242
11687TIP3    H235005   4.741   0.416   4.233  2.7069  0.8529 -2.4818
11688TIP3   OH235006   2.129   1.554   1.205 -0.1901  0.3020  0.4978
11688TIP3    H135007   2.184   1.559   1.127  0.4874  0.8139  0.9900
11688TIP3    H235008   2.115   1.460   1.219  0.5931  0.1567  0.3755
11689TIP3   OH235009   7.659   2.493   2.423  0.2699 -0.0182  0.6323
11689TIP3    H135010   7.716   2.567   2.445 -1.1678  1.3391  0.0268
11689TIP3    H235011   7.573   2.519   2.458 -0.6389 -0.6544 -1.0404
11690TIP3   OH235012   4.823   3.668   2.984  0.1103 -0.1313 -0.2598
11690TIP3    H135013   4.901   3.650   2.931 -0.3629  0.3054 -1.1475
11690TIP3    H235014   4.756   3.609   2.948  0.1806 -0.9293  0.8924
11691TIP3   OH235015   4.762   6.428   2.558  0.0815  0.2139 -0.5020
11691TIP3    H135016   4.698   6.357   2.557 -0.0624  0.3276  0.0556
11691TIP3    H235017   4.802   6.426   2.471  0.0109 -0.4837 -0.5239
11692TIP3   OH235018   6.067   4.585   5.207  0.4397 -0.0639 -0.5156
11692TIP3    H135019   6.085   4.575   5.114  1.9428 -0.8931 -0.1838
11692TIP3    H235020   6.070   4.495   5.241  1.2106  0.3382  0.5231
11693TIP3   OH235021   6.768   5.078   1.677  0.3180  0.2728 -0.0844
11693TIP3    H135022   6.793   5.160   1.634  1.6989 -1.0936 -2.0865
11693TIP3    H235023   6.746   5.020   1.605 -2.5308 -0.6101  1.3659
11694TIP3   OH235024   7.301   7.786   0.135  0.0892  0.0787  0.4193
11694TIP3    H135025   7.381   7.821   0.174 -0.0139  0.8184 -0.0251
11694TIP3    H235026   7.276   7.850   0.068  0.0338 -0.9674 -0.5867
11695TIP3   OH235027   5.973   3.652   6.042 -0.0845 -0.4816 -0.5473
11695TIP3    H135028   6.043   3.666   5.979 -1.5335 -0.1093 -2.1724
11695TIP3    H235029   5.899   3.623   5.989 -1.5771  0.4950  0.8867
11696TIP3   OH235030   1.645   2.204   3.600  0.1872  0.2490 -0.1475
11696TIP3    H135031   1.557   2.183   3.568  1.2613 -2.4430 -1.6809
11696TIP3    H235032   1.635   2.289   3.643 -3.0784  0.1894 -0.5118
11697TIP3   OH235033   7.748   7.649   5.937 -0.2356 -0.2000 -0.3275
11697TIP3    H135034   7.693   7.595   5.880 -1.6607 -0.1381  0.9367
11697TIP3    H235035   7.776   7.590   6.007 -0.0280  0.1876 -0.0822
11698TIP3   OH235036   1.825   5.853   6.208  1.0786 -0.3822  0.1369
11698TIP3    H135037   1.764   5.809   6.266  0.5890  0.8038  0.5411
11698TIP3    H235038   1.851   5.932   6.255 -0.1240  1.1673 -1.6308
11699TIP3   OH235039   4.552   3.735   3.824 -0.0198 -0.1296 -0.7143
11699TIP3    H135040   4.609   3.812   3.824 -0.3171  0.1004  0.2443
11699TIP3    H235041   4.511   3.735   3.738 -0.0420  0.8011 -0.7064
11700TIP3   OH235042   8.023   1.951   5.838 -0.3901  0.1295  0.0653
11700TIP3    H135043   8.099   1.939   5.896 -0.1135 -3.4469 -0.8064
11700TIP3    H235044   7.959   1.996   5.892  1.3357  0.7210  1.7584
11701TIP3   OH235045   2.199   5.211   4.843 -0.6081 -0.1111 -0.4830
11701TIP3    H135046   2.288   5.198   4.876 -1.1363  0.7613  1.3900
11701TIP3    H235047   2.207   5.201   4.748  1.5031  0.0794 -0.3672
11702TIP3   OH235048   6.996   6.065   3.454  0.2965 -0.1294 -0.0875
11702TIP3    H135049   7.069   6.067   3.393  1.0706 -1.9962  0.6899
11702TIP3    H235050   6.951   5.983   3.434  0.3335 -0.5827  1.5568
11703TIP3   OH235051   7.384   1.457   5.089  0.1416 -0.2096  0.1785
11703TIP3    H135052   7.355   1.406   5.014  1.0056 -1.5115  0.6803
11703TIP3    H235053   7.467   1.417   5.114  2.5265  3.3028 -1.2241
11704TIP3   OH235054   7.937   0.715   1.219 -0.1488 -0.1468  0.0304
11704TIP3    H135055   8.011   0.776   1.216 -0.6786  0.5678  0.8454
11704TIP3    H235056   7.976   0.629   1.201  1.0257  0.0821  1.3025
11705TIP3   OH235057   8.281   6.039   3.505 -0.1490  0.2795 -0.7357
11705TIP3    H135058   8.236   6.038   3.420 -2.2894  1.2070  0.3172
11705TIP3    H235059   8.363   5.993   3.489 -1.6554 -1.9419 -2.6903
11706TIP3   OH235060   3.889   1.019   5.083  0.5100  0.6103  0.2823
11706TIP3    H135061   3.836   0.946   5.052  1.6131  0.2595 -0.8360
11706TIP3    H235062   3.826   1.083   5.117 -0.5988  0.1348 -0.8552
11707TIP3   OH235063   6.599   6.196   6.252  0.0436 -0.2428  0.1470
11707TIP3    H135064   6.583   6.289   6.238  0.2827 -0.2911 -0.4553
11707TIP3    H235065   6.689   6.192   6.284 -0.4746 -0.1379  1.7356
11708TIP3   OH235066   2.478   0.385   5.850 -0.1942  0.4441  0.3704
11708TIP3    H135067   2.447   0.408   5.937 -2.3288 -0.6039 -0.0467
11708TIP3    H235068   2.468   0.290   5.845 -0.5489  0.5393 -1.1645
11709TIP3   OH235069   1.478   0.345   5.957  0.3020 -0.3184  0.6465
11709TIP3    H135070   1.521   0.261   5.942 -1.0835 -1.0099  0.4290
11709TIP3    H235071   1.548   0.409   5.949  1.2412 -1.3842  0.0465
11710TIP3   OH235072   6.583   3.873   5.027  0.1474 -0.2786  0.3456
11710TIP3    H135073   6.648   3.920   5.080 -0.3404  0.5869  0.1909
11710TIP3    H235074   6.536   3.818   5.091  0.7175 -0.5691  0.5267
11711TIP3   OH235075   5.385   0.271   2.240 -0.0453 -0.1680  0.1031
11711TIP3    H135076   5.348   0.354   2.211 -0.5682 -0.0233  1.1170
11711TIP3    H235077   5.474   0.271   2.206  0.2777  1.2550  0.8787
11712TIP3   OH235078   0.374   4.982   5.870 -0.2093  0.3329  0.2129
11712TIP3    H135079   0.452   5.004   5.819 -0.0653 -0.1910  0.2046
11712TIP3    H235080   0.302   4.991   5.808  0.0240 -0.8926 -0.2669
11713TIP3   OH235081   2.590   6.131   0.877  0.2927  0.9107  0.0362
11713TIP3    H135082   2.620   6.165   0.793  2.4227  1.0952  0.8312
11713TIP3    H235083   2.559   6.209   0.924 -0.2272  0.9084 -0.2958
11714TIP3   OH235084   7.411   6.714   1.751 -0.3083 -0.4965  0.5550
11714TIP3    H135085   7.463   6.637   1.727 -2.1022 -1.9276  0.9406
11714TIP3    H235086   7.341   6.715   1.685 -0.9873  0.0749  1.2786
11715TIP3   OH235087   7.780   1.398   4.759  0.0084 -0.4531 -0.5938
11715TIP3    H135088   7.847   1.351   4.811  0.5276 -0.1547 -0.9812
11715TIP3    H235089   7.783   1.487   4.792  1.4671  0.1473 -2.1554
11716TIP3   OH235090   3.718   0.080   2.733  0.3699 -0.2087 -0.0428
11716TIP3    H135091   3.634   0.040   2.711  0.4592 -1.2440  1.3404
11716TIP3    H235092   3.720   0.161   2.682 -0.9467 -0.7304 -0.9839
11717TIP3   OH235093   7.371   4.148   0.405  0.4326  0.6816  0.2835
11717TIP3    H135094   7.354   4.066   0.452  1.3455  0.0814 -0.3939
11717TIP3    H235095   7.382   4.122   0.314 -0.8653  1.7741 -0.2314
11718TIP3   OH235096   2.223   5.915   1.856  0.1669 -0.4993  0.4746
11718TIP3    H135097   2.280   5.976   1.808 -0.1835  0.3004  1.0483
11718TIP3    H235098   2.280   5.876   1.923  0.4277 -0.9157  0.0156
11719TIP3   OH235099   1.496   2.126   0.393  0.2969 -0.6029  0.6759
11719TIP3    H135100   1.429   2.063   0.367  1.0672 -1.1532 -0.0362
11719TIP3    H235101   1.514   2.105   0.485  0.2538 -1.1617  0.5619
11720TIP3   OH235102   4.577   1.304   4.360  0.5985  0.3021  0.0382
11720TIP3    H135103   4.597   1.214   4.386  1.1467 -0.1407 -1.7396
11720TIP3    H235104   4.494   1.298   4.314  1.3495  0.4070 -1.3979
11721TIP3   OH235105   7.956   0.598   3.840 -0.3340  0.0703 -0.7334
11721TIP3    H135106   7.879   0.603   3.783 -0.3170  0.4313 -0.7253
11721TIP3    H235107   8.009   0.673   3.814  0.7681 -1.0475 -1.8474
11722TIP3   OH235108   2.244   4.521   1.553 -0.1288 -0.0554  0.5777
11722TIP3    H135109   2.262   4.568   1.472 -1.1993  1.9497  1.4260
11722TIP3    H235110   2.300   4.562   1.618  0.3373 -1.2896  0.9800
11723TIP3   OH235111   2.497   0.122   5.882 -0.4058  0.3415  0.1510
11723TIP3    H135112   2.429   0.107   5.947 -0.6563  0.9862  0.0480
11723TIP3    H235113   2.471   0.072   5.806 -0.9017  0.7813  0.0252
11724TIP3   OH235114   2.716   1.957   5.350  0.0067  0.8685  0.4880
11724TIP3    H135115   2.771   2.009   5.408  0.2803  0.5180  0.5425
11724TIP3    H235116   2.775   1.924   5.283 -0.2399  0.9583  0.2248
11725TIP3   OH235117   1.131   6.942   0.238  0.3731 -0.3118  0.8204
11725TIP3    H135118   1.044   6.941   0.277  0.6376  1.1496  1.4957
11725TIP3    H235119   1.120   6.895   0.155 -0.9975 -0.3488  0.9959
11726TIP3   OH235120   0.598   2.847   4.050 -0.5204 -0.0441  0.6555
11726TIP3    H135121   0.527   2.860   3.987  0.5705 -1.3074 -0.9308
11726TIP3    H235122   0.650   2.927   4.045 -0.5418 -0.0639  0.0702
11727TIP3   OH235123   7.651   2.873   4.163  0.2788 -0.6898  0.6514
11727TIP3    H135124   7.708   2.949   4.172  0.4409 -0.7463  0.1508
11727TIP3    H235125   7.604   2.868   4.246 -0.5134  0.5992  0.3241
11728TIP3   OH235126   8.170   1.910   4.655 -0.3755 -0.5004  0.0191
11728TIP3    H135127   8.157   2.004   4.644 -1.7450 -0.4539  1.5599
11728TIP3    H235128   8.156   1.873   4.568  0.1258  0.6993 -0.5954
11729TIP3   OH235129   2.319   7.567   6.759  0.3885 -0.5371 -0.4858
11729TIP3    H135130   2.235   7.546   6.718  0.0105 -0.7713  0.3800
11729TIP3    H235131   2.379   7.500   6.727  0.5531  0.3120 -2.0320
11730TIP3   OH235132   1.232   6.269   0.084  0.1789 -0.6559 -0.2475
11730TIP3    H135133   1.268   6.192   0.127  2.9869  0.7245  0.0780
11730TIP3    H235134   1.236   6.248  -0.010 -0.9654 -1.6276 -0.0997
11731TIP3   OH235135   6.557   4.766   6.020  0.5985 -0.1566  0.0399
11731TIP3    H135136   6.649   4.767   6.047  1.1040 -2.1282 -1.3579
11731TIP3    H235137   6.509   4.754   6.102  1.5119  1.3490  0.8499
11732TIP3   OH235138   6.510   5.446   1.763  0.1232 -0.1270  0.2210
11732TIP3    H135139   6.604   5.461   1.777  0.0645 -0.6934  1.3733
11732TIP3    H235140   6.506   5.392   1.684  0.7897 -0.3142  0.3078
11733TIP3   OH235141   0.029   5.194   1.408  0.0266  0.0414  0.4103
11733TIP3    H135142   0.078   5.120   1.370 -0.0978  0.4777 -0.6371
11733TIP3    H235143   0.015   5.169   1.499 -0.5511 -1.5059 -0.0746
11734TIP3   OH235144   4.963   3.160   2.706 -0.1164  0.4853  0.5726
11734TIP3    H135145   5.047   3.173   2.750  0.5475 -1.1768 -0.1257
11734TIP3    H235146   4.897   3.188   2.771  0.9488  1.6582  1.1822
11735TIP3   OH235147   4.282   3.455   3.201 -0.1563  0.3161 -0.4825
11735TIP3    H135148   4.222   3.525   3.176  2.5898  2.7356 -0.6754
11735TIP3    H235149   4.275   3.451   3.296  0.4530  1.6073 -0.3777
11736TIP3   OH235150   6.905   0.529   2.459  0.7978 -0.0283 -0.4147
11736TIP3    H135151   6.827   0.541   2.404  1.8824  0.8706 -1.8296
11736TIP3    H235152   6.872   0.537   2.549 -0.3796  3.1634 -0.9779
11737TIP3   OH235153   8.192   7.803   0.296  0.0460 -0.1261 -0.0641
11737TIP3    H135154   8.221   7.763   0.377  1.6279 -0.7919 -0.9187
11737TIP3    H235155   8.272   7.828   0.251 -0.7724 -0.1439 -1.6101
11738TIP3   OH235156   4.836   4.698   3.189  0.3298  0.0812  0.2654
11738TIP3    H135157   4.796   4.613   3.171  0.0425  0.4264 -0.8020
11738TIP3    H235158   4.788   4.759   3.134  1.6928  0.6595 -0.3098
11739TIP3   OH235159   6.452   7.394   3.705 -0.0869  0.1868 -0.0911
11739TIP3    H135160   6.545   7.382   3.690 -0.2409 -1.6847  0.2523
11739TIP3    H235161   6.443   7.398   3.801 -0.4996 -1.2740 -0.0459
11740TIP3   OH235162   5.421   3.476   6.183  0.4798 -0.3455  0.6354
11740TIP3    H135163   5.490   3.506   6.124  0.0569 -1.0785 -0.2583
11740TIP3    H235164   5.450   3.390   6.213  0.4751 -0.1737  1.1337
11741TIP3   OH235165   2.629   2.941   4.172 -0.0720 -0.2117 -0.6883
11741TIP3    H135166   2.709   2.982   4.204 -1.1527  1.3933  0.1010
11741TIP3    H235167   2.585   2.909   4.251  0.3539 -2.2634 -1.2236
11742TIP3   OH235168   6.225   6.236   4.203  0.1124 -0.5909  0.2967
11742TIP3    H135169   6.145   6.264   4.247 -1.3780  0.1189 -2.6318
11742TIP3    H235170   6.201   6.155   4.158  1.0537 -0.4492 -0.5126
11743TIP3   OH235171   4.396   0.800   4.388 -0.0279 -0.4352  0.1802
11743TIP3    H135172   4.397   0.806   4.292 -0.6951 -1.5663  0.1000
11743TIP3    H235173   4.467   0.739   4.409 -1.2147 -1.8375  0.2629
11744TIP3   OH235174   3.709   6.501   4.915  0.2019 -0.0311  0.3986
11744TIP3    H135175   3.754   6.432   4.963  0.7369 -0.1341 -0.2425
11744TIP3    H235176   3.659   6.548   4.982  1.2035  0.0453  1.1165
11745TIP3   OH235177   6.638   4.199   0.265  0.1553 -0.3431 -0.1095
11745TIP3    H135178   6.668   4.173   0.351  0.2712  0.0743 -0.0194
11745TIP3    H235179   6.691   4.147   0.204  0.7112  0.0143  0.0558
11746TIP3   OH235180   0.347   0.363   2.836  0.0408  0.8741  0.7620
11746TIP3    H135181   0.327   0.453   2.810 -0.6411  0.5093 -0.0257
11746TIP3    H235182   0.270   0.334   2.885 -0.1102  0.4454  0.2854
11747TIP3   OH235183   1.073   2.566   2.590  0.2427 -0.3119  0.0516
11747TIP3    H135184   1.095   2.522   2.672  0.9310 -1.6273 -0.7833
11747TIP3    H235185   1.157   2.599   2.557 -0.1690  1.0302  0.3194
11748TIP3   OH235186   7.454   6.451   2.986  0.6325 -0.4773 -0.3685
11748TIP3    H135187   7.446   6.356   2.998  0.5341 -0.4123  0.0859
11748TIP3    H235188   7.494   6.482   3.067  0.2887 -0.0762 -0.3507
11749TIP3   OH235189   2.509   4.602   4.926  0.3653 -0.4000  0.0062
11749TIP3    H135190   2.457   4.541   4.874 -1.8937  0.8571  0.6658
11749TIP3    H235191   2.456   4.619   5.004  0.2482  3.3330 -0.7137
11750TIP3   OH235192   5.746   6.838   2.762 -0.2425 -0.1953 -0.0098
11750TIP3    H135193   5.660   6.799   2.774 -1.2977  2.2018  0.9429
11750TIP3    H235194   5.807   6.775   2.799 -1.8333 -0.9298  1.4656
11751TIP3   OH235195   2.871   5.692   2.868  0.0445  0.5048 -0.1570
11751TIP3    H135196   2.896   5.784   2.875  0.9863  0.1528  2.0434
11751TIP3    H235197   2.939   5.653   2.813 -0.0104  1.0041 -0.5844
11752TIP3   OH235198   7.115   1.883   4.420 -0.4432 -0.0162  0.0937
11752TIP3    H135199   7.034   1.929   4.444  0.1686  1.5919 -0.7923
11752TIP3    H235200   7.172   1.951   4.385  1.3255 -1.1117  0.7028
11753TIP3   OH235201   5.013   3.458   5.776  0.0582  0.0989  0.3950
11753TIP3    H135202   4.972   3.421   5.854  1.6206 -2.6952  0.0388
11753TIP3    H235203   4.945   3.454   5.709 -0.6720  0.5836  1.0873
11754TIP3   OH235204   8.047   3.878   0.384  0.1929  0.4156 -0.1963
11754TIP3    H135205   8.003   3.863   0.300 -0.4564  0.0428  0.2028
11754TIP3    H235206   8.119   3.814   0.384 -0.8540 -0.7973  0.2654
11755TIP3   OH235207   2.480   3.296   3.602  0.1523  0.2909  0.5992
11755TIP3    H135208   2.416   3.248   3.550 -0.2961 -0.6316  1.9441
11755TIP3    H235209   2.560   3.296   3.548 -0.3813 -0.3534 -0.2157
11756TIP3   OH235210   0.296   7.318   3.385  0.6070 -0.8845  0.2661
11756TIP3    H135211   0.255   7.246   3.433  0.1916 -0.7427  0.1265
11756TIP3    H235212   0.227   7.383   3.375  0.6908 -0.9137 -0.5373
11757TIP3   OH235213   0.741   6.531   0.210  0.0043 -0.2286 -0.0722
11757TIP3    H135214   0.801   6.477   0.158  0.3857  0.0709  0.0474
11757TIP3    H235215   0.671   6.554   0.149  0.4515  0.1254 -0.4575
11758TIP3   OH235216   1.264   4.542   4.146 -0.1195 -0.3050  0.5238
11758TIP3    H135217   1.201   4.476   4.176 -1.5434  0.4780 -0.6335
11758TIP3    H235218   1.210   4.615   4.116  1.2446 -0.2356 -2.0406
11759TIP3   OH235219   6.225   7.186   4.135 -0.5334 -0.4286  0.1434
11759TIP3    H135220   6.134   7.180   4.105 -0.0925  0.8028 -1.5626
11759TIP3    H235221   6.277   7.145   4.066  0.3059 -0.0253  0.5197
11760TIP3   OH235222   6.161   0.935   0.740 -0.5064 -0.2234  0.0571
11760TIP3    H135223   6.099   0.871   0.774 -1.5204  0.9229  0.4593
11760TIP3    H235224   6.195   0.978   0.819  1.2217 -1.1834 -0.1286
11761TIP3   OH235225   0.875   2.548   6.184 -0.0183 -0.3588 -0.2023
11761TIP3    H135226   0.870   2.636   6.146  0.4124 -0.4091 -0.3787
11761TIP3    H235227   0.903   2.492   6.112  3.1686 -0.0920  0.6966
11762TIP3   OH235228   4.190   5.522   5.098  0.1078 -0.1487 -0.0315
11762TIP3    H135229   4.116   5.507   5.156  0.9598 -2.4804  0.5710
11762TIP3    H235230   4.196   5.617   5.090 -2.1213  0.1227  0.9358
11763TIP3   OH235231   2.034   5.855   3.215  0.0145  0.0921  0.2062
11763TIP3    H135232   2.083   5.856   3.132  1.7248 -0.0080  1.1577
11763TIP3    H235233   1.999   5.943   3.223  0.2942  0.2633 -0.3703
11764TIP3   OH235234   1.325   6.179   5.583 -0.1526 -0.0226 -0.1092
11764TIP3    H135235   1.357   6.270   5.583 -1.7200  0.5640 -0.9216
11764TIP3    H235236   1.317   6.157   5.491 -1.4646 -0.3505  0.0661
11765TIP3   OH235237   0.869   0.086   5.568 -1.2082 -0.3993 -0.2796
11765TIP3    H135238   0.839   0.021   5.504 -1.2975  0.5189 -1.1816
11765TIP3    H235239   0.916   0.151   5.516  0.0976 -0.4353  0.7813
11766TIP3   OH235240   0.967   1.923   2.140  0.4494  0.1363 -0.1507
11766TIP3    H135241   1.019   1.869   2.080 -1.6966 -0.1037 -1.9175
11766TIP3    H235242   1.032   1.971   2.191  2.3970 -1.0720 -1.3463
11767TIP3   OH235243   6.114   1.497   3.734 -0.8449  0.2265 -0.0124
11767TIP3    H135244   6.038   1.550   3.710 -0.5150  0.5762 -0.2947
11767TIP3    H235245   6.131   1.443   3.657 -0.1109  0.9686 -0.3840
11768TIP3   OH235246   0.838   1.355   5.725 -0.1929  0.3881  0.2593
11768TIP3    H135247   0.784   1.355   5.646  0.9535 -0.9544 -0.5779
11768TIP3    H235248   0.854   1.262   5.744 -0.7044  0.6660  2.2793
11769TIP3   OH235249   0.892   3.808   2.260 -0.0328 -0.3839  0.1214
11769TIP3    H135250   0.863   3.736   2.204  0.5367 -0.7939  0.3444
11769TIP3    H235251   0.986   3.815   2.243 -0.4343  1.7650 -1.5373
11770TIP3   OH235252   1.142   2.365   0.750 -0.0414  0.2256 -0.2543
11770TIP3    H135253   1.079   2.308   0.706 -1.5137  0.9950  0.7991
11770TIP3    H235254   1.172   2.425   0.681  0.0239 -0.5395 -0.9077
11771TIP3   OH235255   4.602   2.772   4.609 -0.1122 -0.5085  0.5149
11771TIP3    H135256   4.594   2.796   4.701 -1.1323 -0.6908  0.4904
11771TIP3    H235257   4.666   2.701   4.607  0.3050 -0.1531  1.0080
11772TIP3   OH235258   6.487   4.153   5.706  0.1254 -0.3623  0.5204
11772TIP3    H135259   6.434   4.171   5.784  0.9744  0.5728  0.8993
11772TIP3    H235260   6.552   4.089   5.735  1.0712  0.7206  0.8815
11773TIP3   OH235261   6.554   3.286   6.088 -0.2126  0.0339 -0.3690
11773TIP3    H135262   6.529   3.223   6.156 -1.6529  2.0450  1.1114
11773TIP3    H235263   6.472   3.330   6.065  0.8188  1.8538 -0.7937
11774TIP3   OH235264   5.632   6.890   5.664 -0.3670 -0.0626  0.1557
11774TIP3    H135265   5.676   6.930   5.739 -0.5879 -1.8082  1.2896
11774TIP3    H235266   5.648   6.950   5.591 -1.0839  2.2852  1.8103
11775TIP3   OH235267   6.235   1.881   0.401  0.0544 -0.4288  0.2305
11775TIP3    H135268   6.249   1.880   0.306  1.3487 -1.6129  0.4014
11775TIP3    H235269   6.321   1.896   0.438 -0.1883 -1.4175  1.2390
11776TIP3   OH235270   3.847   0.339   6.091 -0.0892  0.1394  0.1116
11776TIP3    H135271   3.881   0.290   6.016  2.0626  0.1953  0.9774
11776TIP3    H235272   3.803   0.274   6.146 -0.8334 -0.0645 -0.7008
11777TIP3   OH235273   6.007   3.896   1.518 -0.8223 -0.0706 -0.4126
11777TIP3    H135274   5.989   3.903   1.424 -0.9537  0.4116 -0.3533
11777TIP3    H235275   5.923   3.869   1.556 -1.6872  2.7593 -0.0612
11778TIP3   OH235276   3.847   2.560   3.028  0.0892 -0.5396  0.0673
11778TIP3    H135277   3.860   2.532   3.118 -0.7490  0.2497  0.4528
11778TIP3    H235278   3.925   2.611   3.007 -0.0909  0.0016  0.6600
11779TIP3   OH235279   2.135   2.958   0.284 -0.2641  0.2363 -0.5341
11779TIP3    H135280   2.162   2.993   0.369 -0.4006  1.0835 -0.8327
11779TIP3    H235281   2.115   2.866   0.302  2.8435 -0.5173 -0.2780
11780TIP3   OH235282   0.290   2.139   3.854  0.7874 -0.1623 -0.2615
11780TIP3    H135283   0.276   2.220   3.804 -0.6111  0.8612  1.6763
11780TIP3    H235284   0.206   2.094   3.850  1.6371 -1.7158 -1.5520
11781TIP3   OH235285   1.341   7.347   4.125  0.3331  0.2475 -0.0673
11781TIP3    H135286   1.260   7.300   4.142  0.1877  0.9983  1.5250
11781TIP3    H235287   1.314   7.429   4.084  0.3412  0.2076 -0.1523
11782TIP3   OH235288   4.832   1.227   5.462 -0.9118  0.5181  0.1966
11782TIP3    H135289   4.883   1.298   5.503  2.5637 -1.0686 -0.9592
11782TIP3    H235290   4.823   1.254   5.371  0.1370 -0.3167 -0.1713
11783TIP3   OH235291   3.084   3.098   0.385 -0.2156 -0.4778  0.2649
11783TIP3    H135292   3.014   3.044   0.346 -0.3219 -0.3210  0.2372
11783TIP3    H235293   3.038   3.175   0.418 -0.5508 -1.7720  3.0956
11784TIP3   OH235294   0.869   1.577   3.608  0.1814  0.3049 -0.4142
11784TIP3    H135295   0.913   1.494   3.588 -0.0207  0.1150 -0.0820
11784TIP3    H235296   0.932   1.626   3.661 -0.3977 -0.4298  1.0381
11785TIP3   OH235297   4.600   6.244   6.693 -0.2667 -0.4255 -0.2355
11785TIP3    H135298   4.538   6.212   6.627 -1.6368  0.4745  0.5456
11785TIP3    H235299   4.604   6.173   6.758 -1.0015 -0.2465  0.0217
11786TIP3   OH235300   6.634   1.853   1.535  0.1968  0.0079  0.3254
11786TIP3    H135301   6.666   1.942   1.548 -0.2811  0.2412 -0.0629
11786TIP3    H235302   6.698   1.814   1.475 -0.1134  0.4058 -0.2794
11787TIP3   OH235303   0.966   6.632   6.396  0.1645 -0.1116  0.0748
11787TIP3    H135304   0.933   6.601   6.312 -0.1355  0.0871  0.1192
11787TIP3    H235305   0.901   6.695   6.426  0.4763  0.1235  0.2631
11788TIP3   OH235306   0.125   3.375   3.704  0.2034  0.6356 -0.4862
11788TIP3    H135307   0.051   3.398   3.648  1.0295  2.0959 -1.0176
11788TIP3    H235308   0.202   3.398   3.653  1.0264 -0.1285  0.3719
11789TIP3   OH235309   2.424   4.942   0.911  0.0076  0.5986 -0.7607
11789TIP3    H135310   2.496   4.992   0.873  0.9316 -0.1142  0.0099
11789TIP3    H235311   2.391   4.888   0.839  1.1271 -0.0571 -0.7958
11790TIP3   OH235312   3.721   5.593   3.861  0.4252  0.2370  0.0847
11790TIP3    H135313   3.681   5.511   3.892 -0.3246  0.8141  0.6749
11790TIP3    H235314   3.675   5.662   3.910  2.1293  0.9352  0.7595
11791TIP3   OH235315   2.984   3.409   1.528  0.8753 -0.1804 -0.7180
11791TIP3    H135316   2.939   3.493   1.534  0.5106 -0.4547  1.5707
11791TIP3    H235317   2.915   3.347   1.506  1.0458  0.0229 -1.8765
11792TIP3   OH235318   5.255   4.286   0.278 -0.1109 -0.0943  0.3515
11792TIP3    H135319   5.197   4.350   0.319  1.5911  1.3464  0.6288
11792TIP3    H235320   5.244   4.300   0.184  0.1489  0.5401  0.4097
11793TIP3   OH235321   4.563   2.229   0.996 -0.4590 -0.0497  0.6287
11793TIP3    H135322   4.647   2.199   0.962  0.3741  2.4749  0.2713
11793TIP3    H235323   4.584   2.273   1.078 -1.2560  1.5087  0.0339
11794TIP3   OH235324   7.658   3.498   6.047  0.3155 -0.2780 -0.2081
11794TIP3    H135325   7.631   3.518   5.957  2.0543  0.9759 -0.4997
11794TIP3    H235326   7.702   3.578   6.077 -0.4299 -0.5697  1.8676
11795TIP3   OH235327   0.122   6.002   0.733 -0.7265  0.0360 -0.5538
11795TIP3    H135328   0.119   5.924   0.678 -0.8969  0.4063 -1.0801
11795TIP3    H235329   0.182   6.061   0.687 -0.8615  0.3459 -0.3355
11796TIP3   OH235330   7.142   6.371   4.393  0.1007 -0.1219  0.1903
11796TIP3    H135331   7.149   6.366   4.488 -0.1969 -1.6447  0.1570
11796TIP3    H235332   7.064   6.319   4.372 -1.0645  1.8441 -0.7500
11797TIP3   OH235333   6.832   0.555   2.710 -0.2778 -0.1707  0.6851
11797TIP3    H135334   6.811   0.628   2.769  0.6064  1.9749 -1.5018
11797TIP3    H235335   6.773   0.485   2.737 -2.0698  1.7569  2.1087
11798TIP3   OH235336   5.256   6.696   0.708  0.5991 -0.1334 -0.1451
11798TIP3    H135337   5.254   6.774   0.763  0.1581 -0.1278 -0.1664
11798TIP3    H235338   5.297   6.629   0.762  0.7072  0.0342 -0.0216
11799TIP3   OH235339   1.116   7.086   2.371  0.1884  0.1953 -0.2626
11799TIP3    H135340   1.156   7.157   2.321  0.3121  0.3385  0.0402
11799TIP3    H235341   1.190   7.038   2.408  0.1060 -0.1046 -0.4817
11800TIP3   OH235342   3.286   2.856   5.764 -0.4869  0.2978 -0.4408
11800TIP3    H135343   3.303   2.766   5.739 -0.5450 -0.4203  1.8998
11800TIP3    H235344   3.364   2.904   5.735  0.3609 -0.8424 -0.0962
11801TIP3   OH235345   1.603   2.828   5.833 -0.7862  0.1709  0.0567
11801TIP3    H135346   1.636   2.813   5.744 -0.7495 -1.2655  0.2851
11801TIP3    H235347   1.566   2.916   5.830  0.4292  0.6765 -1.0020
11802TIP3   OH235348   4.268   6.055   4.153 -0.4395 -0.7705  0.2914
11802TIP3    H135349   4.279   6.022   4.063  0.5507  0.1468  0.0619
11802TIP3    H235350   4.357   6.058   4.188 -0.8053 -0.9235  1.2445
11803TIP3   OH235351   7.789   1.320   1.072 -0.5817 -0.2530 -0.6921
11803TIP3    H135352   7.818   1.260   1.004  1.0349  0.8165 -0.9938
11803TIP3    H235353   7.709   1.360   1.038 -1.8428 -2.3603 -0.3745
11804TIP3   OH235354   7.318   2.044   4.363 -0.2668 -0.4278 -0.4290
11804TIP3    H135355   7.356   2.124   4.400 -0.6616  0.1075 -1.1510
11804TIP3    H235356   7.370   1.973   4.402 -0.9707  0.0572  1.5236
11805TIP3   OH235357   3.692   7.306   1.945  0.0571  0.4844  0.4854
11805TIP3    H135358   3.673   7.227   1.996 -0.1622 -1.9474 -3.0102
11805TIP3    H235359   3.607   7.337   1.915  0.2971  0.6306 -0.0672
11806TIP3   OH235360   0.641   1.456   3.752 -0.6050 -0.8387  0.0481
11806TIP3    H135361   0.678   1.488   3.834 -2.7313 -1.3305  1.2800
11806TIP3    H235362   0.714   1.454   3.691  0.7564  0.8497  1.5409
11807TIP3   OH235363   7.087   6.401   5.844 -0.8207  0.3267  0.8831
11807TIP3    H135364   7.090   6.460   5.768  0.4958 -1.1170 -0.2523
11807TIP3    H235365   7.167   6.419   5.892 -0.5055 -0.3767  0.6363
11808TIP3   OH235366   5.283   3.502   1.758  0.3558 -0.1657  0.1865
11808TIP3    H135367   5.255   3.426   1.708 -1.3491  2.4907 -3.2289
11808TIP3    H235368   5.358   3.537   1.709 -0.8561  2.0691 -0.1816
11809TIP3   OH235369   4.586   0.339   6.502  1.5633  0.3552 -0.0489
11809TIP3    H135370   4.590   0.326   6.407  0.3163  0.7196 -0.1707
11809TIP3    H235371   4.645   0.412   6.519  2.9511 -0.6667 -0.3301
11810TIP3   OH235372   0.740   1.081   0.443 -0.6898  0.3642 -0.2166
11810TIP3    H135373   0.652   1.110   0.463 -1.3158 -1.2478 -0.4427
11810TIP3    H235374   0.748   0.996   0.486  0.7738  0.4905 -0.1665
11811TIP3   OH235375   0.209   2.135   4.681  0.5814  0.2447 -0.8087
11811TIP3    H135376   0.214   2.137   4.585 -0.1216 -0.3185 -0.8647
11811TIP3    H235377   0.124   2.175   4.701  0.0358 -1.0105 -0.5056
11812TIP3   OH235378   7.463   5.063   5.829  0.6863 -0.0232 -0.0476
11812TIP3    H135379   7.475   5.157   5.815 -1.9110  0.4043 -0.0424
11812TIP3    H235380   7.390   5.058   5.891  1.6009 -2.0570  0.9676
11813TIP3   OH235381   7.589   4.437   0.802 -0.3258  0.5520 -0.3275
11813TIP3    H135382   7.615   4.486   0.724  0.7323 -0.7018 -0.7903
11813TIP3    H235383   7.671   4.424   0.850 -0.9048  0.9588  0.8134
11814TIP3   OH235384   3.118   4.133   1.173 -0.1598  0.6174 -0.2467
11814TIP3    H135385   3.213   4.147   1.174 -0.0746  0.5749  2.8091
11814TIP3    H235386   3.106   4.043   1.204 -1.1898  1.1311  0.9564
11815TIP3   OH235387   3.178   5.373   1.174 -0.0350  0.0500 -0.2583
11815TIP3    H135388   3.200   5.315   1.248 -1.0970 -1.7723 -1.2930
11815TIP3    H235389   3.144   5.314   1.107  0.5475  1.6968 -2.0912
11816TIP3   OH235390   4.899   2.464   2.949  0.3346 -0.1004 -0.0856
11816TIP3    H135391   4.808   2.475   2.976 -0.2594  1.0661 -2.3431
11816TIP3    H235392   4.926   2.550   2.918  2.6585 -0.1120  1.6628
11817TIP3   OH235393   0.085   4.168   1.758  0.0307 -0.1173  0.1106
11817TIP3    H135394   0.043   4.088   1.726 -2.5999  1.7534 -1.4959
11817TIP3    H235395   0.040   4.188   1.840 -3.2635  2.3821 -2.0553
11818TIP3   OH235396   1.940   4.517   5.879 -0.3172 -0.4847 -0.1341
11818TIP3    H135397   1.911   4.499   5.790  1.5122 -3.5367 -0.2654
11818TIP3    H235398   1.992   4.598   5.872 -1.8795  0.4653 -1.3646
11819TIP3   OH235399   5.516   4.752   6.378 -0.1355 -0.1895 -0.0494
11819TIP3    H135400   5.429   4.713   6.388 -0.4154  0.9218  2.5850
11819TIP3    H235401   5.549   4.763   6.467  2.3170  0.3608 -0.9198
11820TIP3   OH235402   0.821   4.230   2.710  0.4448  0.0294 -0.4386
11820TIP3    H135403   0.760   4.294   2.747  1.3232  0.5338  0.2009
11820TIP3    H235404   0.782   4.204   2.627 -1.0204 -0.2693  0.3197
11821TIP3   OH235405   0.592   6.940   2.372 -0.3146 -0.0323  0.3820
11821TIP3    H135406   0.557   6.854   2.349  1.1359 -0.2831 -1.0795
11821TIP3    H235407   0.612   6.981   2.288  0.7683  0.9746  1.0980
11822TIP3   OH235408   6.542   1.777   5.371  0.3942  0.6215  0.3142
11822TIP3    H135409   6.486   1.836   5.319 -0.0138  0.2907  0.3685
11822TIP3    H235410   6.482   1.738   5.434  0.7052  0.3047  0.4131
11823TIP3   OH235411   7.121   4.949   4.500 -0.1947 -0.4806  0.2860
11823TIP3    H135412   7.075   4.967   4.418 -1.2265 -1.0603  0.7153
11823TIP3    H235413   7.086   5.012   4.563  2.1636  1.4462 -0.1861
11824TIP3   OH235414   4.712   6.737   4.745  0.3201  0.2915 -0.0428
11824TIP3    H135415   4.685   6.648   4.722 -1.4396  0.5421  0.8993
11824TIP3    H235416   4.712   6.784   4.662 -0.5052 -0.1699 -0.3169
11825TIP3   OH235417   5.380   4.657   1.338  0.3688  0.3496  0.1145
11825TIP3    H135418   5.323   4.660   1.261 -0.3012  1.8224  0.6433
11825TIP3    H235419   5.345   4.585   1.391 -0.7278  0.9405  0.2141
11826TIP3   OH235420   2.830   7.487   5.310  0.0872  0.1003 -0.2228
11826TIP3    H135421   2.860   7.558   5.368  2.3296  0.4094 -1.6491
11826TIP3    H235422   2.742   7.514   5.283 -0.2919  0.8278  1.5804
11827TIP3   OH235423   3.478   0.838   1.454 -0.0066  0.6615 -0.5227
11827TIP3    H135424   3.456   0.928   1.476  0.0469  0.7750 -0.9265
11827TIP3    H235425   3.395   0.790   1.458 -0.2215  0.9427 -1.3345
11828TIP3   OH235426   0.432   0.969   4.488  0.2574 -0.0102 -0.5315
11828TIP3    H135427   0.374   0.962   4.564  0.1127 -0.8513 -0.7087
11828TIP3    H235428   0.521   0.963   4.524  0.2879  1.9342 -0.1866
11829TIP3   OH235429   2.514   6.609   0.871 -0.2349  0.3753  0.1189
11829TIP3    H135430   2.536   6.645   0.957 -0.4646  0.0835  0.2991
11829TIP3    H235431   2.419   6.600   0.872 -0.1905 -0.1592  0.0468
11830TIP3   OH235432   8.072   1.544   3.846 -0.7830  0.2088  0.6999
11830TIP3    H135433   7.977   1.538   3.859 -0.8928 -0.6684 -0.3944
11830TIP3    H235434   8.091   1.482   3.775  0.4020  1.4838 -0.1472
11831TIP3   OH235435   3.729   2.849   6.187 -0.2757  0.2992 -0.1747
11831TIP3    H135436   3.732   2.944   6.176 -1.0414  0.4140  0.5834
11831TIP3    H235437   3.662   2.819   6.126 -0.6947  0.3486  0.2599
11832TIP3   OH235438   2.868   1.515   2.487  0.2747  0.2417  0.4124
11832TIP3    H135439   2.906   1.473   2.410  1.3070 -0.0251  1.0559
11832TIP3    H235440   2.833   1.442   2.539  0.2999  0.3545  0.5871
11833TIP3   OH235441   0.300   5.534   6.218  0.1440  0.1261  0.0981
11833TIP3    H135442   0.304   5.453   6.169 -1.6750  0.5296 -0.8029
11833TIP3    H235443   0.281   5.507   6.308 -0.7281 -0.4578 -0.2491
11834TIP3   OH235444   2.538   0.913   2.742  0.3005 -0.0802  0.2696
11834TIP3    H135445   2.593   0.963   2.683  0.1795  1.0487  1.0874
11834TIP3    H235446   2.577   0.926   2.829  0.0396 -1.0866  0.5611
11835TIP3   OH235447   7.164   5.459   5.955  0.3830  0.1637 -0.9124
11835TIP3    H135448   7.076   5.422   5.949  0.1725  0.6985 -1.2873
11835TIP3    H235449   7.151   5.553   5.942  0.4708  0.9228  3.1676
11836TIP3   OH235450   0.118   1.948   3.406  0.1727 -0.5923 -0.1268
11836TIP3    H135451   0.136   2.037   3.376 -0.8465  0.2398  1.5984
11836TIP3    H235452   0.040   1.922   3.357  2.4084 -1.9759 -3.2635
11837TIP3   OH235453   2.005   0.697   4.256  0.6812 -0.1413 -0.2221
11837TIP3    H135454   1.931   0.672   4.201  0.8914 -1.6140  0.1188
11837TIP3    H235455   2.037   0.779   4.218  0.4026 -0.7614 -1.8746
11838TIP3   OH235456   7.826   3.867   4.413  0.2140 -0.1986  0.3425
11838TIP3    H135457   7.764   3.872   4.486 -0.9317 -0.3576 -0.5856
11838TIP3    H235458   7.828   3.956   4.377  2.6646  0.5031  2.0310
11839TIP3   OH235459   5.128   6.299   6.530  0.5624 -0.7916 -0.0212
11839TIP3    H135460   5.178   6.225   6.563 -0.1396 -1.7982 -1.1395
11839TIP3    H235461   5.190   6.344   6.471  0.5445 -1.3346 -0.4646
11840TIP3   OH235462   5.041   4.623   4.438 -0.1032  0.2122  0.3487
11840TIP3    H135463   5.035   4.589   4.528 -2.0906 -1.2963 -0.2872
11840TIP3    H235464   5.074   4.712   4.449  0.3166 -0.1509  2.5298
11841TIP3   OH235465   7.259   6.638   3.071  0.2655 -0.5658 -0.3339
11841TIP3    H135466   7.336   6.582   3.056  1.5118  1.0926 -0.3780
11841TIP3    H235467   7.190   6.597   3.019  1.3518 -1.6141 -1.0128
11842TIP3   OH235468   4.257   2.612   6.654 -0.1972 -0.0689 -0.1866
11842TIP3    H135469   4.192   2.606   6.724  0.0109  0.6906  0.0794
11842TIP3    H235470   4.312   2.535   6.666  1.7753  1.5562  2.4686
11843TIP3   OH235471   5.697   6.335   1.049 -0.4524  0.1823  0.1754
11843TIP3    H135472   5.618   6.361   1.097 -0.8025  1.0000 -0.7968
11843TIP3    H235473   5.760   6.405   1.068 -0.5272  0.4061 -0.3693
11844TIP3   OH235474   3.983   4.011   5.599  0.0280  0.2402  0.2625
11844TIP3    H135475   4.036   3.976   5.670  2.1170  0.4571 -1.1167
11844TIP3    H235476   4.008   4.103   5.593 -2.1665  0.9685  0.9687
11845TIP3   OH235477   1.738   5.379   3.147  0.0890  0.0578  0.0474
11845TIP3    H135478   1.649   5.399   3.176  0.7635 -0.3296  2.7046
11845TIP3    H235479   1.768   5.458   3.102 -1.2834  0.5133 -0.0885
11846TIP3   OH235480   6.949   6.097   5.161  0.0345  0.1317  0.0395
11846TIP3    H135481   6.994   6.176   5.131 -0.7765  0.9815  0.9581
11846TIP3    H235482   7.018   6.030   5.164  0.6893  0.7325 -0.9739
11847TIP3   OH235483   0.669   3.218   2.272 -0.5655 -0.5252 -0.6204
11847TIP3    H135484   0.622   3.212   2.189 -1.0948  0.3522 -0.3987
11847TIP3    H235485   0.702   3.308   2.275 -1.1340 -0.3298  0.4174
11848TIP3   OH235486   4.812   5.789   2.635 -0.4039  0.4822 -0.1940
11848TIP3    H135487   4.861   5.845   2.574  1.4664 -0.5425  0.3041
11848TIP3    H235488   4.805   5.841   2.715  2.1083 -0.1883  0.5767
11849TIP3   OH235489   4.375   1.166   4.770  0.0398 -0.3916  0.6144
11849TIP3    H135490   4.413   1.243   4.812  0.1897 -0.1384  0.0275
11849TIP3    H235491   4.419   1.091   4.812  0.8808 -0.1182  0.2423
11850TIP3   OH235492   4.065   3.099   4.986  0.3352 -0.1278  0.3836
11850TIP3    H135493   4.142   3.124   5.038  0.5540 -0.3681  0.1803
11850TIP3    H235494   3.991   3.135   5.034  0.6396  1.0197  0.0260
11851TIP3   OH235495   3.440   6.760   0.509  0.1020  0.3462  0.1027
11851TIP3    H135496   3.525   6.716   0.505  0.3434  0.6423  1.3774
11851TIP3    H235497   3.461   6.851   0.529 -0.5262  0.3152  0.9474
11852TIP3   OH235498   6.796   1.791   5.999  0.2352  0.6431  0.7482
11852TIP3    H135499   6.815   1.759   5.911 -1.2401  0.4948  0.4475
11852TIP3    H235500   6.860   1.861   6.014 -0.2690  1.5322 -0.9398
11853TIP3   OH235501   3.666   0.121   3.442  0.6081 -0.4422 -0.4977
11853TIP3    H135502   3.727   0.189   3.414  0.7473 -0.6877 -0.8014
11853TIP3    H235503   3.674   0.053   3.375 -1.4881  0.3717 -1.6825
11854TIP3   OH235504   0.784   2.588   4.472 -0.3662  0.3470  0.0306
11854TIP3    H135505   0.792   2.594   4.567 -0.9411 -3.3667  0.4643
11854TIP3    H235506   0.872   2.565   4.442 -0.8160 -1.7219  0.1413
11855TIP3   OH235507   7.159   0.853   5.363 -0.1923 -0.2843  0.2452
11855TIP3    H135508   7.157   0.824   5.454 -0.4565  0.8826  0.6325
11855TIP3    H235509   7.096   0.797   5.318  1.9158 -2.7886  0.1360
11856TIP3   OH235510   4.338   2.179   4.535  0.3010 -0.6256 -0.2292
11856TIP3    H135511   4.430   2.184   4.561  0.5392  0.5734 -1.2266
11856TIP3    H235512   4.338   2.124   4.456 -0.0901 -2.1192  0.7747
11857TIP3   OH235513   3.859   4.227   0.542  0.2092  0.0314 -0.0268
11857TIP3    H135514   3.766   4.203   0.539  0.2779 -0.4674  1.2825
11857TIP3    H235515   3.859   4.318   0.571  0.0774  0.6623 -1.8873
11858TIP3   OH235516   7.436   5.052   2.770  0.9079  0.3731 -0.1891
11858TIP3    H135517   7.375   5.107   2.820  1.7020  1.8105 -0.7314
11858TIP3    H235518   7.477   4.996   2.835  2.0798  2.3483  0.8757
11859TIP3   OH235519   7.733   3.546   3.557 -0.2299  0.3532 -0.4524
11859TIP3    H135520   7.768   3.614   3.614 -0.4989  1.2603 -1.3386
11859TIP3    H235521   7.703   3.477   3.616  0.3306  0.8636  0.4452
11860TIP3   OH235522   5.043   6.761   5.988  0.0430 -0.3294  0.0618
11860TIP3    H135523   5.022   6.674   6.022  0.8362 -0.7796 -0.5803
11860TIP3    H235524   4.966   6.785   5.936 -0.1050 -0.7063  0.1022
11861TIP3   OH235525   1.993   2.780   4.773 -0.5016  0.4264  0.4381
11861TIP3    H135526   1.902   2.787   4.744 -0.3800  0.2994  0.0195
11861TIP3    H235527   2.006   2.855   4.831 -0.8674  0.4558  0.4829
11862TIP3   OH235528   0.785   0.887   5.833  0.0034 -0.0932  0.1501
11862TIP3    H135529   0.874   0.852   5.836  0.0312 -0.0132  0.2515
11862TIP3    H235530   0.790   0.960   5.771 -0.0521 -0.2589 -0.0527
11863TIP3   OH235531   0.084   3.168   2.642 -0.0980  0.1652  0.2107
11863TIP3    H135532   0.082   3.168   2.738  3.6005  0.9621  0.4154
11863TIP3    H235533   0.129   3.249   2.619  1.4286 -1.2066 -2.0420
11864TIP3   OH235534   4.585   2.356   1.247  0.2523  0.0835 -0.0988
11864TIP3    H135535   4.584   2.427   1.311  0.5506 -0.7586  0.8749
11864TIP3    H235536   4.527   2.289   1.285  1.3068 -0.8875 -0.1523
11865TIP3   OH235537   8.040   6.629   6.685  0.5101  0.3369 -0.5351
11865TIP3    H135538   8.081   6.544   6.704  3.8386  1.4689 -1.8640
11865TIP3    H235539   8.035   6.672   6.770  1.5203 -0.1317 -0.2101
11866TIP3   OH235540   5.825   2.598   1.977 -0.5612  0.3378  0.0565
11866TIP3    H135541   5.776   2.528   1.933 -0.3753  0.1132  0.2104
11866TIP3    H235542   5.855   2.654   1.905  0.2156 -0.3315 -0.1547
11867TIP3   OH235543   6.564   3.951   5.928  0.8434  0.6847  0.3516
11867TIP3    H135544   6.525   3.978   6.011 -1.5866  1.6144 -0.9829
11867TIP3    H235545   6.609   3.869   5.947 -0.4799  0.3719  2.3578
11868TIP3   OH235546   4.896   4.943   4.712 -0.0167  0.4028  0.1877
11868TIP3    H135547   4.843   4.923   4.635 -2.6036  1.8239  1.4975
11868TIP3    H235548   4.866   5.029   4.741  1.6458  0.3820  2.2001
11869TIP3   OH235549   5.510   6.441   1.249 -0.0065 -0.0110  0.3222
11869TIP3    H135550   5.563   6.457   1.327  0.4519  0.9474 -0.1707
11869TIP3    H235551   5.462   6.523   1.236 -0.0928 -0.1740 -0.3875
11870TIP3   OH235552   8.254   2.306   4.296 -0.1275  0.0468 -0.3726
11870TIP3    H135553   8.219   2.393   4.314  0.2279 -0.2002  1.8304
11870TIP3    H235554   8.338   2.323   4.254  0.1923  0.7939  0.5334
11871TIP3   OH235555   4.568   5.509   4.504  0.0200 -0.0544 -0.1734
11871TIP3    H135556   4.595   5.581   4.560 -1.5575  0.9727 -0.6570
11871TIP3    H235557   4.527   5.551   4.428 -1.1909 -1.4294 -0.3496
11872TIP3   OH235558   0.250   7.565   5.638  0.4553  0.2221 -0.4015
11872TIP3    H135559   0.344   7.557   5.656  0.8523  1.6950 -1.5812
11872TIP3    H235560   0.246   7.601   5.549 -1.1312  2.7966  0.5999
11873TIP3   OH235561   5.056   5.126   1.198  0.6563  0.2460  0.3377
11873TIP3    H135562   5.091   5.131   1.109 -0.9121 -0.9752 -0.3982
11873TIP3    H235563   5.106   5.056   1.240  0.9283  0.3466  0.1788
11874TIP3   OH235564   4.139   6.685   3.966 -0.1324 -0.4295 -0.4838
11874TIP3    H135565   4.055   6.639   3.962  0.2987 -1.2584 -0.3281
11874TIP3    H235566   4.154   6.716   3.877 -0.5252 -0.4186 -0.5474
11875TIP3   OH235567   8.179   0.877   5.372 -0.3886 -0.0756 -1.1855
11875TIP3    H135568   8.269   0.845   5.365  0.3355  1.0602  1.5037
11875TIP3    H235569   8.135   0.810   5.426 -0.6247  0.2780 -0.9374
11876TIP3   OH235570   0.556   2.736   0.206 -0.5017  0.1520 -0.2893
11876TIP3    H135571   0.488   2.788   0.248 -0.2477  1.6330 -1.6019
11876TIP3    H235572   0.623   2.723   0.273 -1.1730  0.4053  0.4318
11877TIP3   OH235573   4.066   0.472   3.119  0.3890  0.3565 -0.0086
11877TIP3    H135574   4.141   0.482   3.061  0.4521 -1.4340 -0.2819
11877TIP3    H235575   4.039   0.381   3.109 -0.9865  0.5977  1.1094
11878TIP3   OH235576   4.958   5.856   4.288  0.1746  0.2031  0.3414
11878TIP3    H135577   5.021   5.915   4.246  1.0365 -0.9738 -0.0679
11878TIP3    H235578   4.876   5.905   4.287  0.6575  1.0438 -0.8041
11879TIP3   OH235579   6.823   7.286   2.854  0.2921  0.7575  0.2909
11879TIP3    H135580   6.797   7.240   2.934 -0.1604  3.0248  1.5194
11879TIP3    H235581   6.857   7.217   2.797 -0.6275 -1.1250  1.8970
11880TIP3   OH235582   7.384   3.045   4.149  0.1215  0.5423 -0.9300
11880TIP3    H135583   7.424   2.961   4.170  0.7664  1.1119  0.2332
11880TIP3    H235584   7.292   3.024   4.132 -0.3375 -0.1459  1.7924
11881TIP3   OH235585   1.853   6.416   0.912  0.1049  0.3387 -0.7016
11881TIP3    H135586   1.926   6.362   0.884  0.0011  0.1451 -0.5994
11881TIP3    H235587   1.876   6.444   1.001 -0.6132 -0.9358 -0.0861
11882TIP3   OH235588   6.525   2.517   6.177 -0.2428  1.1826 -1.2945
11882TIP3    H135589   6.555   2.575   6.247  0.5894  0.1652 -0.7836
11882TIP3    H235590   6.605   2.492   6.130 -0.3707 -0.6633 -0.6168
11883TIP3   OH235591   5.117   0.913   1.889  0.3791 -0.5625  0.0364
11883TIP3    H135592   5.047   0.873   1.837  1.6028 -0.0190 -2.1603
11883TIP3    H235593   5.160   0.974   1.829  2.6414 -0.7492  1.3386
11884TIP3   OH235594   4.663   6.690   1.321  0.1995  0.6606 -0.2364
11884TIP3    H135595   4.758   6.695   1.329 -0.0217  1.8453  2.6504
11884TIP3    H235596   4.649   6.638   1.242  3.2205  0.3516 -0.6941
11885TIP3   OH235597   7.756   7.748   2.698  0.1312  0.0695 -0.1065
11885TIP3    H135598   7.691   7.786   2.640 -0.9548 -0.0667  0.9896
11885TIP3    H235599   7.837   7.796   2.677 -0.3940  0.5080 -1.2141
11886TIP3   OH235600   2.546   7.659   4.461  0.4915  0.0174  0.5822
11886TIP3    H135601   2.602   7.723   4.505  0.3167 -0.0214  0.8606
11886TIP3    H235602   2.590   7.643   4.378  1.6511 -1.0533  1.3701
11887TIP3   OH235603   6.431   4.323   3.014 -0.7235 -0.4357  0.1930
11887TIP3    H135604   6.424   4.329   2.919  0.4201 -0.6342  0.0742
11887TIP3    H235605   6.363   4.382   3.048 -1.0496 -0.2641 -0.7436
11888TIP3   OH235606   2.240   6.297   1.785  0.2138  0.1021  0.2056
11888TIP3    H135607   2.221   6.283   1.878 -1.8926  0.8870 -0.0446
11888TIP3    H235608   2.253   6.209   1.749 -2.8431 -0.6237  0.5531
11889TIP3   OH235609   6.947   5.886   5.452  0.2967 -0.1977 -0.2954
11889TIP3    H135610   6.923   5.815   5.393 -0.7368  1.6301 -2.2207
11889TIP3    H235611   6.986   5.952   5.395 -0.3762  1.4892  1.1029
11890TIP3   OH235612   7.064   3.306   0.099  0.3079  0.2549  0.1843
11890TIP3    H135613   7.016   3.331   0.179  1.0603  0.8972  0.4501
11890TIP3    H235614   7.044   3.375   0.037  0.3008  0.1309  0.0488
11891TIP3   OH235615   2.366   4.295   5.916  0.2389 -0.5057  0.2132
11891TIP3    H135616   2.368   4.209   5.874 -1.4384 -0.6376  0.3525
11891TIP3    H235617   2.308   4.284   5.991 -0.2980  0.8387  0.0197
11892TIP3   OH235618   7.036   6.919   1.535  0.3337  0.9358  0.3246
11892TIP3    H135619   7.102   6.925   1.604  4.3536  1.7202 -3.1341
11892TIP3    H235620   6.986   7.001   1.542  2.9089  2.6236  0.3871
11893TIP3   OH235621   2.846   4.201   4.765 -0.8707  0.0550  0.0947
11893TIP3    H135622   2.869   4.287   4.801  0.9902  0.7556 -2.4260
11893TIP3    H235623   2.926   4.149   4.776 -1.1774 -0.5599 -0.5390
11894TIP3   OH235624   7.500   0.179   0.815  0.1056  0.1075 -0.1576
11894TIP3    H135625   7.553   0.184   0.735  0.8974  1.2847  0.4027
11894TIP3    H235626   7.464   0.267   0.825  3.3280  1.3357  2.9071
11895TIP3   OH235627   2.280   5.815   6.592 -0.1701  0.4170  0.0906
11895TIP3    H135628   2.233   5.778   6.667 -0.7004  1.9304  0.5315
11895TIP3    H235629   2.372   5.789   6.606 -0.6430 -1.6056 -0.1933
11896TIP3   OH235630   3.121   3.987   5.236  0.0104 -0.2268  0.2840
11896TIP3    H135631   3.046   4.045   5.225 -1.0621 -1.6338 -0.0723
11896TIP3    H235632   3.166   4.021   5.314 -1.0555  0.5689  0.5802
11897TIP3   OH235633   7.925   4.562   4.334 -0.0180  0.2604  0.2199
11897TIP3    H135634   8.017   4.554   4.357 -0.9719  0.2979  5.2773
11897TIP3    H235635   7.900   4.474   4.305  1.4827  0.2290 -1.1030
11898TIP3   OH235636   0.407   2.564   6.173 -0.3327  0.2145 -0.2465
11898TIP3    H135637   0.429   2.471   6.182  1.2794  0.5779 -0.0715
11898TIP3    H235638   0.403   2.579   6.079  1.8245  0.4380 -0.3577
11899TIP3   OH235639   8.032   0.919   0.391  0.3510 -0.0077 -0.1823
11899TIP3    H135640   7.984   0.996   0.422 -3.0224 -2.8544  2.5105
11899TIP3    H235641   8.089   0.895   0.464 -0.1957 -1.1689 -0.1038
11900TIP3   OH235642   2.429   3.588   3.688  0.1323  0.0928 -0.5494
11900TIP3    H135643   2.419   3.544   3.772 -0.1330  0.1769 -0.5338
11900TIP3    H235644   2.425   3.518   3.623  1.9152 -0.1561 -0.4213
11901TIP3   OH235645   4.409   3.526   5.122  0.0355  0.3223 -0.3769
11901TIP3    H135646   4.426   3.608   5.169  0.2697 -0.4869  1.0137
11901TIP3    H235647   4.325   3.496   5.156 -0.6692  0.5927 -1.8048
11902TIP3   OH235648   1.210   0.484   3.124 -0.2149  0.3515  0.6129
11902TIP3    H135649   1.149   0.504   3.194  1.0726  0.0717  1.8495
11902TIP3    H235650   1.193   0.550   3.057 -1.0635  0.9758  1.4297
11903TIP3   OH235651   6.420   5.536   0.810 -0.1584 -0.2938  0.1019
11903TIP3    H135652   6.439   5.609   0.868 -1.3713 -1.5454  2.1627
11903TIP3    H235653   6.325   5.531   0.807 -0.1078 -1.8801  0.1531
11904TIP3   OH235654   5.926   5.289   5.522 -0.3335 -0.3707  0.3736
11904TIP3    H135655   5.871   5.358   5.559  0.6796 -0.4540  2.1492
11904TIP3    H235656   5.881   5.208   5.545  0.3577 -0.4278  1.6011
11905TIP3   OH235657   6.967   5.376   3.362  0.1121  0.6264  0.1027
11905TIP3    H135658   6.940   5.297   3.316  0.4316 -0.1825  1.2353
11905TIP3    H235659   6.903   5.386   3.433  1.4351 -0.0420  1.4512
11906TIP3   OH235660   4.058   1.542   3.728  0.1317 -0.1680 -0.5755
11906TIP3    H135661   4.145   1.557   3.765 -0.1300  0.2433 -0.1095
11906TIP3    H235662   4.037   1.452   3.749 -0.0474  0.0879  0.3597
11907TIP3   OH235663   2.098   3.005   3.984  0.3960 -0.0053 -0.5824
11907TIP3    H135664   2.109   3.018   4.079 -0.9647  0.9954 -0.5352
11907TIP3    H235665   2.131   3.086   3.945 -0.1995  0.0925 -0.8834
11908TIP3   OH235666   5.090   1.371   3.812 -0.4840 -0.2730  0.2778
11908TIP3    H135667   5.038   1.436   3.859 -0.6769  0.2811 -0.6722
11908TIP3    H235668   5.034   1.343   3.740 -0.2773 -1.2675  0.4856
11909TIP3   OH235669   6.005   6.108   5.831 -0.1723  1.1001  0.1603
11909TIP3    H135670   6.041   6.180   5.780  0.1248  0.8637  0.0368
11909TIP3    H235671   6.079   6.077   5.884  0.1909 -0.2962 -1.1131
11910TIP3   OH235672   7.548   1.420   0.951  0.4058  0.1028  0.1373
11910TIP3    H135673   7.525   1.327   0.943  0.3040 -0.4205  4.3999
11910TIP3    H235674   7.466   1.463   0.974  1.1244  0.4912  2.1751
11911TIP3   OH235675   7.127   4.949   1.384 -0.7124 -0.4182 -0.2023
11911TIP3    H135676   7.074   4.928   1.461 -1.2292  1.2800 -0.0763
11911TIP3    H235677   7.213   4.913   1.405 -1.7427 -3.3217 -0.4533
11912TIP3   OH235678   3.246   4.035   3.541  0.2220  0.0810  0.7739
11912TIP3    H135679   3.177   4.061   3.601 -2.1997 -0.3328 -1.6225
11912TIP3    H235680   3.263   3.943   3.562  0.5128  0.3481  1.7611
11913TIP3   OH235681   0.098   1.157   1.668  0.1913  0.3832  0.0133
11913TIP3    H135682   0.035   1.113   1.725 -0.3717 -0.1458 -0.9920
11913TIP3    H235683   0.120   1.092   1.601  1.9480  0.4966  0.4173
11914TIP3   OH235684   5.827   5.520   5.614 -0.3295  0.5333 -0.2123
11914TIP3    H135685   5.811   5.591   5.551  1.1172  1.3814  0.3351
11914TIP3    H235686   5.901   5.551   5.667 -0.1176 -1.0956  0.4943
11915TIP3   OH235687   2.756   0.177   5.680  0.5330 -0.4353 -0.2029
11915TIP3    H135688   2.683   0.151   5.737  1.5643 -1.8112  0.5467
11915TIP3    H235689   2.816   0.102   5.682  1.3247  0.0999 -1.9077
11916TIP3   OH235690   7.846   0.214   3.654  0.4088 -0.5845  0.3008
11916TIP3    H135691   7.856   0.257   3.569 -1.3183  0.8520  0.7744
11916TIP3    H235692   7.907   0.260   3.712  0.8522 -0.8963  0.0885
11917TIP3   OH235693   0.248   5.960   3.490 -0.3142 -0.7784  0.1406
11917TIP3    H135694   0.226   5.934   3.579  0.3089 -1.2566  0.1666
11917TIP3    H235695   0.322   6.020   3.500 -0.5121 -0.4987 -0.0357
11918TIP3   OH235696   6.120   5.606   1.309  0.1017  0.0001  0.0882
11918TIP3    H135697   6.179   5.584   1.380  0.1121 -2.3038 -0.5610
11918TIP3    H235698   6.173   5.659   1.249  1.6731 -2.1588 -0.5702
11919TIP3   OH235699   0.575   4.627   4.637  0.0761 -0.2036  0.0108
11919TIP3    H135700   0.488   4.614   4.675  0.8107 -0.8557  1.5882
11919TIP3    H235701   0.634   4.622   4.712  1.5755 -0.9145 -1.1648
11920TIP3   OH235702   1.124   4.333   4.217  0.4902  0.3169  0.1336
11920TIP3    H135703   1.160   4.268   4.278 -3.7398 -2.5280  0.0306
11920TIP3    H235704   1.148   4.300   4.130  0.2098  0.1194  0.1296
11921TIP3   OH235705   6.797   7.166   3.110 -0.2154 -0.9800  0.2144
11921TIP3    H135706   6.807   7.088   3.166 -2.2678 -2.0566 -0.7800
11921TIP3    H235707   6.714   7.205   3.139  1.3677  1.6868  1.5591
11922TIP3   OH235708   2.410   0.488   0.741  0.7573  0.1145 -0.0079
11922TIP3    H135709   2.378   0.401   0.717 -0.0153 -0.2711  2.1498
11922TIP3    H235710   2.477   0.471   0.807  0.2545  1.1513  0.7982
11923TIP3   OH235711   8.199   1.971   3.570  0.1725 -0.0525  0.1339
11923TIP3    H135712   8.212   1.891   3.622  0.0223 -0.8379 -1.0122
11923TIP3    H235713   8.284   1.987   3.530  0.5753  1.1348  1.3727
11924TIP3   OH235714   5.687   3.334   6.139  0.6603 -0.1703  0.1404
11924TIP3    H135715   5.682   3.421   6.100 -0.1450  0.5250  1.7121
11924TIP3    H235716   5.606   3.291   6.112 -0.7459  0.9187  2.2985
11925TIP3   OH235717   3.254   0.198   4.526  0.2805  0.3116 -0.0203
11925TIP3    H135718   3.283   0.205   4.435 -1.4563  0.8958 -0.5859
11925TIP3    H235719   3.207   0.280   4.542 -0.8593 -0.4641  0.8399
11926TIP3   OH235720   3.253   7.133   3.550 -0.0031 -0.4345  0.1929
11926TIP3    H135721   3.283   7.112   3.461 -3.3670 -0.0010 -1.1982
11926TIP3    H235722   3.251   7.228   3.552 -1.4362 -0.4424  0.1123
11927TIP3   OH235723   4.990   6.327   0.588  0.1432 -0.0008 -0.0661
11927TIP3    H135724   5.038   6.246   0.606 -0.7595 -0.1890  1.6522
11927TIP3    H235725   4.916   6.299   0.534  0.3617 -0.1477 -0.2973
11928TIP3   OH235726   7.752   7.788   4.682  0.1248  0.2420  0.2689
11928TIP3    H135727   7.816   7.800   4.612  0.1904  0.9962  0.4492
11928TIP3    H235728   7.711   7.704   4.662  0.4145  0.2594 -0.4535
11929TIP3   OH235729   2.788   0.018   2.394  0.2621 -0.5847 -0.4407
11929TIP3    H135730   2.709  -0.028   2.366 -0.6626 -0.5577  1.9116
11929TIP3    H235731   2.813   0.071   2.318 -2.2327 -0.2572 -1.0982
11930TIP3   OH235732   4.221   6.283   4.508  0.0986 -0.0640 -0.0261
11930TIP3    H135733   4.304   6.330   4.516 -0.3513  0.5786  1.0515
11930TIP3    H235734   4.213   6.235   4.591  1.7617 -4.1452 -1.9392
11931TIP3   OH235735   6.754   5.195   2.036  0.1561 -0.2423  0.0146
11931TIP3    H135736   6.785   5.133   2.102  0.8706  1.9324  1.8461
11931TIP3    H235737   6.687   5.148   1.988  1.6896 -2.9216  0.3158
11932TIP3   OH235738   4.887   7.236   6.290 -0.3437 -0.2826 -0.4177
11932TIP3    H135739   4.802   7.223   6.334  1.0639  0.7705  2.9765
11932TIP3    H235740   4.877   7.319   6.243 -0.9260  0.4443  0.9118
11933TIP3   OH235741   2.371   4.949   2.215  0.1567 -0.0535  0.3283
11933TIP3    H135742   2.315   4.999   2.156 -0.7110 -0.5645  0.7009
11933TIP3    H235743   2.408   5.014   2.275  0.7403  0.4138 -0.5209
11934TIP3   OH235744   0.595   6.583   5.863 -0.0868 -0.0724  0.1195
11934TIP3    H135745   0.662   6.648   5.841 -0.7363  0.4991 -0.1706
11934TIP3    H235746   0.574   6.541   5.780 -2.1517  1.7211 -0.3441
11935TIP3   OH235747   0.462   4.061   0.003 -0.4114  0.2450  0.3469
11935TIP3    H135748   0.522   4.094   0.070  0.0471  0.0525  0.0412
11935TIP3    H235749   0.513   3.993  -0.042 -0.1864  1.3405 -1.1311
11936TIP3   OH235750   0.834   5.439   1.870  0.1680  0.5367  0.3455
11936TIP3    H135751   0.895   5.512   1.883  2.3877 -1.0614 -0.4704
11936TIP3    H235752   0.826   5.432   1.775  2.6281 -2.2030  0.1995
11937TIP3   OH235753   4.248   5.707   0.488  0.2096 -0.0879  0.1633
11937TIP3    H135754   4.291   5.632   0.529 -0.1606 -1.4607 -1.8652
11937TIP3    H235755   4.317   5.750   0.438 -0.0173 -0.2940 -0.3343
11938TIP3   OH235756   8.243   6.742   5.143  0.4258  0.0842 -0.3436
11938TIP3    H135757   8.239   6.821   5.090  2.2641 -0.1554 -0.9332
11938TIP3    H235758   8.182   6.681   5.100 -0.4029  0.8929 -0.3424
11939TIP3   OH235759   1.936   7.521   2.033  0.6527  0.3222  0.3039
11939TIP3    H135760   1.933   7.484   2.121  0.9161  1.2905  0.7199
11939TIP3    H235761   2.028   7.518   2.008  0.7649  1.2777  0.5890
11940TIP3   OH235762   6.133   5.550   0.694 -0.1581 -0.5758 -0.1563
11940TIP3    H135763   6.147   5.457   0.679  1.0525 -0.1243 -2.2479
11940TIP3    H235764   6.041   5.565   0.672 -0.8180 -1.4766  1.7187
11941TIP3   OH235765   7.485   0.005   4.348 -0.2665  0.2478  0.0033
11941TIP3    H135766   7.475   0.070   4.418 -1.3758  0.5746 -0.4335
11941TIP3    H235767   7.412  -0.056   4.363 -0.0816 -0.0844 -0.4450
11942TIP3   OH235768   5.042   3.310   2.244 -0.4049  0.4388  0.6264
11942TIP3    H135769   5.112   3.352   2.295 -0.6153  1.7570 -0.1286
11942TIP3    H235770   4.964   3.321   2.297  0.0509 -1.9198  1.9522
11943TIP3   OH235771   6.431   7.311   6.012 -0.0978  0.3831 -0.0755
11943TIP3    H135772   6.492   7.241   6.034 -0.7866  0.4242  2.2233
11943TIP3    H235773   6.474   7.391   6.042 -0.9972  0.4777  1.0064
11944TIP3   OH235774   7.240   3.887   0.433  0.1021  0.2865 -0.5413
11944TIP3    H135775   7.224   3.847   0.518  0.0228  0.6848 -0.3700
11944TIP3    H235776   7.315   3.840   0.398  0.6804  0.7129  0.1249
11945TIP3   OH235777   7.491   5.972   3.348 -0.1562 -0.0451  0.1995
11945TIP3    H135778   7.463   5.880   3.343  2.6725 -1.0702  1.0287
11945TIP3    H235779   7.439   6.009   3.420 -1.0033 -1.1139  0.1681
11946TIP3   OH235780   7.098   7.616   5.201  0.0169  0.1793  0.0570
11946TIP3    H135781   7.094   7.526   5.234  0.4715  0.1873  0.1409
11946TIP3    H235782   7.151   7.663   5.265 -1.4798  0.8870  0.8358
11947TIP3   OH235783   4.174   4.819   1.010 -0.4037 -0.2054 -0.0404
11947TIP3    H135784   4.255   4.830   0.961  0.9395  0.1880  2.1135
11947TIP3    H235785   4.116   4.887   0.978  1.6808  2.3708  1.2558
11948TIP3   OH235786   5.974   5.037   6.214 -0.2193  0.2036  0.1704
11948TIP3    H135787   6.068   5.052   6.221 -0.3311  0.7799  0.5960
11948TIP3    H235788   5.964   4.974   6.143  0.4987 -0.0074  0.2494
11949TIP3   OH235789   2.774   2.569   5.871 -0.0821  0.5226 -0.1450
11949TIP3    H135790   2.725   2.628   5.814  1.4109  1.1044 -0.8769
11949TIP3    H235791   2.862   2.606   5.874  0.0794  0.1247  2.0017
11950TIP3   OH235792   4.990   3.666   1.558  0.2485 -0.0338 -0.4898
11950TIP3    H135793   5.057   3.634   1.498 -0.3330 -0.1116 -1.1081
11950TIP3    H235794   5.025   3.646   1.645  1.3159  0.5124 -0.7718
11951TIP3   OH235795   1.551   1.651   1.661  0.3968  0.1562 -0.1724
11951TIP3    H135796   1.480   1.593   1.635 -0.2422  0.3162  1.1609
11951TIP3    H235797   1.552   1.648   1.756  2.3224 -0.0031 -0.1506
11952TIP3   OH235798   0.571   2.810   2.242 -0.4964 -0.6173  0.0174
11952TIP3    H135799   0.587   2.750   2.169 -0.0428 -1.3060  0.6663
11952TIP3    H235800   0.482   2.843   2.228  0.4174  1.1831 -2.1995
11953TIP3   OH235801   5.750   0.953   6.273  0.2859  0.7076  1.1106
11953TIP3    H135802   5.806   0.940   6.350  1.6238  1.2479  0.2768
11953TIP3    H235803   5.797   1.018   6.221 -0.9796  0.9193  0.2021
11954TIP3   OH235804   7.766   5.414   0.241  0.1830 -0.2351 -0.2212
11954TIP3    H135805   7.781   5.476   0.170  1.0715  2.5588  2.1628
11954TIP3    H235806   7.683   5.372   0.220  1.2175 -0.8416 -3.6584
11955TIP3   OH235807   2.092   3.698   1.203  0.3849  0.2741  0.0269
11955TIP3    H135808   2.110   3.706   1.109  1.4308  1.6069  0.3180
11955TIP3    H235809   2.178   3.688   1.243 -0.1648 -3.3374  0.6562
11956TIP3   OH235810   2.630   0.626   6.023 -0.7486  0.3684  0.2019
11956TIP3    H135811   2.564   0.563   6.050 -0.8302 -0.4073 -1.6794
11956TIP3    H235812   2.581   0.694   5.976 -0.8051  2.4447  2.9533
11957TIP3   OH235813   7.868   5.231   0.425  0.4964  0.4512 -0.4609
11957TIP3    H135814   7.798   5.167   0.413  0.0365 -0.0551  3.5538
11957TIP3    H235815   7.828   5.314   0.398 -1.4598  0.0450  0.9433
11958TIP3   OH235816   3.835   6.900   5.521  0.2100  0.3187 -0.4262
11958TIP3    H135817   3.875   6.897   5.608 -0.5921  0.3622 -0.0494
11958TIP3    H235818   3.796   6.813   5.510 -0.7960  0.7233 -0.1957
11959TIP3   OH235819   8.166   7.357   4.168  0.3495 -0.2274  0.0414
11959TIP3    H135820   8.123   7.371   4.252 -1.4102 -0.7842 -0.7209
11959TIP3    H235821   8.258   7.339   4.190 -0.1206 -0.5853  1.8350
11960TIP3   OH235822   5.269   1.669   2.221  0.1881 -0.2653  0.5334
11960TIP3    H135823   5.267   1.662   2.317  2.2213 -1.8091  0.5376
11960TIP3    H235824   5.208   1.601   2.191 -1.7465  1.3139  0.6644
11961TIP3   OH235825   6.272   4.974   2.814  0.3544 -0.5635  0.8021
11961TIP3    H135826   6.339   4.927   2.766 -0.7948 -0.9647 -0.4627
11961TIP3    H235827   6.241   4.912   2.880 -0.3047 -1.1658 -0.0621
11962TIP3   OH235828   0.791   5.989   1.038  0.0111 -0.2046 -0.5029
11962TIP3    H135829   0.821   6.075   1.068  2.0936 -0.8761 -0.5337
11962TIP3    H235830   0.805   5.991   0.943 -0.9738 -0.2119 -0.6609
11963TIP3   OH235831   7.116   2.360   5.978  0.0448 -0.2261  0.0805
11963TIP3    H135832   7.148   2.425   6.041 -0.2090  1.6673 -1.6646
11963TIP3    H235833   7.195   2.313   5.951  0.6229  0.9552 -0.3723
11964TIP3   OH235834   5.281   5.990   4.511 -0.4625 -0.6867  0.1428
11964TIP3    H135835   5.283   5.986   4.415 -2.4195  0.0358  0.0261
11964TIP3    H235836   5.310   6.079   4.532 -2.0048 -0.1311  0.0638
11965TIP3   OH235837   7.821   7.649   6.325 -0.3566  0.6699 -0.1626
11965TIP3    H135838   7.872   7.613   6.398  0.1696 -2.4357 -1.8991
11965TIP3    H235839   7.730   7.640   6.353 -0.1359  0.6557  0.5873
11966TIP3   OH235840   6.053   1.900   6.503 -0.0062  0.0491 -0.2323
11966TIP3    H135841   5.998   1.957   6.449 -0.7880 -0.4742  0.0070
11966TIP3    H235842   6.075   1.953   6.579 -0.7191  0.0405 -0.0164
11967TIP3   OH235843   2.120   7.117   2.328 -0.0155 -0.3872  0.6015
11967TIP3    H135844   2.152   7.164   2.405 -0.0588  1.4425 -0.4326
11967TIP3    H235845   2.060   7.051   2.363  1.6752 -1.1587  2.2729
11968TIP3   OH235846   6.958   7.700   6.534 -0.5244 -0.3099 -0.4216
11968TIP3    H135847   6.918   7.704   6.621 -0.3928 -0.2115 -0.3649
11968TIP3    H235848   6.940   7.611   6.504 -0.4745 -0.3805 -0.2450
11969TIP3   OH235849   7.846   1.334   3.493  0.2171 -0.0132  0.5874
11969TIP3    H135850   7.836   1.427   3.515 -1.2637 -0.4913  2.1745
11969TIP3    H235851   7.772   1.315   3.435  0.5133 -0.1935  0.2704
11970TIP3   OH235852   0.251   4.519   2.337 -0.2566 -0.4026 -0.4947
11970TIP3    H135853   0.246   4.503   2.242  0.7839 -0.6518 -0.5282
11970TIP3    H235854   0.238   4.613   2.346 -1.7994 -0.5651 -0.7361
11971TIP3   OH235855   3.033   1.344   3.007  0.3885  0.0156 -0.2809
11971TIP3    H135856   3.050   1.333   2.913 -0.3616 -0.5863 -0.3550
11971TIP3    H235857   3.111   1.310   3.050  0.1776 -0.9550 -0.6560
11972TIP3   OH235858   6.055   0.310   2.106  0.3398  0.3505  0.5375
11972TIP3    H135859   6.125   0.332   2.168  1.6424 -1.4141 -0.1974
11972TIP3    H235860   5.995   0.255   2.156  0.7486 -0.0700  0.5786
11973TIP3   OH235861   3.491   4.960   1.549  0.3933 -0.6353  0.0024
11973TIP3    H135862   3.487   5.051   1.522  1.2035  0.2820  2.6020
11973TIP3    H235863   3.400   4.931   1.552 -0.0353  0.6865  0.8138
11974TIP3   OH235864   1.986   1.788   1.147  0.0465  0.3217  0.1335
11974TIP3    H135865   1.898   1.751   1.151  0.4340 -0.6956 -0.3224
11974TIP3    H235866   2.039   1.730   1.200  0.6422  0.3136 -0.4539
11975TIP3   OH235867   7.510   4.099   0.122 -0.2484 -0.5751  0.0782
11975TIP3    H135868   7.551   4.179   0.088  3.5950 -1.8149  1.2410
11975TIP3    H235869   7.494   4.045   0.044  1.0326 -0.2584 -0.4355
11976TIP3   OH235870   5.042   0.058   2.738 -0.4608 -0.1600 -0.1447
11976TIP3    H135871   4.949   0.076   2.752 -0.4763  0.3238 -0.8367
11976TIP3    H235872   5.086   0.139   2.763 -0.3428  0.0738 -1.0575
11977TIP3   OH235873   5.730   5.625   3.191  0.7254 -0.6094  0.0449
11977TIP3    H135874   5.821   5.597   3.183  1.2308  0.4748  1.5669
11977TIP3    H235875   5.733   5.720   3.179 -0.4658 -0.7247 -1.5437
11978TIP3   OH235876   3.791   5.695   6.612  0.1909 -0.1976 -0.0048
11978TIP3    H135877   3.853   5.740   6.555  1.8255 -1.0665  1.0320
11978TIP3    H235878   3.782   5.753   6.688 -0.5623  0.0915 -0.3053
11979TIP3   OH235879   4.854   1.920   3.226  0.4960  0.2886 -0.5487
11979TIP3    H135880   4.787   1.973   3.184  0.1538  0.6459  0.4213
11979TIP3    H235881   4.905   1.982   3.278 -0.5258 -0.4404  1.3877
11980TIP3   OH235882   1.606   7.258   1.691  0.2261  0.2808 -0.0320
11980TIP3    H135883   1.544   7.186   1.702  2.6800 -1.9618  0.3704
11980TIP3    H235884   1.566   7.316   1.627 -1.8941 -1.4580 -0.3915
11981TIP3   OH235885   3.889   6.742   4.909  0.0698 -0.2461 -0.4373
11981TIP3    H135886   3.842   6.809   4.959 -0.3364 -1.1628  0.4504
11981TIP3    H235887   3.822   6.706   4.850 -0.1022 -0.8892  0.1444
11982TIP3   OH235888   6.814   3.594   2.545  0.2776  0.7939  0.0661
11982TIP3    H135889   6.842   3.503   2.551  1.2660  1.1420  0.9392
11982TIP3    H235890   6.740   3.592   2.483  0.7672 -0.4785 -0.5158
11983TIP3   OH235891   2.417   4.684   1.731 -0.3983  0.3707 -0.8604
11983TIP3    H135892   2.403   4.770   1.771  0.5817 -0.1838  0.7920
11983TIP3    H235893   2.510   4.665   1.747 -0.9702 -1.7038  0.3609
11984TIP3   OH235894   2.513   7.687   3.883 -0.5845 -0.1472  0.1046
11984TIP3    H135895   2.495   7.775   3.917  1.1846 -0.0800  1.0138
11984TIP3    H235896   2.601   7.668   3.915 -0.6424 -1.9483 -0.7396
11985TIP3   OH235897   5.115   4.733   0.849  0.1982  0.0081 -0.1417
11985TIP3    H135898   5.122   4.649   0.803 -0.9702 -0.6538  0.8213
11985TIP3    H235899   5.201   4.774   0.839  0.3822 -0.7156 -1.7391
11986TIP3   OH235900   6.709   6.436   5.307 -0.5900 -0.4876 -0.1185
11986TIP3    H135901   6.643   6.414   5.373 -0.8389 -0.1931 -0.2678
11986TIP3    H235902   6.697   6.529   5.292 -0.8329 -0.6418 -0.9126
11987TIP3   OH235903   5.560   3.394   5.352 -0.3050  0.0566 -0.1890
11987TIP3    H135904   5.630   3.365   5.411 -0.3590 -0.6829 -0.4838
11987TIP3    H235905   5.495   3.323   5.355 -0.1233 -0.1874 -1.4467
11988TIP3   OH235906   2.757   1.717   4.967 -0.2022 -0.0200  0.0922
11988TIP3    H135907   2.669   1.683   4.984  0.0556 -0.1787  1.1692
11988TIP3    H235908   2.812   1.639   4.958  0.1243  0.0826  1.0972
11989TIP3   OH235909   2.061   6.715   4.844  0.3690 -0.1484 -0.0155
11989TIP3    H135910   1.978   6.722   4.798 -0.6641  0.3372  1.8447
11989TIP3    H235911   2.080   6.804   4.875  1.5638 -0.2578 -0.3768
11990TIP3   OH235912   0.612   2.700   2.868  0.1148  0.4040  0.1294
11990TIP3    H135913   0.628   2.647   2.790 -2.0650 -1.8700  1.0673
11990TIP3    H235914   0.695   2.698   2.916  1.3870  1.5496 -1.8452
11991TIP3   OH235915   1.791   2.753   0.198 -0.3504 -0.2377 -0.0744
11991TIP3    H135916   1.744   2.718   0.274 -1.3372  1.3396  0.1021
11991TIP3    H235917   1.857   2.687   0.178 -0.3579 -0.9149  1.8692
11992TIP3   OH235918   5.280   6.562   6.017  0.7066  0.3659  0.4297
11992TIP3    H135919   5.213   6.629   6.032  0.8709  0.6316 -0.0053
11992TIP3    H235920   5.329   6.558   6.098  0.4273  0.4690  0.6058
11993TIP3   OH235921   7.479   0.136   5.715  0.3407  0.0420  0.2592
11993TIP3    H135922   7.387   0.162   5.714  0.1004 -0.7039  1.3616
11993TIP3    H235923   7.512   0.162   5.629 -0.9498  0.1218 -0.2346
11994TIP3   OH235924   5.439   2.926   4.122 -0.4219 -0.1422  0.0748
11994TIP3    H135925   5.474   2.991   4.184  1.1242 -0.5678 -0.2889
11994TIP3    H235926   5.348   2.914   4.148 -0.1277  0.5411  1.5382
11995TIP3   OH235927   8.061   2.989   6.414 -0.3310  0.1691  0.1652
11995TIP3    H135928   7.967   2.998   6.404 -0.4109  1.4120  1.6377
11995TIP3    H235929   8.096   3.076   6.394  0.3575  0.0929  0.9682
11996TIP3   OH235930   2.369   0.949   3.574 -0.0370  0.3752 -0.4722
11996TIP3    H135931   2.370   1.025   3.633 -1.2648 -0.0228  0.1047
11996TIP3    H235932   2.391   0.985   3.488  1.9494  0.9525  0.2228
11997TIP3   OH235933   6.683   5.088   5.895  0.1455 -0.1112 -0.2066
11997TIP3    H135934   6.619   5.127   5.835 -1.6894  0.7200  2.1276
11997TIP3    H235935   6.702   5.158   5.958  3.2654 -0.4183 -0.6872
11998TIP3   OH235936   0.713   2.199   0.033  0.6271 -0.0808 -0.0628
11998TIP3    H135937   0.747   2.287   0.014 -1.0678  0.5858 -0.1904
11998TIP3    H235938   0.618   2.209   0.029  0.3390 -1.4885  1.8240
11999TIP3   OH235939   3.019   3.923   6.562 -0.4345  0.3776 -0.2712
11999TIP3    H135940   3.003   3.986   6.633 -0.6801 -0.1039  0.1096
11999TIP3    H235941   2.954   3.854   6.577 -1.2619  0.8102 -1.6277
12000TIP3   OH235942   4.160   3.726   2.368  0.2646 -0.2631 -0.1051
12000TIP3    H135943   4.170   3.694   2.279  1.9131 -2.3081  0.7415
12000TIP3    H235944   4.080   3.685   2.400 -0.8983  1.2846 -0.9182
12001TIP3   OH235945   7.758   6.914   6.666 -0.0704  0.0862 -0.0014
12001TIP3    H135946   7.848   6.933   6.694 -0.0347  0.6294 -0.4674
12001TIP3    H235947   7.767   6.845   6.601 -0.1473 -1.1280  1.2241
12002TIP3   OH235948   0.573   4.197   4.639 -0.0320 -0.2408  0.2302
12002TIP3    H135949   0.663   4.166   4.651 -0.2453 -0.8211  0.3586
12002TIP3    H235950   0.579   4.261   4.567  0.2530 -1.4130 -0.8295
12003TIP3   OH235951   6.068   1.989   1.172  0.1564  0.2932  0.6666
12003TIP3    H135952   6.064   1.923   1.241  0.0498  0.5759  0.9335
12003TIP3    H235953   6.161   1.996   1.150  0.2238  0.4288  0.9991
12004TIP3   OH235954   0.626   3.606   5.523  0.1735 -0.0569 -0.2638
12004TIP3    H135955   0.554   3.656   5.487  1.8943  1.8111 -1.3026
12004TIP3    H235956   0.603   3.592   5.615 -1.2227  1.0103 -0.4331
12005TIP3   OH235957   2.930   1.494   5.538 -0.2346 -0.5929 -0.1143
12005TIP3    H135958   2.920   1.561   5.470 -0.6364 -1.6193 -1.0927
12005TIP3    H235959   2.868   1.521   5.607 -1.9959 -1.0832 -1.4391
12006TIP3   OH235960   3.231   4.219   2.926 -0.2878 -0.2405  0.8701
12006TIP3    H135961   3.195   4.305   2.949  0.6120 -0.3274  2.7908
12006TIP3    H235962   3.154   4.164   2.911 -0.8838  0.5790  0.8521
12007TIP3   OH235963   7.067   6.253   3.772 -0.0286 -0.0583 -0.2000
12007TIP3    H135964   7.018   6.290   3.698 -0.4618 -0.3491 -0.0573
12007TIP3    H235965   7.025   6.289   3.850  1.7527  1.9978 -0.0781
12008TIP3   OH235966   1.155   4.809   4.323  0.3651  0.4950 -0.0165
12008TIP3    H135967   1.106   4.890   4.335 -2.0636 -0.6489 -1.4332
12008TIP3    H235968   1.120   4.750   4.390 -1.4149 -0.8055 -1.9934
12009TIP3   OH235969   0.736   0.265   4.832 -0.7016 -0.0093 -0.4583
12009TIP3    H135970   0.712   0.172   4.831  1.3166 -0.6038  0.3341
12009TIP3    H235971   0.798   0.274   4.760 -1.5147  0.9404 -1.0566
12010TIP3   OH235972   0.778   0.542   2.399  0.3889 -0.4389 -0.1484
12010TIP3    H135973   0.791   0.541   2.304  0.5701 -2.1172 -0.1322
12010TIP3    H235974   0.695   0.496   2.412  0.0037  0.3971  0.4798
12011TIP3   OH235975   4.174   6.059   3.345 -0.3880 -0.0484  0.1145
12011TIP3    H135976   4.164   6.148   3.313  1.0793 -0.1307 -0.6311
12011TIP3    H235977   4.087   6.019   3.332 -0.8520  1.0407 -0.2017
12012TIP3   OH235978   8.010   1.591   1.770  0.7455 -0.3158 -0.6338
12012TIP3    H135979   7.985   1.551   1.853  0.9231  1.0942  0.1340
12012TIP3    H235980   8.038   1.518   1.715 -1.8075 -1.6049 -0.3736
12013TIP3   OH235981   6.441   5.419   6.134 -0.1569  0.2045 -0.0322
12013TIP3    H135982   6.503   5.464   6.192  0.9039 -0.0617 -0.9291
12013TIP3    H235983   6.475   5.435   6.046 -1.2792 -0.0997 -0.5300
12014TIP3   OH235984   3.732   0.963   3.928 -0.3570 -0.1488 -0.2360
12014TIP3    H135985   3.742   1.058   3.918  0.0013 -0.2223 -0.5875
12014TIP3    H235986   3.644   0.945   3.894 -1.3076  0.3307  1.7585
12015TIP3   OH235987   4.921   1.267   0.518  0.2328  0.2710  0.2712
12015TIP3    H135988   4.922   1.195   0.581  0.1225  0.5435  0.5856
12015TIP3    H235989   4.854   1.241   0.454  1.9300 -1.1186 -1.0562
12016TIP3   OH235990   0.629   0.236   4.052 -0.1161  0.3688 -0.6658
12016TIP3    H135991   0.650   0.316   4.002 -3.9425  1.3223 -1.0235
12016TIP3    H235992   0.623   0.167   3.986  0.6352  0.3030 -0.6811
12017TIP3   OH235993   7.370   4.455   3.196 -0.2986 -0.0836  0.3151
12017TIP3    H135994   7.428   4.393   3.240 -0.4344 -0.8373 -0.5423
12017TIP3    H235995   7.399   4.456   3.105 -1.3217 -0.1242 -0.0349
12018TIP3   OH235996   6.753   1.544   4.744 -0.5231 -0.8021  0.3309
12018TIP3    H135997   6.736   1.577   4.832 -0.3624  2.1617 -0.6455
12018TIP3    H235998   6.672   1.561   4.696  0.5609  1.0405 -0.9673
12019TIP3   OH235999   2.648   2.170   1.937  0.2484 -0.2256  0.8316
12019TIP3    H136000   2.699   2.232   1.885  2.0018 -0.2854  2.4008
12019TIP3    H236001   2.699   2.089   1.936 -1.7267 -1.5635 -0.6923
12020TIP3   OH236002   0.634   5.969   6.133  0.1054  0.4035 -0.0769
12020TIP3    H136003   0.633   5.943   6.041 -0.2072  0.1045  0.0087
12020TIP3    H236004   0.696   5.909   6.174 -1.0073 -0.5768  0.2195
12021TIP3   OH236005   4.336   6.268   1.260  0.0445 -0.5194  0.1255
12021TIP3    H136006   4.269   6.248   1.325  1.1060  0.4568  1.6157
12021TIP3    H236007   4.366   6.183   1.228 -2.8905 -0.9842 -1.7566
12022TIP3   OH236008   1.874   2.133   0.580  0.6951 -0.3037  0.7227
12022TIP3    H136009   1.890   2.112   0.488  1.4883  0.0384  0.7743
12022TIP3    H236010   1.790   2.179   0.579  1.3674  0.9913 -0.0421
12023TIP3   OH236011   6.319   2.006   1.050 -0.0114 -0.5901 -0.0933
12023TIP3    H136012   6.414   2.013   1.063  0.1802  0.4842 -1.7951
12023TIP3    H236013   6.307   1.923   1.003  0.4021  0.4281 -2.1087
12024TIP3   OH236014   8.115   0.791   2.044  0.2192  0.3276 -0.4659
12024TIP3    H136015   8.056   0.865   2.058 -0.0197 -0.1267  1.1584
12024TIP3    H236016   8.088   0.753   1.960 -1.1103  0.7464 -0.2394
12025TIP3   OH236017   5.967   3.506   0.898 -0.1208  0.0323  0.3052
12025TIP3    H136018   5.908   3.581   0.907 -0.3154 -0.2438  1.5215
12025TIP3    H236019   5.923   3.448   0.836  0.0636  0.9320 -0.6986
12026TIP3   OH236020   7.894   6.426   5.969  0.0035 -0.0850 -0.5118
12026TIP3    H136021   7.988   6.436   5.960  0.3775 -2.1370  0.4591
12026TIP3    H236022   7.867   6.375   5.893  0.2148 -1.9730  0.6053
12027TIP3   OH236023   0.365   5.855   1.926 -0.0521  0.0432 -0.2379
12027TIP3    H136024   0.449   5.822   1.958  0.4720  2.4721  1.1848
12027TIP3    H236025   0.345   5.929   1.984 -1.4184  1.7662 -2.7214
12028TIP3   OH236026   4.642   0.829   3.401  0.1448  0.1365  0.2521
12028TIP3    H136027   4.673   0.758   3.344  1.6812  0.3952  0.7131
12028TIP3    H236028   4.615   0.785   3.481  2.4250  0.1192  1.0878
12029TIP3   OH236029   1.043   2.341   4.648  0.3760  0.0778  0.4424
12029TIP3    H136030   0.995   2.325   4.729  0.9608 -0.4426  0.6900
12029TIP3    H236031   1.091   2.260   4.632  1.2043  0.5961  0.2208
12030TIP3   OH236032   7.868   6.729   4.501  0.0336 -0.2782 -0.2731
12030TIP3    H136033   7.822   6.672   4.563  0.2040  0.8852  0.9692
12030TIP3    H236034   7.884   6.673   4.425  0.7436 -2.0868  1.1172
12031TIP3   OH236035   6.838   3.621   1.251  0.0094 -0.3482 -0.4444
12031TIP3    H136036   6.804   3.644   1.337  1.8372  0.3450  0.1311
12031TIP3    H236037   6.776   3.662   1.190  0.0618  1.3134  0.5490
12032TIP3   OH236038   0.635   3.271   1.135  0.1423 -0.1547  0.4394
12032TIP3    H136039   0.597   3.189   1.167  1.0972  0.4004  3.3868
12032TIP3    H236040   0.719   3.246   1.097 -0.5891 -0.7530 -0.8388
12033TIP3   OH236041   5.120   5.964   1.738  0.2227  0.0499  0.1156
12033TIP3    H136042   5.211   5.939   1.757 -0.5402 -1.6043  1.8843
12033TIP3    H236043   5.098   5.913   1.660  0.7634  0.3337 -0.2272
12034TIP3   OH236044   3.820   5.342   3.609  0.0879  0.2543 -0.7348
12034TIP3    H136045   3.762   5.417   3.601 -0.0004  0.0424 -2.3787
12034TIP3    H236046   3.883   5.367   3.677  0.3110  1.9837 -1.5311
12035TIP3   OH236047   2.727   2.073   6.191 -0.1134 -0.2135  0.2886
12035TIP3    H136048   2.797   2.023   6.150  0.6907  0.2605  1.0574
12035TIP3    H236049   2.724   2.154   6.140 -1.0474 -0.7822 -0.6086
12036TIP3   OH236050   6.271   5.273   1.813 -0.2119  0.3189 -0.1388
12036TIP3    H136051   6.205   5.297   1.879  1.0317  1.7177  0.6656
12036TIP3    H236052   6.342   5.335   1.827  2.6922 -2.9271  1.1287
12037TIP3   OH236053   6.411   1.633   0.097 -0.0874 -0.8578 -0.4080
12037TIP3    H136054   6.390   1.616   0.189 -0.0683 -1.2431 -0.4735
12037TIP3    H236055   6.354   1.706   0.073  0.5581 -0.1485  0.1616
12038TIP3   OH236056   1.877   7.155   1.734 -0.3325  0.0600  0.0526
12038TIP3    H136057   1.918   7.168   1.648 -0.7208  0.0896 -0.1305
12038TIP3    H236058   1.784   7.166   1.717 -0.5038 -0.9636  0.2864
12039TIP3   OH236059   0.455   2.704   3.443 -0.0370 -0.6611 -0.0914
12039TIP3    H136060   0.515   2.768   3.404 -0.7615  0.7948  1.0854
12039TIP3    H236061   0.494   2.682   3.527 -0.8772 -0.0713  0.4709
12040TIP3   OH236062   6.763   3.577   0.297  0.1804 -0.2212 -0.0009
12040TIP3    H136063   6.717   3.656   0.326 -0.2709 -0.5034  0.0684
12040TIP3    H236064   6.853   3.605   0.283  0.0593  0.2688  0.1833
12041TIP3   OH236065   6.818   0.047   2.863 -0.2988  0.7819 -0.5812
12041TIP3    H136066   6.762  -0.014   2.910 -0.4444  1.0299 -0.4325
12041TIP3    H236067   6.773   0.063   2.780  1.5575 -2.3034 -2.3653
12042TIP3   OH236068   5.329   6.823   2.067 -0.3523 -0.8242  0.0581
12042TIP3    H136069   5.376   6.831   1.984  0.7918  0.2592  0.7824
12042TIP3    H236070   5.324   6.728   2.082  2.4538 -0.9944  0.3911
12043TIP3   OH236071   6.145   3.603   5.064 -0.1566  0.0752 -0.2369
12043TIP3    H136072   6.140   3.664   5.137 -0.9203 -1.7102  1.2684
12043TIP3    H236073   6.140   3.659   4.986 -0.5095  1.9431  1.0611
12044TIP3   OH236074   6.608   6.659   2.900 -0.1112  0.4236  0.2042
12044TIP3    H136075   6.570   6.575   2.927  0.6432 -0.1648 -0.5420
12044TIP3    H236076   6.591   6.717   2.974 -1.1090 -0.2370  0.5188
12045TIP3   OH236077   1.000   7.073   5.241 -0.3889  0.4897 -0.4736
12045TIP3    H136078   1.089   7.083   5.208 -0.9195 -0.1851 -2.2157
12045TIP3    H236079   0.965   7.162   5.243  0.3444  0.7806  0.3872
12046TIP3   OH236080   1.346   0.656   6.107 -0.0801  0.0235  0.6770
12046TIP3    H136081   1.310   0.742   6.084 -1.5682 -0.8335 -0.3644
12046TIP3    H236082   1.440   0.672   6.120 -0.0807  1.5650 -0.8247
12047TIP3   OH236083   2.639   0.213   6.668 -0.3762 -0.2588 -0.2885
12047TIP3    H136084   2.583   0.141   6.695  0.7027 -1.2607 -0.6369
12047TIP3    H236085   2.720   0.171   6.637 -0.2274  1.0112 -1.7904
12048TIP3   OH236086   2.503   6.757   6.755  0.1544 -0.9941 -0.0491
12048TIP3    H136087   2.438   6.822   6.783  0.8256 -0.8036  1.1689
12048TIP3    H236088   2.463   6.673   6.777 -0.6516 -1.0130 -1.4822
12049TIP3   OH236089   7.067   1.472   0.676  0.2525 -0.5542 -0.1664
12049TIP3    H136090   6.981   1.510   0.694  1.3479  1.3062  1.5058
12049TIP3    H236091   7.098   1.517   0.597  0.4332  0.1467  0.2930
12050TIP3   OH236092   0.634   5.976   5.845  0.4632 -0.0355  0.3523
12050TIP3    H136093   0.588   5.893   5.832  1.2945 -0.4326 -0.1511
12050TIP3    H236094   0.640   6.014   5.757  2.5625 -0.8068  0.0980
12051TIP3   OH236095   0.588   1.558   1.170  0.5400 -0.2046 -0.6348
12051TIP3    H136096   0.547   1.473   1.154  0.7871 -0.0100 -2.5717
12051TIP3    H236097   0.514   1.619   1.174  0.4366 -0.3195 -0.7604
12052TIP3   OH236098   2.974   6.655   4.276 -0.1165  0.3494  0.1462
12052TIP3    H136099   2.987   6.634   4.369 -0.4345 -0.4655  0.0148
12052TIP3    H236100   2.881   6.676   4.269 -0.4550 -1.2094 -0.2766
12053TIP3   OH236101   1.773   4.714   3.445 -0.2956  0.1718  0.2929
12053TIP3    H136102   1.736   4.800   3.465 -1.3970  0.3664 -2.1880
12053TIP3    H236103   1.775   4.711   3.349  1.9981 -1.6306  0.3106
12054TIP3   OH236104   0.722   4.910   2.001  0.3712 -0.4871 -0.4478
12054TIP3    H136105   0.762   4.988   1.962 -1.0214  0.9482  0.8559
12054TIP3    H236106   0.796   4.854   2.024  1.4921  1.0451 -0.1972
12055TIP3   OH236107   2.386   1.102   4.585  0.2710 -0.1889 -0.3417
12055TIP3    H136108   2.368   1.021   4.536  0.8170 -1.3391  1.2660
12055TIP3    H236109   2.481   1.109   4.586  0.2228  1.7061 -2.2914
12056TIP3   OH236110   5.048   5.480   0.034  0.5327 -0.3412 -0.0729
12056TIP3    H136111   5.095   5.445  -0.042 -0.1055 -0.9280 -0.2059
12056TIP3    H236112   4.974   5.420   0.046  0.6586 -0.2924  1.0545
12057TIP3   OH236113   5.573   6.047   5.173  0.4905 -0.4444 -0.3601
12057TIP3    H136114   5.529   6.026   5.090  0.4423 -0.7760 -0.2520
12057TIP3    H236115   5.540   6.134   5.196  0.4564 -0.3784 -0.6588
12058TIP3   OH236116   2.844   2.072   1.564 -0.1381 -0.5107 -0.5384
12058TIP3    H136117   2.839   2.140   1.632  1.5582 -0.4028 -0.4929
12058TIP3    H236118   2.892   2.000   1.605 -1.1317 -1.3975 -0.8890
12059TIP3   OH236119   2.711   7.485   5.655  0.1636  0.0843  0.4974
12059TIP3    H136120   2.668   7.529   5.728  0.2161  0.2703  0.4151
12059TIP3    H236121   2.768   7.551   5.616 -2.2710  1.0364 -1.7509
12060TIP3   OH236122   0.021   5.613   0.829  0.0537  0.4711 -0.0403
12060TIP3    H136123   0.038   5.611   0.923 -0.0270  2.5753  0.0622
12060TIP3    H236124  -0.048   5.548   0.816  1.2642 -1.1131  1.0479
12061TIP3   OH236125   5.941   5.340   1.716 -0.2334  0.4058 -0.0130
12061TIP3    H136126   5.989   5.258   1.728  0.2725  0.6537 -0.3297
12061TIP3    H236127   6.004   5.408   1.738 -0.5897  0.7182  0.0423
12062TIP3   OH236128   1.063   5.519   2.982  0.2627  0.5442  0.3788
12062TIP3    H136129   1.120   5.442   2.983 -1.6304 -0.9521 -0.0143
12062TIP3    H236130   1.074   5.558   3.068  1.0501 -0.3533  0.7001
12063TIP3   OH236131   4.662   6.794   4.488 -0.0651  0.4293  0.3316
12063TIP3    H136132   4.720   6.764   4.419  0.1629 -1.6490  1.3572
12063TIP3    H236133   4.590   6.731   4.488  0.3945 -0.1888  2.5445
12064TIP3   OH236134   3.263   2.805   1.675  0.3754  0.5491  0.5015
12064TIP3    H136135   3.253   2.794   1.580 -1.1465  0.1717  0.6900
12064TIP3    H236136   3.318   2.883   1.684  1.1757  0.1559 -0.6890
12065TIP3   OH236137   0.313   6.719   4.007  0.0528  0.5126  0.5630
12065TIP3    H136138   0.278   6.639   4.046 -3.3788  1.3400 -0.5009
12065TIP3    H236139   0.390   6.689   3.958 -0.9683 -2.1012  0.3711
12066TIP3   OH236140   8.135   1.074   4.149  0.0367  0.0415 -0.1119
12066TIP3    H136141   8.176   1.080   4.235 -0.5555 -0.3342  0.2012
12066TIP3    H236142   8.142   0.982   4.125 -3.1944 -0.7170  1.2667
12067TIP3   OH236143   8.117   6.036   4.250 -0.2824 -0.0204 -0.4920
12067TIP3    H136144   8.161   5.955   4.274 -0.5707 -0.2424 -0.7233
12067TIP3    H236145   8.090   6.024   4.159  0.5605  0.7213 -0.8582
12068TIP3   OH236146   6.066   7.032   2.761 -0.2845  0.6971  0.4893
12068TIP3    H136147   5.992   6.978   2.789 -0.1066  0.7518  1.0986
12068TIP3    H236148   6.058   7.038   2.666 -0.4074 -0.2461  0.4353
12069TIP3   OH236149   2.867   6.305   3.887  0.2100 -0.4930  0.0719
12069TIP3    H136150   2.777   6.325   3.911  0.8438  0.5196  1.7440
12069TIP3    H236151   2.890   6.228   3.940  1.3758  1.3091  2.3356
12070TIP3   OH236152   2.947   4.933   3.435  0.3400  0.2267 -0.3666
12070TIP3    H136153   3.023   4.903   3.385  0.3808  0.1494 -0.2596
12070TIP3    H236154   2.952   4.884   3.517  0.3568  0.4631 -0.2269
12071TIP3   OH236155   3.277   5.983   3.702 -0.2543  0.2084  0.1038
12071TIP3    H136156   3.254   5.983   3.794  0.7194 -1.1873  0.3829
12071TIP3    H236157   3.364   6.022   3.698 -0.4824  0.6960 -0.2951
12072TIP3   OH236158   3.982   2.806   6.673  0.5202  0.1112  0.2025
12072TIP3    H136159   3.955   2.817   6.582  0.3057  3.4229  0.5399
12072TIP3    H236160   3.934   2.729   6.703 -2.2028  1.0089 -1.4967
12073TIP3   OH236161   0.921   4.756   2.056  0.2334 -0.1726 -0.4335
12073TIP3    H136162   1.005   4.721   2.086  0.4150  0.9613  0.4891
12073TIP3    H236163   0.856   4.704   2.103  0.3689 -1.4885 -1.6384
12074TIP3   OH236164   1.335   3.536   6.205 -0.5241  0.2409 -0.0630
12074TIP3    H136165   1.290   3.599   6.149 -2.1848 -1.1705 -0.3844
12074TIP3    H236166   1.286   3.539   6.288 -1.1971 -1.2332 -0.3770
12075TIP3   OH236167   3.974   2.243   5.445  0.0437  0.2750 -0.0716
12075TIP3    H136168   4.027   2.176   5.403  1.1392  0.8287  0.4020
12075TIP3    H236169   4.017   2.326   5.423 -0.1712  0.6720  0.9538
12076TIP3   OH236170   4.258   4.182   3.350 -0.2225 -0.5369 -0.8963
12076TIP3    H136171   4.338   4.177   3.296  0.6748 -0.3061  0.3668
12076TIP3    H236172   4.284   4.146   3.434 -1.3802 -0.1687 -0.3702
12077TIP3   OH236173   5.856   7.392   3.261  0.4014 -0.0295  0.0895
12077TIP3    H136174   5.858   7.388   3.357 -0.6437  0.1843  0.1253
12077TIP3    H236175   5.840   7.484   3.241  1.4123  0.0731 -0.3228
12078TIP3   OH236176   7.219   4.546   4.555  0.5205  0.6784  0.0779
12078TIP3    H136177   7.218   4.504   4.469  0.7333 -0.3227  0.5533
12078TIP3    H236178   7.201   4.476   4.617  2.3222  0.9678  1.0103
12079TIP3   OH236179   3.985   5.519   0.680  0.2056 -0.6357  0.6111
12079TIP3    H136180   4.007   5.503   0.588 -0.2496 -1.3104  0.6141
12079TIP3    H236181   4.061   5.489   0.728  0.1630 -0.9321  0.4941
12080TIP3   OH236182   0.025   4.218   2.039  0.0917  0.5516  0.1070
12080TIP3    H136183   0.003   4.132   2.076 -1.4577  0.9924  0.2516
12080TIP3    H236184   0.071   4.263   2.109  0.5095  0.0277  0.1844
12081TIP3   OH236185   0.757   6.032   5.050  0.2387  0.2551 -0.1920
12081TIP3    H136186   0.690   5.990   4.996 -0.8301  0.2761  1.0669
12081TIP3    H236187   0.794   5.961   5.102  0.3393  0.4321 -0.0183
12082TIP3   OH236188   5.257   7.037   2.232  0.3541  0.5585 -0.1335
12082TIP3    H136189   5.335   7.090   2.216  1.3740 -0.9042 -0.1900
12082TIP3    H236190   5.268   6.961   2.175 -0.8329  0.0470  0.3017
12083TIP3   OH236191   0.465   2.194   3.341  0.3116  0.2336 -0.1413
12083TIP3    H136192   0.468   2.283   3.378  2.3542  0.0525  0.2900
12083TIP3    H236193   0.487   2.137   3.415 -0.6331 -0.6187 -0.4981
12084TIP3   OH236194   3.643   3.432   3.721 -0.4000 -0.1463  0.4697
12084TIP3    H136195   3.644   3.490   3.797 -2.8489  1.9119 -0.9145
12084TIP3    H236196   3.727   3.449   3.677 -0.5515  1.4698  0.7477
12085TIP3   OH236197   6.190   0.344   2.343 -0.3828 -0.0691  0.1337
12085TIP3    H136198   6.110   0.372   2.387  0.0582  0.5314  0.5616
12085TIP3    H236199   6.239   0.425   2.329  0.3268 -0.4781  0.2247
12086TIP3   OH236200   2.615   0.397   3.982 -0.2608 -0.0065 -0.8730
12086TIP3    H136201   2.665   0.477   3.968 -0.3234 -0.2442 -2.7569
12086TIP3    H236202   2.674   0.340   4.031 -0.0856  1.0498  0.1745
12087TIP3   OH236203   4.984   3.801  -0.020  0.6691  0.4735 -1.0446
12087TIP3    H136204   4.899   3.840  -0.002  0.4224  0.0202 -1.2067
12087TIP3    H236205   4.998   3.740   0.053 -0.2758 -1.2713 -2.2479
12088TIP3   OH236206   5.782   6.770   2.275  0.0606  0.3426  0.5275
12088TIP3    H136207   5.690   6.785   2.254 -0.3102 -0.2454  1.6144
12088TIP3    H236208   5.799   6.828   2.349  0.5547  0.4411  0.3363
12089TIP3   OH236209   4.711   1.489   3.859  0.0198 -0.2238 -0.1664
12089TIP3    H136210   4.689   1.434   3.783  0.6496 -1.2496  0.3671
12089TIP3    H236211   4.634   1.484   3.915  0.5399 -1.6554  0.4757
12090TIP3   OH236212   7.630   1.609   2.838 -0.6681 -0.5077  0.2937
12090TIP3    H136213   7.648   1.642   2.750 -2.6382  1.6994  0.6087
12090TIP3    H236214   7.696   1.541   2.853 -0.3460 -1.0365 -2.8958
12091TIP3   OH236215   5.963   4.429   0.137 -0.0012  0.3083  0.1914
12091TIP3    H136216   6.008   4.345   0.134  2.9231  1.7611 -1.8337
12091TIP3    H236217   5.990   4.468   0.220  0.4397  0.1528  0.1209
12092TIP3   OH236218   2.786   3.220   3.179 -0.4053  0.7077 -0.1326
12092TIP3    H136219   2.745   3.176   3.105  0.9137 -0.4569 -0.2021
12092TIP3    H236220   2.819   3.303   3.143 -1.5625  1.0921 -0.3470
12093TIP3   OH236221   6.050   5.340   0.237  0.1070 -0.2189 -0.1328
12093TIP3    H136222   5.988   5.280   0.195 -1.3827  0.7241  0.6057
12093TIP3    H236223   6.123   5.347   0.176 -1.5625  0.4107 -2.1612
12094TIP3   OH236224   6.266   6.274   0.315 -0.3017  0.3757  0.1632
12094TIP3    H136225   6.240   6.307   0.401 -0.7605 -0.4377  0.3406
12094TIP3    H236226   6.247   6.180   0.317  0.4073  0.1971 -0.5544
12095TIP3   OH236227   1.853   1.367   3.520 -0.4133 -0.3235 -0.3236
12095TIP3    H136228   1.909   1.311   3.467 -1.4689  0.0062 -1.8660
12095TIP3    H236229   1.796   1.306   3.567 -1.7143 -0.6313 -2.1697
12096TIP3   OH236230   3.407   0.466   5.908 -0.1540 -0.1116 -0.6845
12096TIP3    H136231   3.402   0.371   5.916  1.3228 -0.0855  1.9216
12096TIP3    H236232   3.441   0.482   5.820 -0.5944 -1.9772 -1.2225
12097TIP3   OH236233  -0.017   2.747   4.182  0.0647  0.1000 -0.5239
12097TIP3    H136234   0.003   2.678   4.245 -2.3637  0.6976  1.0492
12097TIP3    H236235   0.068   2.787   4.162  0.9385  0.6830  3.3832
12098TIP3   OH236236   5.817   7.111   5.090 -0.6612 -0.2593 -0.3433
12098TIP3    H136237   5.820   7.037   5.150 -1.0658  0.0996  0.1253
12098TIP3    H236238   5.880   7.088   5.021 -0.5466 -0.8895 -0.0406
12099TIP3   OH236239   3.928   4.829   0.647  0.3743  0.3535  0.3093
12099TIP3    H136240   3.883   4.771   0.586 -0.0106 -0.7347  1.5902
12099TIP3    H236241   3.859   4.863   0.704  0.7381  1.3043  0.2107
12100TIP3   OH236242   3.712   3.591   6.102  0.9056  0.5519  0.2693
12100TIP3    H136243   3.737   3.536   6.177 -1.1248  0.3668  0.8699
12100TIP3    H236244   3.687   3.675   6.141 -1.1230  0.1389 -0.0418
12101TIP3   OH236245   1.569   3.415   6.186 -0.1354 -0.3731 -0.4512
12101TIP3    H136246   1.487   3.463   6.183 -0.2256 -0.4917 -0.0627
12101TIP3    H236247   1.633   3.472   6.144 -0.6327 -0.7258 -1.7086
12102TIP3   OH236248   4.551   5.551   6.384  0.0097  0.0431  0.4764
12102TIP3    H136249   4.594   5.606   6.450 -0.0961 -1.9818  2.3393
12102TIP3    H236250   4.611   5.477   6.372 -0.8169 -0.5016 -0.4143
12103TIP3   OH236251   7.042   3.069   2.038  0.0196  0.6323  0.2403
12103TIP3    H136252   7.022   2.982   2.005 -1.9424  1.2629 -0.3754
12103TIP3    H236253   7.058   3.122   1.959  2.3689  0.6257  0.6390
12104TIP3   OH236254   7.476   2.494   5.147 -0.3026 -0.1402  0.4106
12104TIP3    H136255   7.555   2.530   5.188  0.0471 -0.7354  0.2720
12104TIP3    H236256   7.406   2.509   5.211 -0.5274  2.2781 -0.3126
12105TIP3   OH236257   2.034   6.337   5.577  0.1682  0.4128  0.5657
12105TIP3    H136258   2.021   6.408   5.640 -1.1727  1.7752 -1.1427
12105TIP3    H236259   2.088   6.375   5.508 -0.2822 -0.3410 -0.2210
12106TIP3   OH236260   0.075   0.880   0.384 -0.3850  0.4633 -0.0166
12106TIP3    H136261   0.035   0.908   0.302  1.1921  3.0712 -0.0118
12106TIP3    H236262   0.122   0.800   0.362 -1.8835 -0.1732 -1.0427
12107TIP3   OH236263   4.801   1.129   2.662 -0.4297 -0.0203 -0.1273
12107TIP3    H136264   4.751   1.143   2.582  0.0349 -0.0368 -0.4271
12107TIP3    H236265   4.878   1.078   2.634 -0.7792 -0.9289  0.5037
12108TIP3   OH236266   3.707   1.215   4.833  0.4573 -0.4222 -0.2571
12108TIP3    H136267   3.644   1.217   4.905  1.5927  0.6793  0.7395
12108TIP3    H236268   3.790   1.241   4.872  1.1099  0.2432 -1.9694
12109TIP3   OH236269   3.532   0.535   5.651  0.1214 -0.2495 -0.4381
12109TIP3    H136270   3.619   0.558   5.619 -0.2899 -0.5330 -1.8484
12109TIP3    H236271   3.482   0.616   5.644  0.4464  0.1168  1.1098
12110TIP3   OH236272   5.712   0.153   3.306 -0.4110  0.6324  0.8032
12110TIP3    H136273   5.640   0.161   3.243  0.6776  0.7541 -0.4640
12110TIP3    H236274   5.668   0.141   3.391 -1.9266  1.4839  0.1798
12111TIP3   OH236275   0.859   7.301   5.694 -0.0443 -0.0773  0.1688
12111TIP3    H136276   0.815   7.338   5.770  0.8449  0.0134  0.6431
12111TIP3    H236277   0.952   7.307   5.714  0.2281  0.5324 -1.2008
12112TIP3   OH236278   4.081   1.714   1.616  0.3283  0.0286 -0.5192
12112TIP3    H136279   4.008   1.747   1.669 -0.5494 -1.4414 -0.7559
12112TIP3    H236280   4.046   1.712   1.526  0.4790 -1.1035 -0.5700
12113TIP3   OH236281   3.339   1.982   3.290 -0.6442 -0.0544 -0.3812
12113TIP3    H136282   3.355   2.039   3.215 -0.3497  1.0988  0.5262
12113TIP3    H236283   3.425   1.949   3.314 -0.5290  0.7763  0.3650
12114TIP3   OH236284   1.196   3.489   2.937  0.2824 -0.3110 -0.2613
12114TIP3    H136285   1.184   3.556   2.870 -3.3330 -0.2855  0.1852
12114TIP3    H236286   1.162   3.409   2.897  0.6340 -0.9186  0.6291
12115TIP3   OH236287   4.553   1.176   5.083 -0.1776 -0.1184 -0.5487
12115TIP3    H136288   4.497   1.121   5.138 -0.9203  0.0741 -1.0926
12115TIP3    H236289   4.610   1.222   5.144 -0.9428  0.0420  0.0636
12116TIP3   OH236290   7.910   2.554   1.408 -0.1785 -0.0085 -0.0351
12116TIP3    H136291   7.981   2.557   1.472 -0.0770 -0.0684 -0.1446
12116TIP3    H236292   7.870   2.641   1.412  0.7099  0.4719 -0.8888
12117TIP3   OH236293   7.839   0.924   0.018 -0.0432  0.1357 -0.3001
12117TIP3    H136294   7.916   0.926  -0.039 -0.0533 -0.3634 -0.3400
12117TIP3    H236295   7.842   0.838   0.060  0.3562  0.7584  1.0032
12118TIP3   OH236296   0.063   6.112   5.705  0.2648 -0.1001  0.3603
12118TIP3    H136297   0.007   6.129   5.630 -1.9948  1.6175  2.2747
12118TIP3    H236298   0.141   6.071   5.668 -1.9413 -2.0836 -2.5234
12119TIP3   OH236299   5.361   6.427   6.428 -0.1104  0.1741 -0.0475
12119TIP3    H136300   5.446   6.459   6.457 -0.4365  0.8075  0.2153
12119TIP3    H236301   5.320   6.501   6.383 -1.0596  0.2874  0.9579
12120TIP3   OH236302   2.448   0.838   0.089 -0.9558 -0.5997 -0.5371
12120TIP3    H136303   2.449   0.895   0.012  2.0313  0.4503  0.1137
12120TIP3    H236304   2.418   0.895   0.161 -2.8431 -1.3194 -0.7178
12121TIP3   OH236305   3.371   2.629   0.975  0.2846  0.5498  0.7746
12121TIP3    H136306   3.283   2.624   0.938 -0.1810 -3.0935  1.9440
12121TIP3    H236307   3.378   2.719   1.009 -2.0304  1.6702 -1.3808
12122TIP3   OH236308   7.482   6.015   0.449 -0.0758 -0.0066  0.3346
12122TIP3    H136309   7.435   6.072   0.388 -0.3743  1.4001  1.7918
12122TIP3    H236310   7.556   5.982   0.400 -0.3582  1.0085 -0.8180
12123TIP3   OH236311   5.410   1.638   1.077  0.4139 -0.0919  0.0475
12123TIP3    H136312   5.489   1.666   1.124 -0.1592  0.6203  0.6158
12123TIP3    H236313   5.351   1.713   1.085 -0.6000 -0.9077  0.2913
12124TIP3   OH236314   7.465   4.683   4.960 -0.0052 -0.1068 -0.3413
12124TIP3    H136315   7.529   4.689   4.890 -0.5150  1.4479 -0.6982
12124TIP3    H236316   7.516   4.692   5.041  0.0920  2.9677 -0.6575
12125TIP3   OH236317   5.361   1.123   2.038  0.1135  0.2589 -0.3814
12125TIP3    H136318   5.306   1.089   1.967 -0.3431  2.0906 -0.9458
12125TIP3    H236319   5.409   1.196   1.999 -0.5100  1.6326  1.2891
12126TIP3   OH236320   8.017   2.055   1.875 -0.2996 -0.4827 -0.4787
12126TIP3    H136321   8.040   2.141   1.842 -1.1003  0.0867  0.3808
12126TIP3    H236322   7.930   2.037   1.838 -1.4861  0.4286  1.6667
12127TIP3   OH236323   0.087   3.565   2.253  0.7547  0.6996 -0.1308
12127TIP3    H136324   0.111   3.541   2.164 -1.2754 -0.2158 -0.4836
12127TIP3    H236325   0.059   3.482   2.293 -2.1165  1.6550  0.0697
12128TIP3   OH236326   5.262   4.729   5.237 -0.1386  0.8932  0.3054
12128TIP3    H136327   5.321   4.748   5.165 -1.7371 -1.5870 -1.8398
12128TIP3    H236328   5.265   4.634   5.246 -2.1454  0.8905  1.5706
12129TIP3   OH236329   7.956   5.804   2.463  0.4084  0.6312 -0.0561
12129TIP3    H136330   7.955   5.779   2.370  2.2870  0.7123 -0.1347
12129TIP3    H236331   8.017   5.741   2.503 -1.3491 -0.2299  1.4015
12130TIP3   OH236332   1.589   6.202   6.220 -0.5559 -0.1566  0.0024
12130TIP3    H136333   1.546   6.135   6.167  1.0100 -1.0009 -0.2600
12130TIP3    H236334   1.604   6.275   6.160 -1.3833  0.0512  0.0393
12131TIP3   OH236335   0.101   6.499   5.695  0.3099 -0.2157  0.4132
12131TIP3    H136336   0.132   6.506   5.786  1.1035  0.2287  0.1246
12131TIP3    H236337   0.052   6.579   5.680 -0.4078 -0.6060  0.6588
12132TIP3   OH236338   2.255   2.736   3.746  0.4305 -0.4275  0.1516
12132TIP3    H136339   2.308   2.807   3.782  1.6229  1.0484 -3.9159
12132TIP3    H236340   2.167   2.773   3.739  0.9499  0.6494 -1.5178
12133TIP3   OH236341   1.210   7.717   0.176 -0.1532 -0.6009 -0.4719
12133TIP3    H136342   1.164   7.644   0.220 -0.3797  0.6906  1.5693
12133TIP3    H236343   1.303   7.698   0.190 -0.1072 -1.6377 -1.9516
12134TIP3   OH236344   5.352   7.439   6.620 -0.1167  0.0716 -0.0566
12134TIP3    H136345   5.295   7.369   6.589 -1.3587  0.7125  0.7023
12134TIP3    H236346   5.322   7.457   6.709  0.8799  0.8480  0.1466
12135TIP3   OH236347   8.213   4.508   5.267  0.2349 -0.3113  0.1320
12135TIP3    H136348   8.194   4.585   5.322  0.6806 -0.2371  0.1890
12135TIP3    H236349   8.230   4.545   5.180  0.1848 -0.3683  0.0987
12136TIP3   OH236350   1.665   1.955   0.266 -0.2607 -0.2534 -0.1886
12136TIP3    H136351   1.685   1.917   0.351 -1.7260  0.3812  0.4761
12136TIP3    H236352   1.605   2.027   0.285 -1.2917 -0.6232 -1.8228
12137TIP3   OH236353   3.330   5.978   2.343  0.1145  0.1896 -0.0883
12137TIP3    H136354   3.404   5.926   2.311 -1.4330 -1.1177 -1.8041
12137TIP3    H236355   3.256   5.949   2.289 -1.3427  2.5305  0.5131
12138TIP3   OH236356   4.434   6.660   6.722 -0.0804 -0.4059  0.4811
12138TIP3    H136357   4.373   6.587   6.738 -2.0256  1.0014 -0.1432
12138TIP3    H236358   4.443   6.702   6.807 -1.1097  0.1859  0.3124
12139TIP3   OH236359   5.565   7.366   5.614 -0.4154  0.0603  0.6463
12139TIP3    H136360   5.626   7.424   5.659  0.2644 -0.8312  0.9144
12139TIP3    H236361   5.514   7.326   5.684 -0.9731  0.4345  0.4558
12140TIP3   OH236362   2.119   3.862   1.577 -0.5036 -0.5919  0.0522
12140TIP3    H136363   2.210   3.835   1.583  0.3762  2.3631  2.1965
12140TIP3    H236364   2.075   3.816   1.649 -0.0142  0.2387  0.8936
12141TIP3   OH236365   3.088   1.182   0.047 -0.8524  0.5138 -0.3477
12141TIP3    H136366   3.085   1.267   0.003  0.1714 -0.0054 -1.4733
12141TIP3    H236367   3.163   1.138   0.008 -0.1698 -0.1618  1.6045
12142TIP3   OH236368   1.304   7.550   5.533  0.1705  0.3530  0.1022
12142TIP3    H136369   1.218   7.529   5.571 -1.0064  0.8686 -2.0887
12142TIP3    H236370   1.311   7.645   5.541 -0.2078  0.5004 -1.1092
12143TIP3   OH236371   4.322   0.421   4.892  0.0148  0.5800 -0.5456
12143TIP3    H136372   4.336   0.391   4.981 -0.8023  0.2335 -0.5235
12143TIP3    H236373   4.233   0.391   4.870 -0.3018  1.8117 -1.0062
12144TIP3   OH236374   0.688   0.976   3.585  0.8296 -0.7242  0.3297
12144TIP3    H136375   0.677   0.971   3.490  0.4465 -2.0073  0.4149
12144TIP3    H236376   0.598   0.984   3.618  0.9409 -0.5903  0.6018
12145TIP3   OH236377   5.725   2.273   3.661  0.5686 -0.2444 -0.5006
12145TIP3    H136378   5.654   2.287   3.598  0.2089 -1.0957 -0.2965
12145TIP3    H236379   5.805   2.289   3.610  0.2546  3.2701 -0.1041
12146TIP3   OH236380   7.186   6.961   0.641 -0.6081 -0.3921  0.2824
12146TIP3    H136381   7.164   6.955   0.734  2.9549  2.7433  1.6032
12146TIP3    H236382   7.246   6.887   0.626  1.4255  0.9230  1.5158
12147TIP3   OH236383   3.755   2.201   4.842 -0.1211 -0.1921  0.7314
12147TIP3    H136384   3.842   2.193   4.802  0.1617  0.8721  1.0961
12147TIP3    H236385   3.767   2.266   4.912 -1.6641  1.5949 -0.5546
12148TIP3   OH236386   4.007   5.458   6.306  0.3584  0.0873  0.1084
12148TIP3    H136387   3.939   5.434   6.369  0.9056 -1.8345  0.0314
12148TIP3    H236388   4.084   5.478   6.360  0.6304 -0.8996  0.1150
12149TIP3   OH236389   7.931   7.520   3.510 -0.1643 -0.1430 -0.1335
12149TIP3    H136390   7.890   7.576   3.576 -1.4871  0.2806 -1.2679
12149TIP3    H236391   7.963   7.581   3.443  0.5276 -0.6145 -0.2471
12150TIP3   OH236392   6.492   4.967   0.713 -0.1421  0.5874  0.6416
12150TIP3    H136393   6.469   4.942   0.624 -1.9892  1.6542  0.7616
12150TIP3    H236394   6.559   5.035   0.703  0.4206 -0.0413  0.1122
12151TIP3   OH236395   4.963   2.272   0.677  0.0674 -0.3899  0.2371
12151TIP3    H136396   5.011   2.267   0.760 -1.0838 -1.2164  0.8892
12151TIP3    H236397   5.014   2.332   0.623  1.0102 -0.0746  1.4340
12152TIP3   OH236398   5.034   7.545   3.129  0.2425  0.3247 -0.7063
12152TIP3    H136399   4.957   7.556   3.074  0.3729 -2.7948 -1.6724
12152TIP3    H236400   5.108   7.567   3.072  0.1810  2.2570 -0.1026
12153TIP3   OH236401   4.422   3.858   4.447 -0.4571  0.0735  0.0481
12153TIP3    H136402   4.481   3.784   4.462 -1.1634 -0.6565 -0.6650
12153TIP3    H236403   4.475   3.922   4.399  0.5724  0.6565  1.8687
12154TIP3   OH236404   8.180   4.050   0.924 -0.3231 -0.1074  0.2946
12154TIP3    H136405   8.252   3.990   0.943  0.6117  0.6679 -0.6866
12154TIP3    H236406   8.129   4.053   1.005 -0.0495 -1.7317  0.5641
12155TIP3   OH236407   5.802   6.824   3.499  0.6151 -0.9907  0.0292
12155TIP3    H136408   5.722   6.783   3.467  0.3438 -0.9638  0.6508
12155TIP3    H236409   5.835   6.873   3.424 -1.3186  1.0804  0.4143
12156TIP3   OH236410   2.996   0.978   2.031 -0.1676 -0.3691  0.0265
12156TIP3    H136411   2.939   0.960   1.956  0.2421  0.0234 -0.3810
12156TIP3    H236412   2.936   0.993   2.104 -0.6311  0.9836 -0.6020
12157TIP3   OH236413   3.499   3.370   1.422  0.0555  0.3451  0.6950
12157TIP3    H136414   3.462   3.340   1.339  0.3315 -0.9482  1.0218
12157TIP3    H236415   3.436   3.435   1.454  0.8212  2.2446 -1.3592
12158TIP3   OH236416   7.706   7.371   5.502 -0.6232  0.2692 -0.1597
12158TIP3    H136417   7.630   7.429   5.492 -1.0316 -0.0770  0.8268
12158TIP3    H236418   7.671   7.293   5.545 -0.4295 -1.4882 -2.9676
12159TIP3   OH236419   6.673   7.496   2.071 -0.3200  0.1569  0.1454
12159TIP3    H136420   6.647   7.572   2.018 -0.7210 -0.6491 -0.8516
12159TIP3    H236421   6.596   7.477   2.125  0.2134  1.1992  1.3124
12160TIP3   OH236422   6.583   5.806   0.655  0.0703  0.2606 -0.2054
12160TIP3    H136423   6.510   5.859   0.623  0.2423  0.8273  0.3271
12160TIP3    H236424   6.635   5.789   0.577 -0.0161  0.8323 -0.3974
12161TIP3   OH236425   8.141   1.379   0.897  0.1976  0.2978  0.0209
12161TIP3    H136426   8.098   1.385   0.982  0.4972  1.0497  0.1303
12161TIP3    H236427   8.208   1.448   0.899  2.5987 -1.9097  0.5092
12162TIP3   OH236428   7.672   3.275   6.614 -0.5400  0.1740  0.2858
12162TIP3    H136429   7.707   3.346   6.561 -0.0343  0.3419  0.8429
12162TIP3    H236430   7.749   3.231   6.649 -0.8598 -0.3388  0.3540
12163TIP3   OH236431   4.439   6.783   3.590 -0.0751 -0.6304 -0.0655
12163TIP3    H136432   4.523   6.801   3.633  0.1623  0.7787 -1.0619
12163TIP3    H236433   4.459   6.786   3.497 -0.9696 -1.6907 -0.3126
12164TIP3   OH236434   1.013   4.204   0.170  0.0395 -0.3270 -0.2662
12164TIP3    H136435   1.018   4.139   0.241  1.0907  0.6690  0.6221
12164TIP3    H236436   1.103   4.210   0.138  0.0928  1.1342  0.1014
12165TIP3   OH236437   4.193   6.617   2.209 -0.1372  0.0819 -0.0426
12165TIP3    H136438   4.142   6.539   2.228 -0.0591 -0.3040 -1.3175
12165TIP3    H236439   4.281   6.597   2.242 -0.1720 -0.2822 -0.1682
12166TIP3   OH236440   7.038   1.533   1.066  0.7517 -0.2055  0.1037
12166TIP3    H136441   7.029   1.602   1.000  0.6851 -1.1121 -0.8591
12166TIP3    H236442   6.954   1.486   1.063 -0.0152  0.8703  2.1940
12167TIP3   OH236443   1.874   7.163   5.629  0.2076  0.9300  0.0594
12167TIP3    H136444   1.800   7.124   5.583 -0.0198  1.4504 -0.0282
12167TIP3    H236445   1.945   7.163   5.565  0.6810 -0.7224  0.5324
12168TIP3   OH236446   7.939   3.809   4.777  0.0393 -0.6062  0.3080
12168TIP3    H136447   7.989   3.883   4.743 -0.4530  0.8677  2.6084
12168TIP3    H236448   7.858   3.809   4.725  1.1482 -1.2924 -1.5355
12169TIP3   OH236449   0.391   2.215   1.990 -0.3908  0.3278  0.4562
12169TIP3    H136450   0.445   2.244   2.064  0.2677  1.6984 -0.5342
12169TIP3    H236451   0.376   2.295   1.939 -0.9350 -0.5824 -0.8351
12170TIP3   OH236452   6.193   5.407   2.271 -0.1265  0.1656 -0.0753
12170TIP3    H136453   6.114   5.457   2.292  1.1352  1.5970  1.5527
12170TIP3    H236454   6.233   5.454   2.198 -0.3150 -0.0458 -0.3166
12171TIP3   OH236455   0.491   4.432   3.347 -0.4794  0.1830 -0.1003
12171TIP3    H136456   0.499   4.502   3.282  0.4310  2.5044  2.3060
12171TIP3    H236457   0.424   4.464   3.408  0.3774 -0.7437  1.3825
12172TIP3   OH236458   4.579   3.152   2.412 -0.3170 -0.0102 -0.0702
12172TIP3    H136459   4.572   3.181   2.321 -0.9526 -0.2933 -0.1167
12172TIP3    H236460   4.529   3.216   2.462 -1.0226 -0.5365 -0.0772
12173TIP3   OH236461   8.293   3.977   3.445  0.2298  0.1196 -0.1987
12173TIP3    H136462   8.200   3.956   3.450  0.5577 -1.8254 -1.1435
12173TIP3    H236463   8.310   4.032   3.521 -1.4886 -0.3438  0.5624
12174TIP3   OH236464   4.375   7.050   4.223 -0.2699  0.7024 -0.2554
12174TIP3    H136465   4.384   7.071   4.316 -0.4584 -0.8498  0.1499
12174TIP3    H236466   4.290   7.007   4.216  0.1130  0.0094 -0.9678
12175TIP3   OH236467   5.674   7.346   0.171  0.2802 -0.1470  0.3541
12175TIP3    H136468   5.585   7.334   0.137  1.1302 -2.1276 -1.4066
12175TIP3    H236469   5.676   7.297   0.253 -0.2615 -0.0379  0.4326
12176TIP3   OH236470   5.527   1.561   3.400  0.4481 -0.5052 -0.3483
12176TIP3    H136471   5.558   1.586   3.487 -0.2551  0.8705 -0.4709
12176TIP3    H236472   5.432   1.573   3.404  0.1458 -2.4758 -0.6733
12177TIP3   OH236473   2.734   7.753   0.491  0.1227  0.5171 -0.1589
12177TIP3    H136474   2.660   7.744   0.552 -0.5582  1.3274 -0.8446
12177TIP3    H236475   2.742   7.848   0.478  0.6700  0.3779 -0.8425
12178TIP3   OH236476   0.502   5.099   6.687 -0.0513 -0.9296  0.0862
12178TIP3    H136477   0.428   5.144   6.726  0.8693 -0.1803  0.9973
12178TIP3    H236478   0.579   5.141   6.724  0.8509 -2.9176  0.5984
12179TIP3   OH236479   1.021   1.739   6.347  0.6370 -0.0851  0.6644
12179TIP3    H136480   0.939   1.773   6.382  0.4436 -0.2258  0.3474
12179TIP3    H236481   0.998   1.654   6.310  0.4809  0.7806 -1.3255
12180TIP3   OH236482   2.987   5.699   3.462 -0.0166 -0.2273  0.1601
12180TIP3    H136483   3.042   5.698   3.540  0.9897 -1.6463 -0.5320
12180TIP3    H236484   2.971   5.607   3.442 -0.6503  0.1165 -1.0387
12181TIP3   OH236485   6.187   6.391   3.766  0.1647 -0.3533  0.1025
12181TIP3    H136486   6.113   6.401   3.706 -0.5283  1.3377  1.1904
12181TIP3    H236487   6.152   6.339   3.839 -0.1298  0.9041  0.8752
12182TIP3   OH236488   5.334   6.906   5.820  0.1254 -0.3265  0.3437
12182TIP3    H136489   5.274   6.895   5.895 -0.6723 -3.2148 -0.5911
12182TIP3    H236490   5.313   6.993   5.786 -2.0780 -0.4063  1.3002
12183TIP3   OH236491   8.203   7.559   1.534 -0.3787 -0.7238  0.5116
12183TIP3    H136492   8.148   7.484   1.557  0.0060 -1.1381  0.0994
12183TIP3    H236493   8.236   7.538   1.446  0.1510 -0.3119  0.6085
12184TIP3   OH236494   4.190   6.194   0.900  0.6469  1.2596  0.1018
12184TIP3    H136495   4.260   6.259   0.913  1.4429  0.3072  0.7984
12184TIP3    H236496   4.150   6.217   0.817  1.9687  1.6993 -0.4354
12185TIP3   OH236497   0.461   5.731   6.125  0.5327  0.0025  0.0412
12185TIP3    H136498   0.526   5.749   6.193 -0.4434 -0.1735  1.0437
12185TIP3    H236499   0.408   5.660   6.160 -0.6587  0.6289 -0.4372
12186TIP3   OH236500   2.916   0.811   3.040 -0.2610  0.2325 -0.3675
12186TIP3    H136501   2.966   0.892   3.053 -0.7616  0.2984  1.5332
12186TIP3    H236502   2.960   0.748   3.098  1.1650 -1.4114 -3.0285
12187TIP3   OH236503   0.465   1.615   2.738 -0.0096 -0.6663  0.0143
12187TIP3    H136504   0.412   1.689   2.767  0.3817  0.0958 -1.1554
12187TIP3    H236505   0.430   1.540   2.787  0.3514  0.4546  2.0987
12188TIP3   OH236506   5.564   3.755   4.434  0.3929 -0.0265  0.1562
12188TIP3    H136507   5.601   3.710   4.510  0.3051 -0.1782  0.1088
12188TIP3    H236508   5.640   3.789   4.387  0.4312  0.4573  0.5519
12189TIP3   OH236509   1.566   1.475   2.247 -0.1926 -0.0743  0.7282
12189TIP3    H136510   1.578   1.567   2.223 -1.0892 -0.0758  0.2019
12189TIP3    H236511   1.471   1.466   2.260 -0.4502 -1.4296 -1.4901
12190TIP3   OH236512   1.560   5.584   2.436 -0.5344  0.7058 -0.7183
12190TIP3    H136513   1.628   5.649   2.455  1.2061 -0.7750 -1.5676
12190TIP3    H236514   1.508   5.624   2.367  1.8859  0.4095 -2.8530
12191TIP3   OH236515   1.929   5.865   2.846 -0.1543  0.1508  0.6603
12191TIP3    H136516   1.982   5.838   2.772 -1.6501  2.0443 -1.2233
12191TIP3    H236517   1.988   5.919   2.899  0.7185 -0.5864  0.4610
12192TIP3   OH236518   4.896   5.669   0.482  0.4971 -0.6753  0.4384
12192TIP3    H136519   4.803   5.647   0.482  0.4755 -0.5997 -0.3414
12192TIP3    H236520   4.941   5.586   0.494  0.3275 -0.6850  1.0335
12193TIP3   OH236521   4.726   5.900   4.826 -0.1724 -0.1364 -0.1053
12193TIP3    H136522   4.814   5.903   4.789 -0.2895 -2.0839 -0.6295
12193TIP3    H236523   4.736   5.934   4.914  1.0547 -0.0888 -0.2485
12194TIP3   OH236524   0.488   3.038   1.187  0.1941  0.0890  0.1717
12194TIP3    H136525   0.419   3.104   1.193  0.2019  0.2878 -1.4109
12194TIP3    H236526   0.443   2.960   1.155  0.5930  0.0444 -0.2893
12195TIP3   OH236527   7.927   5.194   1.788 -0.2820 -0.0919  0.7549
12195TIP3    H136528   7.890   5.279   1.808 -0.5507  0.1816 -0.7425
12195TIP3    H236529   7.856   5.132   1.805 -0.5042  0.1272  0.6358
12196TIP3   OH236530   5.786   3.792   4.276 -0.3819  0.0713 -0.0273
12196TIP3    H136531   5.722   3.760   4.213  0.3074  1.6710 -1.6007
12196TIP3    H236532   5.871   3.766   4.240  0.0022 -3.2220  2.6802
12197TIP3   OH236533   4.348   6.574   6.293  0.8723 -0.0787 -0.0075
12197TIP3    H136534   4.439   6.593   6.314  0.3641  0.8248  1.5215
12197TIP3    H236535   4.304   6.569   6.378 -0.2494 -1.9705 -0.6324
12198TIP3   OH236536   2.616   1.649   0.366 -0.3384  0.7218  0.8282
12198TIP3    H136537   2.623   1.679   0.457 -1.2914  0.7284  0.9113
12198TIP3    H236538   2.538   1.694   0.333 -1.4179 -1.1403  0.7475
12199TIP3   OH236539   4.459   6.957   6.372  0.0502 -0.5507  0.2836
12199TIP3    H136540   4.437   6.956   6.465  0.9680  1.1426  0.5678
12199TIP3    H236541   4.500   6.872   6.357  0.2021 -0.7256  1.5155
12200TIP3   OH236542   7.916   1.903   2.106 -0.2734  0.0009  0.0523
12200TIP3    H136543   7.884   1.813   2.112  1.8071 -0.8527 -0.5663
12200TIP3    H236544   7.899   1.929   2.016 -2.0581  0.7539  0.5703
12201TIP3   OH236545   6.405   4.329   0.278 -0.3822 -0.5565 -0.0653
12201TIP3    H136546   6.480   4.271   0.295  0.2730  0.4010  0.4606
12201TIP3    H236547   6.380   4.311   0.188  1.5799  0.2904 -0.8235
12202TIP3   OH236548   4.582   6.390   1.292 -0.5910  0.3544 -0.2694
12202TIP3    H136549   4.527   6.323   1.252  2.0071 -2.0299 -0.1753
12202TIP3    H236550   4.551   6.397   1.382 -1.5702  0.0692 -0.5794
12203TIP3   OH236551   3.992   1.468   1.417 -0.0896 -0.3098  0.0009
12203TIP3    H136552   3.959   1.477   1.327  0.4859 -1.6091 -0.3604
12203TIP3    H236553   3.915   1.486   1.472 -0.2966  1.1386 -0.7156
12204TIP3   OH236554   2.239   2.043   1.983  0.1305 -0.2165 -0.1805
12204TIP3    H136555   2.203   1.971   1.931 -1.7577 -0.2852  1.1162
12204TIP3    H236556   2.321   2.008   2.019 -0.0188 -1.1882 -0.7518
12205TIP3   OH236557   0.366   3.076   2.966  0.3918  0.4255 -0.3047
12205TIP3    H136558   0.310   3.128   2.907  0.4140  0.0924 -0.6227
12205TIP3    H236559   0.339   3.101   3.054  0.8403  1.4661 -0.4436
12206TIP3   OH236560   4.753   3.123   5.096  0.1132 -0.3814 -0.6961
12206TIP3    H136561   4.767   3.101   5.004  0.8267  1.9382 -1.2082
12206TIP3    H236562   4.713   3.210   5.094  2.4322  0.8572  1.1838
12207TIP3   OH236563   0.436   5.422   5.443  0.2270  0.1555 -0.1221
12207TIP3    H136564   0.515   5.465   5.476 -0.1118  2.4035 -2.0097
12207TIP3    H236565   0.374   5.428   5.515  0.5190  2.0595  0.0297
12208TIP3   OH236566   3.936   7.350   6.018  0.0679  0.0382 -0.3730
12208TIP3    H136567   4.004   7.308   6.071 -1.9811  1.8662  4.2857
12208TIP3    H236568   3.984   7.413   5.964  2.2654  0.9575  2.3832
12209TIP3   OH236569   4.371   3.050   3.321  0.0714 -0.1495 -0.2842
12209TIP3    H136570   4.310   3.045   3.394  0.3888  0.9105  0.0560
12209TIP3    H236571   4.446   2.997   3.349  0.0975  0.0698  0.0632
12210TIP3   OH236572   3.619   6.678   5.870 -0.0144  0.0126  0.0092
12210TIP3    H136573   3.554   6.611   5.849 -0.3449 -0.3843  2.0983
12210TIP3    H236574   3.686   6.631   5.921 -0.7040  1.3856  2.3205
12211TIP3   OH236575   7.189   5.144   4.898 -0.2751 -0.2499  0.1048
12211TIP3    H136576   7.133   5.164   4.823 -1.4554 -0.2785  0.9523
12211TIP3    H236577   7.184   5.048   4.906 -0.3314 -0.2273  0.3511
12212TIP3   OH236578   4.059   2.701   5.192 -0.0185 -0.3079 -0.3992
12212TIP3    H136579   4.078   2.698   5.098  2.2487 -2.0700  0.0102
12212TIP3    H236580   4.119   2.767   5.226 -1.0934  0.5908 -0.1989
12213TIP3   OH236581   2.107   3.782   6.610 -0.6534 -0.9350 -0.4587
12213TIP3    H136582   2.185   3.834   6.628  0.1545 -1.6976 -1.6814
12213TIP3    H236583   2.038   3.847   6.596 -0.1837 -0.2473  0.3132
12214TIP3   OH236584   7.557   1.793   2.012 -0.5010  0.2968 -0.2326
12214TIP3    H136585   7.549   1.751   2.097 -1.8800 -0.2902 -0.6188
12214TIP3    H236586   7.651   1.808   2.001 -0.2432 -0.2267  1.0884
12215TIP3   OH236587   2.539   6.694   1.131 -0.1403  0.0466 -0.0418
12215TIP3    H136588   2.628   6.673   1.160  0.0125  0.2371 -0.3706
12215TIP3    H236589   2.495   6.722   1.211 -0.2515 -1.1635  0.3447
12216TIP3   OH236590   4.886   6.194   2.057  0.6264  0.2704 -0.1163
12216TIP3    H136591   4.955   6.211   1.992  1.6650  1.2985  1.1958
12216TIP3    H236592   4.805   6.190   2.005  1.2252  2.4723 -1.3628
12217TIP3   OH236593   0.748   0.087   2.050  0.2083 -0.3677  0.6672
12217TIP3    H136594   0.740   0.047   2.136 -1.3889  0.5028  0.9803
12217TIP3    H236595   0.735   0.181   2.066  2.5773  0.1652 -0.2009
12218TIP3   OH236596   6.263   7.337   0.412 -0.2324  0.5235  0.3549
12218TIP3    H136597   6.189   7.335   0.352 -0.0067  1.6071  0.0187
12218TIP3    H236598   6.292   7.428   0.411 -0.4698  0.6791  2.4069
12219TIP3   OH236599   5.494   5.938   4.279 -0.0645  0.4596 -0.0098
12219TIP3    H136600   5.523   6.028   4.267 -0.4436  0.4555 -1.0452
12219TIP3    H236601   5.575   5.890   4.298  0.0083  1.1674  1.6571
12220TIP3   OH236602   2.779   6.142   0.077 -0.3000 -0.0874  0.1147
12220TIP3    H136603   2.826   6.061   0.057 -0.9996 -0.3769 -0.4071
12220TIP3    H236604   2.815   6.206   0.017  0.1653 -0.0337  0.4405
12221TIP3   OH236605   5.264   4.041   4.007 -0.3730  0.2757  0.0189
12221TIP3    H136606   5.295   3.970   4.063 -0.6471 -0.9480 -1.3128
12221TIP3    H236607   5.248   4.114   4.067 -2.3960 -1.5201  1.8224
12222TIP3   OH236608   1.007   0.236   1.728 -0.6389  0.1205 -0.4007
12222TIP3    H136609   1.028   0.273   1.814 -0.9702  1.8336 -1.0134
12222TIP3    H236610   1.088   0.194   1.699 -0.6982 -1.0648  0.9915
12223TIP3   OH236611   6.739   6.183   2.746 -0.7033 -0.1236 -0.8075
12223TIP3    H136612   6.644   6.179   2.740 -0.6990 -0.3913 -0.7261
12223TIP3    H236613   6.770   6.174   2.656 -0.7511 -0.1868 -0.8176
12224TIP3   OH236614   7.682   3.222   3.533  0.3312  0.1952 -0.0811
12224TIP3    H136615   7.744   3.153   3.514  0.4852  0.1132  0.6839
12224TIP3    H236616   7.686   3.233   3.628 -0.1661  0.8032 -0.1190
12225TIP3   OH236617   5.772   0.391   4.840  0.2168  0.2483 -0.0296
12225TIP3    H136618   5.721   0.427   4.912  1.5925 -1.4534  1.9169
12225TIP3    H236619   5.709   0.345   4.786 -0.6595  0.3175  0.9152
12226TIP3   OH236620   2.112   3.405   0.571  0.0971  0.0474  0.6720
12226TIP3    H136621   2.019   3.426   0.573 -0.1671 -1.0947  1.5755
12226TIP3    H236622   2.115   3.310   0.576  1.2728 -0.0999 -1.6195
12227TIP3   OH236623   5.327   5.955   3.059  0.3799  0.1322 -0.1827
12227TIP3    H136624   5.276   6.027   3.021  2.0596  1.4561 -0.0624
12227TIP3    H236625   5.333   5.975   3.152 -0.1491 -0.8390  0.0778
12228TIP3   OH236626   5.819   4.744   6.472  0.1634  0.4354  0.2885
12228TIP3    H136627   5.746   4.740   6.534  0.7630  0.5532  1.0116
12228TIP3    H236628   5.880   4.807   6.511  1.2496 -0.6321  0.3449
12229TIP3   OH236629   5.382   0.425   6.660 -1.0389  0.0360 -0.0042
12229TIP3    H136630   5.454   0.446   6.601 -1.4475  0.7365 -0.2663
12229TIP3    H236631   5.305   0.423   6.604 -1.3963  0.4638  0.4660
12230TIP3   OH236632   2.819   4.961   0.343  0.4217 -0.1842 -0.3606
12230TIP3    H136633   2.835   4.924   0.430  0.7753 -1.9435 -1.1258
12230TIP3    H236634   2.818   5.056   0.357 -2.8169 -0.4371  2.1039
12231TIP3   OH236635   0.882   7.156   3.461  0.5482 -0.0135 -0.0002
12231TIP3    H136636   0.969   7.129   3.431  0.3136  0.4679 -1.1604
12231TIP3    H236637   0.883   7.252   3.453  0.4138  0.1185  1.4046
12232TIP3   OH236638   5.011   7.216   3.562 -0.9750 -0.0665 -0.0745
12232TIP3    H136639   5.079   7.209   3.629 -0.5143 -0.6848 -0.5898
12232TIP3    H236640   4.944   7.153   3.590  0.3370 -2.2077 -1.4402
12233TIP3   OH236641   0.052   6.967   5.506  0.4061 -0.1106  0.7644
12233TIP3    H136642  -0.019   6.903   5.509 -0.1950  0.5332  0.7268
12233TIP3    H236643   0.084   6.964   5.415 -0.4082  0.4674  0.4485
12234TIP3   OH236644   6.253   6.721   5.386  0.5838  0.2409  0.0671
12234TIP3    H136645   6.285   6.811   5.384  1.2442 -0.0011 -0.5208
12234TIP3    H236646   6.183   6.722   5.451  0.8440  1.0922  0.3429
12235TIP3   OH236647   6.078   0.264   3.418 -0.3882 -0.4643 -0.2032
12235TIP3    H136648   6.117   0.303   3.340  1.1078 -1.0274  0.2222
12235TIP3    H236649   6.098   0.170   3.410  1.2400 -0.3378  1.6042
12236TIP3   OH236650   4.538   1.054   4.486 -0.4257  0.0790  0.5903
12236TIP3    H136651   4.468   0.994   4.510  0.6810 -0.6392  2.2114
12236TIP3    H236652   4.577   1.015   4.407  0.0020 -1.1652  1.3708
12237TIP3   OH236653   0.311   4.785   0.230 -0.3187  0.9496 -0.1540
12237TIP3    H136654   0.287   4.720   0.163  0.7841  1.6363 -1.2473
12237TIP3    H236655   0.337   4.732   0.306 -0.9768  0.1534 -0.4578
12238TIP3   OH236656   7.422   6.899   0.178 -0.3499 -0.2449 -0.0694
12238TIP3    H136657   7.375   6.823   0.212  2.7240 -2.0526  0.5591
12238TIP3    H236658   7.502   6.862   0.140 -0.0446  2.4647 -2.3898
12239TIP3   OH236659   6.151   2.266   4.073  0.1767 -0.5134  0.7400
12239TIP3    H136660   6.103   2.257   3.990 -1.1067  2.4361  1.0155
12239TIP3    H236661   6.234   2.221   4.058 -0.8265 -1.8011 -1.4183
12240TIP3   OH236662   8.095   3.445   0.430  0.9657  0.0530  0.2695
12240TIP3    H136663   8.087   3.355   0.398 -1.0062 -0.2202  1.3845
12240TIP3    H236664   8.067   3.441   0.521  0.3624  1.8885  0.2005
12241TIP3   OH236665   6.699   6.005   4.034  0.1952  0.1496 -0.6285
12241TIP3    H136666   6.617   6.055   4.033  1.5147  2.5379 -3.1642
12241TIP3    H236667   6.701   5.962   3.948  1.4795 -0.0238 -0.5249
12242TIP3   OH236668   2.764   6.590   1.656  0.2232 -0.0234  0.2491
12242TIP3    H136669   2.837   6.607   1.596 -0.5165 -1.8294 -1.2415
12242TIP3    H236670   2.686   6.595   1.600 -0.8622  1.8253  1.7986
12243TIP3   OH236671   3.319   1.176   0.672 -0.7099 -0.1696 -0.1628
12243TIP3    H136672   3.287   1.130   0.749 -0.7035 -0.5896 -0.4048
12243TIP3    H236673   3.320   1.268   0.697  0.9045 -0.4455  0.9287
12244TIP3   OH236674   7.381   1.927   2.731 -0.1061  0.0616  0.0041
12244TIP3    H136675   7.437   1.981   2.676 -0.9016 -0.6805 -1.6198
12244TIP3    H236676   7.351   1.857   2.672 -0.5605 -1.0813  1.5463
12245TIP3   OH236677   5.450   0.922   5.522 -0.0405 -0.0270 -0.0850
12245TIP3    H136678   5.387   0.902   5.592 -0.2934 -0.6952 -0.4902
12245TIP3    H236679   5.479   0.837   5.491  1.6580  0.2664  0.5839
12246TIP3   OH236680   1.782   5.519   3.795 -0.2655  0.0074  0.1974
12246TIP3    H136681   1.865   5.559   3.819  0.2540 -2.0453  2.1451
12246TIP3    H236682   1.768   5.451   3.861 -2.5546 -0.9915 -1.1880
12247TIP3   OH236683   1.473   5.314   3.571 -0.9449 -0.1184 -0.7464
12247TIP3    H136684   1.387   5.272   3.572 -1.9117  1.7150 -1.3218
12247TIP3    H236685   1.519   5.273   3.498 -0.9612 -1.7802  0.1512
12248TIP3   OH236686   7.190   1.015   4.514  0.3118  0.0974  0.5033
12248TIP3    H136687   7.189   1.097   4.465 -0.1549 -1.3747 -2.1147
12248TIP3    H236688   7.142   1.035   4.594 -0.1436  2.2755 -0.2475
12249TIP3   OH236689   7.351   6.500   6.689 -0.4635 -0.1383 -0.3380
12249TIP3    H136690   7.404   6.462   6.760  0.3727 -0.2226 -0.9973
12249TIP3    H236691   7.268   6.452   6.693 -0.0675 -0.8113 -0.0333
12250TIP3   OH236692   3.994   4.793   6.265 -0.3478  0.0023 -0.6023
12250TIP3    H136693   4.073   4.823   6.219  1.1358 -1.6037  0.7422
12250TIP3    H236694   3.971   4.865   6.323  1.2262 -0.1301  0.2591
12251TIP3   OH236695   4.378   1.689   5.247  0.0981 -0.2318 -0.0051
12251TIP3    H136696   4.409   1.602   5.221 -1.6525 -0.9367  0.0601
12251TIP3    H236697   4.325   1.673   5.325  2.2590  1.3705  1.9279
12252TIP3   OH236698   7.684   3.149   0.721  0.4133 -0.2264 -0.4542
12252TIP3    H136699   7.763   3.199   0.701 -0.3350  0.5612 -1.5527
12252TIP3    H236700   7.623   3.215   0.753  0.1441 -0.8073  0.2369
12253TIP3   OH236701   0.791   2.202   3.463  0.2139  0.4731  0.3494
12253TIP3    H136702   0.809   2.111   3.439  0.3727  0.7132 -0.4704
12253TIP3    H236703   0.720   2.196   3.527 -1.8810 -0.0973 -1.8956
12254TIP3   OH236704   1.964   6.762   2.835 -0.3386 -0.1101 -0.2393
12254TIP3    H136705   1.939   6.722   2.919  1.7185 -1.1679 -0.0524
12254TIP3    H236706   1.976   6.688   2.776  2.3701  0.2182 -0.2392
12255TIP3   OH236707   1.444   7.434   6.740 -0.3769 -0.3754  0.1997
12255TIP3    H136708   1.469   7.524   6.722  0.0550 -0.3726  0.7997
12255TIP3    H236709   1.351   7.440   6.764 -0.7614 -0.2884 -1.2139
12256TIP3   OH236710   3.193   5.083   3.551 -0.4611 -0.1645 -0.6734
12256TIP3    H136711   3.278   5.048   3.575  0.1579  0.6132 -1.6552
12256TIP3    H236712   3.188   5.073   3.456 -1.4124 -0.0753 -0.6475
12257TIP3   OH236713   1.207   2.214   0.184 -0.1687  0.3944  0.0785
12257TIP3    H136714   1.121   2.172   0.182  0.5948 -1.2864 -1.8900
12257TIP3    H236715   1.230   2.223   0.091  1.1340  2.2234  0.5458
12258TIP3   OH236716   5.851   2.372   4.715 -0.2778  0.6941 -0.2102
12258TIP3    H136717   5.875   2.464   4.724  0.9883  0.4261 -0.5675
12258TIP3    H236718   5.935   2.327   4.707 -0.9042 -0.4254 -0.6187
12259TIP3   OH236719   3.695   1.484   6.399 -0.5530  0.4796  0.5890
12259TIP3    H136720   3.791   1.482   6.391 -0.6004  1.3518 -0.3835
12259TIP3    H236721   3.667   1.397   6.371 -0.1182  0.6453 -0.4199
12260TIP3   OH236722   6.953   1.073   6.527 -0.2579 -0.1877 -0.3037
12260TIP3    H136723   6.917   1.068   6.616  1.3189 -1.0325  0.3340
12260TIP3    H236724   6.997   0.989   6.514 -0.3474 -0.0304 -1.8598
12261TIP3   OH236725   5.995   1.397   2.038 -0.0260  0.4140  0.0734
12261TIP3    H136726   6.039   1.377   1.956  1.2040  0.4427  0.7056
12261TIP3    H236727   6.043   1.347   2.104  0.3374  2.0055  1.0617
12262TIP3   OH236728   4.081   5.932   5.532 -0.2605 -0.8692  0.2113
12262TIP3    H136729   4.049   6.021   5.546  0.5403 -0.6942  1.0153
12262TIP3    H236730   4.171   5.943   5.502 -0.3283 -1.4065 -0.2229
12263TIP3   OH236731   5.573   3.747   0.563 -0.0623 -0.0396  0.6805
12263TIP3    H136732   5.594   3.710   0.477  1.3104 -0.2296  1.0652
12263TIP3    H236733   5.573   3.842   0.549  0.2770 -0.0658  0.4877
12264TIP3   OH236734   6.957   6.124   6.212 -0.0996  0.4377 -0.4030
12264TIP3    H136735   6.969   6.213   6.246  0.1711  0.7319 -1.2411
12264TIP3    H236736   6.934   6.137   6.120 -1.9327 -0.2947 -0.0823
12265TIP3   OH236737   5.245   5.614   1.853 -0.1272  0.3550  0.4419
12265TIP3    H136738   5.307   5.677   1.818  0.3571  0.2673  1.1128
12265TIP3    H236739   5.269   5.531   1.812 -1.5690  0.7993 -1.4239
12266TIP3   OH236740   6.934   2.969   0.567 -0.5673  0.3298  0.1026
12266TIP3    H136741   7.002   2.903   0.552 -1.1825 -0.4379  0.6397
12266TIP3    H236742   6.956   3.040   0.506 -1.0425 -1.2040 -1.9613
12267TIP3   OH236743   4.009   5.977   2.035  0.0603  0.3372 -0.3290
12267TIP3    H136744   4.062   5.976   2.115 -0.2499  0.1915 -0.1213
12267TIP3    H236745   3.969   6.063   2.034 -0.3610  0.1491 -0.0394
12268TIP3   OH236746   1.408   2.705   3.333 -0.1851  0.1986  0.1689
12268TIP3    H136747   1.496   2.679   3.361  0.3494  1.1937 -0.5161
12268TIP3    H236748   1.391   2.785   3.382 -1.1373 -0.5181  1.0462
12269TIP3   OH236749   7.445   6.145   6.301  0.4339 -0.2256  0.0871
12269TIP3    H136750   7.385   6.188   6.241  1.9702  0.5438 -0.9708
12269TIP3    H236751   7.393   6.076   6.343 -1.2596  0.6637 -0.4696
12270TIP3   OH236752   3.450   2.951   3.078  0.8553  0.3380  0.7009
12270TIP3    H136753   3.388   3.004   3.027  0.6499  0.9802  1.5909
12270TIP3    H236754   3.433   2.976   3.169  1.4960 -0.4851  1.0544
12271TIP3   OH236755   3.497   7.772   0.911 -0.1414 -0.1895  0.1196
12271TIP3    H136756   3.448   7.829   0.852 -1.1781 -0.7237  0.4370
12271TIP3    H236757   3.538   7.831   0.974 -1.0208  0.2311  0.3155
12272TIP3   OH236758   0.919   2.910   4.761 -0.2993 -0.2908 -0.3523
12272TIP3    H136759   0.969   2.873   4.689 -1.1334 -1.1716 -0.5059
12272TIP3    H236760   0.964   2.992   4.783  1.1815 -1.0419 -0.4745
12273TIP3   OH236761   7.496   6.892   5.904  0.2215 -0.0812  0.1237
12273TIP3    H136762   7.582   6.871   5.868  0.6548 -0.2639  1.2472
12273TIP3    H236763   7.482   6.827   5.972 -0.7235  0.0724  0.0886
12274TIP3   OH236764   7.673   6.043   2.450  0.1195  0.4662  0.2707
12274TIP3    H136765   7.766   6.059   2.459  0.6923 -1.2878 -1.6733
12274TIP3    H236766   7.665   5.947   2.448 -1.5479  0.5785 -0.7509
12275TIP3   OH236767   1.059   6.316   2.179 -0.2271  1.0302  0.0220
12275TIP3    H136768   1.033   6.227   2.203  0.8585  0.2667 -1.5191
12275TIP3    H236769   1.033   6.325   2.087 -0.4017  2.3562  0.1763
12276TIP3   OH236770   7.056   7.099   0.403 -0.0778 -0.5235  0.2703
12276TIP3    H136771   7.006   7.018   0.418 -1.6985  0.5202  0.7865
12276TIP3    H236772   6.991   7.169   0.410  1.1799  0.8133 -0.7049
12277TIP3   OH236773   0.099   6.978   4.553 -0.2999  0.0393 -0.3687
12277TIP3    H136774   0.187   7.003   4.522  0.1034 -0.1852  0.5773
12277TIP3    H236775   0.101   6.883   4.555 -0.9871 -0.0239 -1.4980
12278TIP3   OH236776   6.323   1.768   0.839  0.5113 -0.7225 -0.2767
12278TIP3    H136777   6.239   1.802   0.811  0.7691 -0.1369 -0.3401
12278TIP3    H236778   6.388   1.822   0.794  0.9792  1.4996  2.7483
12279TIP3   OH236779   7.138   5.348   0.833 -0.3312 -0.6621  0.6830
12279TIP3    H136780   7.074   5.284   0.863 -0.1126 -1.6655 -0.8930
12279TIP3    H236781   7.103   5.381   0.750  0.5869 -0.3076  0.4173
12280TIP3   OH236782   5.259   4.987   4.810  0.1827  0.1311 -0.3857
12280TIP3    H136783   5.229   5.077   4.823  0.2130 -0.0879  1.5431
12280TIP3    H236784   5.346   4.985   4.850  0.5916 -0.5366 -1.2670
12281TIP3   OH236785   5.815   4.139   4.470  0.5378 -0.4710 -0.0678
12281TIP3    H136786   5.741   4.080   4.484  0.0905 -0.7787 -3.1368
12281TIP3    H236787   5.783   4.224   4.502 -0.9227 -0.7536 -0.6820
12282TIP3   OH236788   2.810   7.772   6.709  0.1982 -0.5758 -0.0241
12282TIP3    H136789   2.861   7.847   6.679 -0.1554 -0.5090 -0.4690
12282TIP3    H236790   2.762   7.805   6.785  0.2997 -0.4471 -0.0152
12283TIP3   OH236791   5.061   3.648   2.448 -0.1835 -0.3463  0.4828
12283TIP3    H136792   5.006   3.721   2.477  0.0823 -0.0758  0.3104
12283TIP3    H236793   5.014   3.609   2.374 -0.1272 -0.0993  0.3186
12284TIP3   OH236794   3.150   4.148   0.572 -0.1580  0.3209 -0.0010
12284TIP3    H136795   3.161   4.087   0.499  1.0323  0.9239 -0.3517
12284TIP3    H236796   3.150   4.234   0.531  0.4737  0.6653  0.7132
12285TIP3   OH236797   4.477   7.597   6.324  0.1737  0.2743 -0.5388
12285TIP3    H136798   4.562   7.556   6.337  0.0276 -0.7526 -2.5598
12285TIP3    H236799   4.454   7.579   6.233 -1.6710  1.5624 -0.3968
12286TIP3   OH236800   5.683   4.957   3.122 -0.3081  0.3934  0.1851
12286TIP3    H136801   5.654   5.008   3.198 -0.0348  2.1940 -0.8395
12286TIP3    H236802   5.639   4.873   3.131 -1.7017  1.2014  1.4074
12287TIP3   OH236803   2.428   6.360   4.981 -0.5037 -0.3346 -0.3113
12287TIP3    H136804   2.371   6.431   4.952 -0.3905 -0.5196 -1.0016
12287TIP3    H236805   2.457   6.318   4.900  0.2517 -0.5252  0.0529
12288TIP3   OH236806   5.125   0.759   5.781 -0.2821  0.2932  0.0617
12288TIP3    H136807   5.191   0.692   5.798 -0.2317  0.4613  0.5300
12288TIP3    H236808   5.062   0.716   5.722 -0.6718 -0.4296  0.9855
12289TIP3   OH236809   3.953   5.708   3.058 -0.4513  0.3636 -0.6155
12289TIP3    H136810   4.008   5.688   2.982 -0.2374  0.8216 -0.5830
12289TIP3    H236811   3.866   5.724   3.021  0.0028  2.2680 -0.9702
12290TIP3   OH236812   2.531   6.784   2.512  0.5156  0.4219 -0.5468
12290TIP3    H136813   2.471   6.854   2.487  0.3921  0.1912 -0.8968
12290TIP3    H236814   2.573   6.758   2.430 -0.2423 -0.6690 -0.6100
12291TIP3   OH236815   2.603   7.455   0.580 -0.3855 -0.3047 -0.0132
12291TIP3    H136816   2.692   7.437   0.611 -0.8521 -1.7613  0.5510
12291TIP3    H236817   2.558   7.371   0.587 -1.8899  0.4721 -0.0589
12292TIP3   OH236818   0.858   6.579   4.925  0.1116  0.7524 -0.6777
12292TIP3    H136819   0.784   6.564   4.985 -0.5541  0.1869 -1.5997
12292TIP3    H236820   0.875   6.493   4.887  1.1858  0.9069 -0.5586
12293TIP3   OH236821   3.919   6.265   0.458 -0.1335 -0.1116  0.3413
12293TIP3    H136822   3.972   6.264   0.537 -1.8811 -1.2857  1.5738
12293TIP3    H236823   3.973   6.310   0.393  2.7358 -1.9695  1.2331
12294TIP3   OH236824   2.498   5.179   4.382  0.2097 -0.0708 -0.1006
12294TIP3    H136825   2.568   5.242   4.394 -1.8939  2.1679  1.4450
12294TIP3    H236826   2.477   5.150   4.471 -1.4205  0.0432 -0.4214
12295TIP3   OH236827   4.139   0.410   0.183  0.2306 -0.6230  0.5623
12295TIP3    H136828   4.071   0.477   0.179 -0.7247 -1.5762  0.1415
12295TIP3    H236829   4.104   0.338   0.130  1.6388 -1.0909  0.2216
12296TIP3   OH236830   6.334   1.635   3.895 -0.0954  0.0070  0.0391
12296TIP3    H136831   6.267   1.632   3.826  1.4156  0.9082 -1.5559
12296TIP3    H236832   6.379   1.551   3.888 -1.1514 -0.7022  1.2789
12297TIP3   OH236833   0.105   6.869   5.994 -0.1064 -0.2311  0.1421
12297TIP3    H136834   0.044   6.942   5.984  3.6688  3.3124  0.0611
12297TIP3    H236835   0.125   6.866   6.087  0.0880 -0.9139  0.0857
12298TIP3   OH236836   3.338   5.118   4.936 -0.2904  0.5265  0.1749
12298TIP3    H136837   3.297   5.032   4.925  0.2449  0.3650 -0.6905
12298TIP3    H236838   3.429   5.103   4.913 -0.0525  1.1923  0.6794
12299TIP3   OH236839   1.801   6.098   2.838  0.5416 -0.4300 -0.0212
12299TIP3    H136840   1.810   6.060   2.750  0.0622  0.4467 -0.4579
12299TIP3    H236841   1.756   6.030   2.888  0.5590 -0.8262 -0.5316
12300TIP3   OH236842   1.634   4.398   4.214 -0.4266  0.0592  0.5412
12300TIP3    H136843   1.565   4.426   4.275  0.8814  3.1075  0.7736
12300TIP3    H236844   1.708   4.456   4.233  1.0590 -0.8600 -1.9803
12301TIP3   OH236845   1.033   1.539   5.779  0.2294 -0.0061  0.7056
12301TIP3    H136846   1.106   1.515   5.722 -0.1100 -0.5213  0.4783
12301TIP3    H236847   0.968   1.470   5.765  0.3558 -0.4386  2.1394
12302TIP3   OH236848   7.165   6.681   2.260 -0.3147 -0.0096  0.4641
12302TIP3    H136849   7.134   6.756   2.312 -0.1982  2.9156 -3.2713
12302TIP3    H236850   7.260   6.682   2.271 -0.2287  1.0213 -0.2536
12303TIP3   OH236851   3.335   4.772   1.913 -0.1962  0.4099  0.3683
12303TIP3    H136852   3.286   4.791   1.833 -1.2176  2.4720  1.3822
12303TIP3    H236853   3.269   4.742   1.975  0.1307  1.1805  1.1244
12304TIP3   OH236854   2.196   4.525   6.456 -0.4033 -0.3102  0.5843
12304TIP3    H136855   2.230   4.449   6.503 -0.8376 -1.1750 -0.4581
12304TIP3    H236856   2.134   4.565   6.516  0.4228 -0.2973  1.4542
12305TIP3   OH236857   6.078   4.886   1.328 -0.1882 -0.2800 -0.4358
12305TIP3    H136858   6.110   4.845   1.408 -1.1405  1.5834  0.9787
12305TIP3    H236859   6.000   4.934   1.356 -0.2682  0.8081 -2.3903
12306TIP3   OH236860   6.993   3.895   3.713  0.5896  0.1277  0.0956
12306TIP3    H136861   7.046   3.833   3.662 -0.2336 -1.8039  1.4432
12306TIP3    H236862   7.053   3.927   3.781  0.4772 -0.9101  0.7111
12307TIP3   OH236863   1.645   7.488   2.461  0.3127  0.0693  0.6542
12307TIP3    H136864   1.678   7.573   2.488  2.3983 -0.9531  1.5807
12307TIP3    H236865   1.569   7.507   2.405  2.8906  2.6942 -2.3220
12308TIP3   OH236866   4.230   5.865   6.052 -0.1091 -0.2345  0.7561
12308TIP3    H136867   4.287   5.789   6.038  0.4792  0.1607  0.9525
12308TIP3    H236868   4.148   5.842   6.008  0.8168 -0.0546 -1.2114
12309TIP3   OH236869   4.010   5.774   0.806 -0.0160 -0.1625  0.3074
12309TIP3    H136870   3.998   5.753   0.898  0.8131 -1.0073  0.2331
12309TIP3    H236871   4.008   5.690   0.761  2.4323 -0.0746 -0.1015
12310TIP3   OH236872   3.342   5.570   1.502 -0.1483  0.1554 -0.5634
12310TIP3    H136873   3.389   5.603   1.579 -0.3487 -1.5483  0.3429
12310TIP3    H236874   3.310   5.648   1.457 -0.2435  1.1825  1.2265
12311TIP3   OH236875   6.256   7.210   5.687  0.0726  0.9864  0.3436
12311TIP3    H136876   6.212   7.251   5.613  0.8916  1.3019  0.0187
12311TIP3    H236877   6.230   7.262   5.763 -1.9818 -0.2340  0.5474
12312TIP3   OH236878   1.899   4.503   6.371 -0.6960  0.4598  0.5363
12312TIP3    H136879   1.928   4.413   6.391 -0.3280  0.6580  0.9061
12312TIP3    H236880   1.938   4.556   6.440 -0.0750  1.0461 -0.2497
12313TIP3   OH236881   1.143   7.114   1.627  0.7237 -0.1700 -0.2329
12313TIP3    H136882   1.194   7.148   1.554  0.0071 -0.4128 -0.8605
12313TIP3    H236883   1.096   7.039   1.591 -1.5567  1.1481 -0.2471
12314TIP3   OH236884   7.381   4.225   3.406  0.5501 -0.3547  0.3099
12314TIP3    H136885   7.343   4.292   3.463  1.4695 -0.6467  1.2936
12314TIP3    H236886   7.463   4.264   3.375  0.8231 -0.8075  0.4537
12315TIP3   OH236887   7.711   6.246   1.477 -0.3865  0.2420 -0.1370
12315TIP3    H136888   7.617   6.256   1.460 -0.1946 -0.6472 -1.9780
12315TIP3    H236889   7.752   6.316   1.427 -0.0188  0.2805  0.2129
12316TIP3   OH236890   5.786   1.082   4.146  0.1210 -0.3299  0.2569
12316TIP3    H136891   5.710   1.110   4.095  0.3471 -3.1590 -1.8955
12316TIP3    H236892   5.749   1.048   4.227 -0.5307  1.4473  0.7546
12317TIP3   OH236893   2.972   6.195   5.355  0.0578  0.4596  0.2508
12317TIP3    H136894   2.940   6.114   5.314  1.6271 -0.0589  0.0061
12317TIP3    H236895   2.917   6.264   5.317 -0.0532 -0.2797 -0.9740
12318TIP3   OH236896   5.468   6.313   1.664 -0.1049  0.0564  0.0877
12318TIP3    H136897   5.524   6.298   1.740  0.5138 -1.5522 -0.6293
12318TIP3    H236898   5.525   6.358   1.602 -0.6099  1.3721  0.5495
12319TIP3   OH236899   5.140   7.625   5.235  0.3056 -0.4875  0.3452
12319TIP3    H136900   5.220   7.676   5.228  1.0365 -1.5744  0.5554
12319TIP3    H236901   5.101   7.653   5.318  0.9716 -0.6424  0.7154
12320TIP3   OH236902   8.314   4.989   4.602  0.4281 -0.2173  0.0136
12320TIP3    H136903   8.277   5.071   4.569 -1.8917 -1.2801 -0.2389
12320TIP3    H236904   8.250   4.959   4.668  0.4170 -2.5196 -0.9468
12321TIP3   OH236905   7.708   5.340   4.358 -0.5474 -0.0552 -0.3811
12321TIP3    H136906   7.801   5.360   4.366 -0.2509 -2.0746  3.1882
12321TIP3    H236907   7.667   5.383   4.433 -1.6445 -3.0450  0.8749
12322TIP3   OH236908   0.255   5.793   0.136 -0.3633  0.1771 -0.2212
12322TIP3    H136909   0.269   5.764   0.046 -3.0701 -3.5735  0.3242
12322TIP3    H236910   0.162   5.777   0.152 -0.5321  2.9827  2.6022
12323TIP3   OH236911   0.492   5.170   3.170 -0.1448 -0.2175  0.0420
12323TIP3    H136912   0.587   5.168   3.182  0.0265  2.3360 -0.3255
12323TIP3    H236913   0.457   5.169   3.259  0.1948 -1.2666  0.1788
12324TIP3   OH236914   8.271   0.092   1.230  0.3145  0.7253  0.0974
12324TIP3    H136915   8.254   0.001   1.205  0.5579  1.3161 -2.4491
12324TIP3    H236916   8.225   0.103   1.313 -0.6320 -1.4096 -0.0897
12325TIP3   OH236917   4.337   6.498   1.548 -0.1388 -0.2388 -0.2772
12325TIP3    H136918   4.279   6.560   1.593  0.1593 -0.7952  0.9261
12325TIP3    H236919   4.280   6.424   1.526 -0.5212  0.4820 -1.8207
12326TIP3   OH236920   3.874   4.084   0.079  0.2062 -0.3970  1.0638
12326TIP3    H136921   3.785   4.112   0.103  0.2461  1.3028 -0.6024
12326TIP3    H236922   3.922   4.086   0.161 -0.6130  1.4351  1.5532
12327TIP3   OH236923   3.265   2.602   5.623 -0.0113 -0.3909  0.3783
12327TIP3    H136924   3.196   2.535   5.623 -0.2522 -0.1647  1.4237
12327TIP3    H236925   3.281   2.620   5.530 -1.1287 -0.6851  0.1091
12328TIP3   OH236926   0.653   1.570   0.123  0.3854 -0.2384  0.2799
12328TIP3    H136927   0.704   1.599   0.047 -0.7975 -0.8680 -0.7983
12328TIP3    H236928   0.633   1.478   0.104  1.2613 -0.8496  2.0586
12329TIP3   OH236929   4.192   7.364   6.780 -0.0102  0.2042 -0.4257
12329TIP3    H136930   4.220   7.298   6.716 -1.0611 -0.0205 -0.6698
12329TIP3    H236931   4.205   7.448   6.735 -0.3703  0.0688 -0.7793
12330TIP3   OH236932   6.706   1.500   3.213  0.0295 -0.4641 -0.1850
12330TIP3    H136933   6.661   1.585   3.216 -2.2747 -1.6001 -0.1423
12330TIP3    H236934   6.758   1.504   3.133 -1.4697  0.3536 -1.1741
12331TIP3   OH236935   4.918   2.883   5.438 -0.2376 -0.1779 -0.2618
12331TIP3    H136936   4.859   2.957   5.449  1.4908  1.3201 -0.4801
12331TIP3    H236937   4.932   2.877   5.343  0.4805 -0.0345 -0.1764
12332TIP3   OH236938   7.864   2.286   4.104  0.0614 -0.2365  0.1446
12332TIP3    H136939   7.784   2.287   4.051  0.4316  0.4309 -0.4083
12332TIP3    H236940   7.853   2.210   4.162 -0.2627 -1.0788 -0.9988
12333TIP3   OH236941   4.955   6.151   6.774  0.2705  0.5265  0.0321
12333TIP3    H136942   4.934   6.150   6.681  0.1216 -1.5090  0.0374
12333TIP3    H236943   5.048   6.126   6.778  0.2722  0.5907  0.4210
12334TIP3   OH236944   7.274   2.132   6.390  0.1771 -0.0602 -0.3647
12334TIP3    H136945   7.250   2.056   6.337  1.5269  0.7453 -2.2239
12334TIP3    H236946   7.210   2.133   6.461 -3.0609 -0.0145 -3.0441
12335TIP3   OH236947   6.755   6.335   3.393 -0.3710 -0.0784 -0.1358
12335TIP3    H136948   6.735   6.251   3.434 -1.2339  0.9495  1.6751
12335TIP3    H236949   6.839   6.361   3.432 -0.2775  0.0701 -0.4301
12336TIP3   OH236950   1.628   1.294   0.922  0.1734  0.7549 -0.2816
12336TIP3    H136951   1.601   1.298   1.014 -0.4983  0.0699 -0.4343
12336TIP3    H236952   1.583   1.217   0.888  1.0528  0.5430 -0.9894
12337TIP3   OH236953   3.293   7.720   5.019 -0.4541 -0.1104 -0.0309
12337TIP3    H136954   3.282   7.775   4.942 -1.2753  0.8865  0.7868
12337TIP3    H236955   3.224   7.654   5.012 -0.1426 -0.4053 -0.4432
12338TIP3   OH236956   2.083   1.336   2.106  0.1237  0.4505  0.2998
12338TIP3    H136957   1.994   1.370   2.110 -1.1155 -2.6594  2.5991
12338TIP3    H236958   2.116   1.345   2.196  0.6308 -1.9306  0.4110
12339TIP3   OH236959   3.527   6.127   5.450  0.1290 -0.1744  0.0288
12339TIP3    H136960   3.542   6.066   5.522  1.5570 -0.3766 -0.4115
12339TIP3    H236961   3.459   6.186   5.482 -0.2041 -1.0827  1.0270
12340TIP3   OH236962   1.997   1.694   5.855  0.2543  0.6863 -0.0112
12340TIP3    H136963   2.061   1.753   5.894 -0.9824  3.1075 -1.4015
12340TIP3    H236964   2.033   1.607   5.869  2.1137  1.7112  2.2915
12341TIP3   OH236965   2.805   1.004   2.292  0.2246 -0.5810 -0.3261
12341TIP3    H136966   2.884   1.046   2.325 -0.6550 -0.2685  1.4871
12341TIP3    H236967   2.759   1.074   2.245 -0.2662 -0.0077  0.9657
12342TIP3   OH236968   1.702   2.946   6.253  0.4332  0.2225 -0.2943
12342TIP3    H136969   1.752   3.010   6.203 -0.6536  1.1012 -0.3126
12342TIP3    H236970   1.677   2.879   6.190  0.4105  0.5059 -0.5854
12343TIP3   OH236971   3.866   0.580   6.435  0.0224  0.1098  0.7762
12343TIP3    H136972   3.903   0.645   6.495 -0.1360  0.8724  0.0716
12343TIP3    H236973   3.771   0.586   6.450 -0.0693  0.7324  0.0603
12344TIP3   OH236974   2.363   6.067   6.716 -0.1122 -0.3016 -0.2986
12344TIP3    H136975   2.457   6.050   6.726 -0.2410 -1.6787 -1.1103
12344TIP3    H236976   2.323   5.981   6.729 -1.3320  0.3856  0.6631
12345TIP3   OH236977   5.561   0.247   4.714 -0.3008  0.2713 -0.2137
12345TIP3    H136978   5.626   0.178   4.725  0.0469  0.2857 -1.9311
12345TIP3    H236979   5.477   0.201   4.711 -0.0640 -0.1071 -1.4327
12346TIP3   OH236980   7.182   5.060   1.107  0.1680 -0.0313 -0.5901
12346TIP3    H136981   7.099   5.084   1.066 -0.2247  0.3850  0.3927
12346TIP3    H236982   7.156   5.014   1.187  0.9138 -1.3438 -1.0895
12347TIP3   OH236983   6.391   5.654   0.235  0.2066  0.0733 -0.0954
12347TIP3    H136984   6.371   5.636   0.326  1.1664  1.3752  0.4011
12347TIP3    H236985   6.487   5.654   0.231  0.2037  1.4015 -0.7894
12348TIP3   OH236986   7.523   3.346   0.801  0.4017  0.6221  0.0872
12348TIP3    H136987   7.465   3.361   0.876  1.1927 -1.9204  1.3080
12348TIP3    H236988   7.582   3.421   0.801  1.1125  0.1447  2.7637
12349TIP3   OH236989   0.600   6.315   4.165 -0.0527  0.1666  0.4401
12349TIP3    H136990   0.587   6.356   4.251  0.0672 -2.6513  1.8876
12349TIP3    H236991   0.511   6.301   4.133 -0.1834 -1.0334  1.2750
12350TIP3   OH236992   0.786   5.178   1.892  0.1734 -0.3335  0.0662
12350TIP3    H136993   0.873   5.147   1.865  0.0136 -0.3798 -0.4077
12350TIP3    H236994   0.796   5.273   1.901  0.4482 -0.4172  0.6969
12351TIP3   OH236995   0.029   3.824   4.493 -0.1138  0.5776  0.5690
12351TIP3    H136996   0.018   3.913   4.458 -0.3443  0.8932  1.4188
12351TIP3    H236997   0.057   3.837   4.584 -0.9925 -0.2121  0.9657
12352TIP3   OH236998   6.214   3.315   3.304 -0.4321  0.2962 -0.6792
12352TIP3    H136999   6.123   3.288   3.316 -0.0942 -0.9273 -0.7869
12352TIP3    H237000   6.239   3.354   3.388 -0.9305  0.2855 -0.5224
12353TIP3   OH237001   3.387   5.520   3.290 -0.0874 -0.0384 -0.4590
12353TIP3    H137002   3.326   5.497   3.220  1.9715 -3.4464 -1.3562
12353TIP3    H237003   3.366   5.461   3.362  0.8613  0.1560 -0.0037
12354TIP3   OH237004   5.009   2.206   2.739 -0.5106  0.2711 -0.3247
12354TIP3    H137005   5.009   2.268   2.666  0.9553  0.1788 -0.4338
12354TIP3    H237006   5.092   2.222   2.784  0.4819 -2.3422 -1.0299
12355TIP3   OH237007   0.596   4.622   2.940 -0.1360 -0.5344  0.2245
12355TIP3    H137008   0.544   4.661   3.011 -0.9771  1.0633 -1.2131
12355TIP3    H237009   0.637   4.697   2.897 -1.0250 -1.2817 -2.0407
12356TIP3   OH237010   6.111   2.238   4.638  0.4501 -0.6675  0.5074
12356TIP3    H137011   6.178   2.305   4.621  2.3287 -2.2300  1.4015
12356TIP3    H237012   6.100   2.194   4.554  2.1608 -1.7350  0.7790
12357TIP3   OH237013   3.726   1.180   3.698 -0.3033  0.3172 -1.1234
12357TIP3    H137014   3.649   1.127   3.676 -0.9047  0.5547  0.3039
12357TIP3    H237015   3.800   1.130   3.665 -0.6182 -2.6282  2.0568
12358TIP3   OH237016   1.624   1.445   4.422  0.3603  0.1103 -0.3516
12358TIP3    H137017   1.540   1.455   4.465 -0.2743 -0.3194 -1.4423
12358TIP3    H237018   1.675   1.520   4.450  0.0206 -0.2003  1.2068
12359TIP3   OH237019   1.708   1.703   3.632  0.0856  0.3832  0.5765
12359TIP3    H137020   1.694   1.791   3.665 -2.0353  0.0567  0.6817
12359TIP3    H237021   1.803   1.692   3.632  0.4067  2.6712  0.4858
12360TIP3   OH237022   3.256   4.695   2.493  0.4667  0.2938  0.4334
12360TIP3    H137023   3.341   4.660   2.467  0.1666 -0.4183  0.3889
12360TIP3    H237024   3.277   4.775   2.542  1.0780  1.2728 -1.3284
12361TIP3   OH237025   0.138   5.330   0.633  0.4367  1.0248 -0.2822
12361TIP3    H137026   0.221   5.378   0.636  1.0642 -0.0559 -0.0909
12361TIP3    H237027   0.126   5.308   0.541  0.6258  0.7238 -0.2343
12362TIP3   OH237028   1.517   3.841   3.522  0.4286 -0.0981  0.2139
12362TIP3    H137029   1.476   3.909   3.577 -1.2677  0.0064 -1.1013
12362TIP3    H237030   1.567   3.891   3.457 -0.2888 -0.1238 -0.3586
12363TIP3   OH237031   5.477   7.558   1.870 -0.2378 -0.4610  0.0123
12363TIP3    H137032   5.447   7.580   1.958 -0.4687 -0.6771 -0.0113
12363TIP3    H237033   5.469   7.463   1.865 -1.4756 -0.3481 -0.6829
12364TIP3   OH237034   6.227   5.182   2.430 -0.4745 -0.1230 -0.3303
12364TIP3    H137035   6.218   5.269   2.393  0.5109  0.4905  0.7920
12364TIP3    H237036   6.194   5.190   2.519  0.2794 -0.7062  0.0106
12365TIP3   OH237037   2.169   0.356   6.306  0.2240  0.5712 -0.1739
12365TIP3    H137038   2.086   0.374   6.350 -0.7443  1.1973 -2.1572
12365TIP3    H237039   2.193   0.268   6.336 -2.0732 -0.3691 -0.9043
12366TIP3   OH237040   5.320   1.949   4.067 -0.0080 -0.1263  0.1134
12366TIP3    H137041   5.362   1.950   4.153 -0.6435  0.3089  0.4253
12366TIP3    H237042   5.360   1.874   4.022  0.7540 -0.0047  0.5657
12367TIP3   OH237043   6.374   4.582   5.486  0.6918 -0.6275 -0.2297
12367TIP3    H137044   6.279   4.584   5.502  0.7272  0.5359 -0.0741
12367TIP3    H237045   6.405   4.667   5.515  1.4121 -0.0300 -2.5194
12368TIP3   OH237046   2.541   5.796   3.540 -0.2980 -0.7811 -0.1128
12368TIP3    H137047   2.510   5.869   3.594 -1.4887 -2.2799  1.3248
12368TIP3    H237048   2.533   5.719   3.597  1.4874 -1.9667 -1.3790
12369TIP3   OH237049   1.171   0.318   3.465 -0.0055 -0.2966  0.1797
12369TIP3    H137050   1.141   0.400   3.425 -1.4387 -1.1904 -0.7068
12369TIP3    H237051   1.106   0.299   3.532 -0.3380 -1.2463 -0.3837
12370TIP3   OH237052   7.911   5.130   6.325  0.1813 -0.0680 -0.3388
12370TIP3    H137053   7.908   5.180   6.407  0.9764 -0.3724 -0.1143
12370TIP3    H237054   7.983   5.169   6.275  0.7163 -0.8810 -0.2196
12371TIP3   OH237055   5.292   0.626   2.715  0.2576  0.7362 -0.3194
12371TIP3    H137056   5.372   0.583   2.685 -0.2448 -1.0864  0.8179
12371TIP3    H237057   5.268   0.685   2.643  1.0704 -0.7646 -1.8916
12372TIP3   OH237058   5.623   2.402   1.934 -0.0307  0.0073  0.4926
12372TIP3    H137059   5.606   2.376   1.844 -0.0560 -0.0098  0.5021
12372TIP3    H237060   5.545   2.450   1.961  1.1230  2.5348 -0.4139
12373TIP3   OH237061   3.264   0.114   5.046 -0.2140 -0.0335 -0.1379
12373TIP3    H137062   3.285   0.060   4.970 -2.0084 -2.4957  0.9915
12373TIP3    H237063   3.193   0.171   5.016  1.7184  1.8910 -1.3468
12374TIP3   OH237064   3.012   7.487   3.406 -0.3085 -0.2380  0.1626
12374TIP3    H137065   2.935   7.542   3.398  0.9002  1.3212 -1.4458
12374TIP3    H237066   3.008   7.428   3.330 -0.4760 -0.9352  0.6968
12375TIP3   OH237067   1.420   4.011   3.714 -0.3386  0.3537  0.3392
12375TIP3    H137068   1.363   3.948   3.759  0.8055 -1.2026 -0.2878
12375TIP3    H237069   1.432   4.082   3.778 -3.3429  1.0375  0.2992
12376TIP3   OH237070   0.312   0.169   0.536 -0.2129  0.1476  0.5181
12376TIP3    H137071   0.225   0.200   0.513  0.0216  0.3466 -0.1207
12376TIP3    H237072   0.305   0.074   0.535 -1.5885 -0.0289  4.8943
12377TIP3   OH237073   4.577   7.630   1.690 -0.0257 -0.5808 -0.5554
12377TIP3    H137074   4.482   7.634   1.684 -0.1013 -1.8253 -0.4308
12377TIP3    H237075   4.606   7.720   1.678 -0.9808 -0.6617 -4.6319
12378TIP3   OH237076   4.196   4.535   2.619  0.2935 -0.1454  0.0939
12378TIP3    H137077   4.277   4.527   2.670 -0.1332 -2.2550  0.5316
12378TIP3    H237078   4.174   4.445   2.594 -1.0718  0.5505 -1.3833
12379TIP3   OH237079   7.378   0.776   4.497 -0.0812 -0.6643  0.0433
12379TIP3    H137080   7.287   0.749   4.511 -0.3554  1.0657  2.1084
12379TIP3    H237081   7.372   0.858   4.448  0.4226 -0.9830 -0.5656
12380TIP3   OH237082   3.737   2.244   2.459  0.0166 -0.0734 -0.6089
12380TIP3    H137083   3.671   2.301   2.419 -1.8855 -1.3170  0.5862
12380TIP3    H237084   3.748   2.278   2.548 -1.1680 -1.5150  0.1294
12381TIP3   OH237085   6.059   4.610   3.610  0.0802  0.3796 -0.1767
12381TIP3    H137086   5.976   4.575   3.577  0.4292  0.5304 -1.2589
12381TIP3    H237087   6.120   4.597   3.537  1.5619 -1.6801  1.3108
12382TIP3   OH237088   7.334   2.576   6.365 -0.2069  0.2753 -0.4379
12382TIP3    H137089   7.292   2.561   6.280  0.4187  2.5780 -1.2271
12382TIP3    H237090   7.362   2.667   6.362  1.9624 -0.2458  1.3127
12383TIP3   OH237091   1.064   4.850   0.761 -0.1193  0.5269  0.0668
12383TIP3    H137092   1.025   4.810   0.839  0.6291 -0.0727  0.1482
12383TIP3    H237093   1.044   4.789   0.690  1.2099 -0.1337  0.2305
12384TIP3   OH237094   5.532   4.246   6.562 -0.5235 -0.4564 -0.6284
12384TIP3    H137095   5.535   4.266   6.469  3.2206 -0.5030 -0.6800
12384TIP3    H237096   5.524   4.150   6.566 -1.3900 -0.4003 -0.8477
12385TIP3   OH237097   8.161   4.159   3.928 -0.0531  0.2349 -0.3547
12385TIP3    H137098   8.251   4.189   3.913 -0.1143 -0.7721 -3.6193
12385TIP3    H237099   8.156   4.144   4.022  2.0832  3.5582  0.4609
12386TIP3   OH237100   0.512   7.305   5.562  0.3977  0.4767 -0.4262
12386TIP3    H137101   0.581   7.244   5.588  0.2045  0.4398  0.0101
12386TIP3    H237102   0.456   7.255   5.503  0.9827  0.6377 -1.1284
12387TIP3   OH237103   3.501   6.332   1.521  0.3706  0.2666 -0.1923
12387TIP3    H137104   3.507   6.417   1.563 -0.9067 -0.9176  2.6767
12387TIP3    H237105   3.562   6.277   1.570  0.4524 -0.7127 -1.3478
12388TIP3   OH237106   7.837   4.288   2.034  0.6483 -0.1653 -0.0663
12388TIP3    H137107   7.839   4.362   2.095 -1.2005  0.0078 -0.1845
12388TIP3    H237108   7.923   4.290   1.992  1.5740  0.3523  1.7493
12389TIP3   OH237109   3.989   2.377   0.672 -0.3919 -0.1921 -0.0795
12389TIP3    H137110   3.992   2.333   0.756 -1.7518 -0.2332 -0.0399
12389TIP3    H237111   3.968   2.468   0.693  0.8139  0.1614 -0.2823
12390TIP3   OH237112   2.547   1.025   2.157 -0.0579  0.0004 -0.3316
12390TIP3    H137113   2.592   1.053   2.077 -2.0352 -0.2372 -1.5945
12390TIP3    H237114   2.535   1.106   2.207  1.0905  0.1691 -0.3075
12391TIP3   OH237115   1.761   7.227   2.248 -0.3039  0.6224  0.2753
12391TIP3    H137116   1.729   7.261   2.165  1.6592  2.0505  0.0464
12391TIP3    H237117   1.805   7.301   2.290  0.1791 -0.4885  1.8433
12392TIP3   OH237118   6.103   0.854   1.360  0.0885 -0.0839  0.0545
12392TIP3    H137119   6.050   0.923   1.321  2.1891  1.2943 -0.5151
12392TIP3    H237120   6.164   0.900   1.418  0.0066 -1.6937  1.4900
12393TIP3   OH237121   1.063   6.867   3.727  0.1289 -1.0196  0.5942
12393TIP3    H137122   1.043   6.831   3.641  0.5043  0.5232 -0.1804
12393TIP3    H237123   1.025   6.805   3.789 -1.3370 -1.4818 -0.7030
12394TIP3   OH237124   4.552   7.744   6.647 -0.6365  0.3195 -0.6580
12394TIP3    H137125   4.527   7.731   6.556  1.1334  2.6926 -1.5718
12394TIP3    H237126   4.526   7.834   6.667 -0.4945  0.0319  1.0309
12395TIP3   OH237127   2.355   1.733   0.843  0.5095  0.0961  0.0782
12395TIP3    H137128   2.273   1.781   0.836 -0.4237 -1.2071  1.3144
12395TIP3    H237129   2.397   1.743   0.758 -0.9593  0.7613 -0.5973
12396TIP3   OH237130   7.273   5.795   2.838 -0.0152 -0.0869  0.2070
12396TIP3    H137131   7.302   5.771   2.750  0.5847  0.7482  0.1621
12396TIP3    H237132   7.236   5.714   2.874 -0.1027 -0.4849 -0.7399
12397TIP3   OH237133   2.449   3.031   5.453  0.0452  0.1350 -0.1129
12397TIP3    H137134   2.427   2.953   5.401 -2.8957  0.3462  0.6198
12397TIP3    H237135   2.451   3.000   5.543  1.5654  0.4467 -0.0211
12398TIP3   OH237136   3.230   7.804   2.933 -0.4659 -0.1396 -0.2665
12398TIP3    H137137   3.190   7.773   3.014 -3.1331 -0.1553 -1.4635
12398TIP3    H237138   3.262   7.725   2.890  0.8554 -0.1421  0.6897
12399TIP3   OH237139   0.391   2.316   5.268  0.3910  0.1156 -0.1263
12399TIP3    H137140   0.327   2.323   5.339  0.3711 -1.8866  0.1204
12399TIP3    H237141   0.439   2.398   5.270  1.9907 -0.6919  3.7915
12400TIP3   OH237142   1.057   3.158   4.835  0.1488 -0.2380 -0.3866
12400TIP3    H137143   1.012   3.176   4.918 -0.8623  1.8185 -1.2969
12400TIP3    H237144   1.148   3.180   4.851 -0.0886  0.3899  0.1244
12401TIP3   OH237145   7.145   2.100   4.156 -0.1306  0.1849 -0.2533
12401TIP3    H137146   7.231   2.082   4.192 -0.3167 -0.6791 -0.2147
12401TIP3    H237147   7.133   2.035   4.087 -1.6803 -1.2806  1.2831
12402TIP3   OH237148   5.448   6.402   3.556 -0.5771  0.2675  0.2975
12402TIP3    H137149   5.426   6.363   3.640  0.3253  1.2640  1.0245
12402TIP3    H237150   5.400   6.350   3.491 -0.6149 -1.0337  1.3510
12403TIP3   OH237151   4.179   4.858   2.794  0.0079 -0.0569 -0.1365
12403TIP3    H137152   4.116   4.879   2.863 -1.6270 -0.9101 -1.2931
12403TIP3    H237153   4.222   4.778   2.825 -3.3523 -2.6926 -1.5531
12404TIP3   OH237154   4.037   0.054   6.117 -0.2807 -0.1899 -0.1429
12404TIP3    H137155   4.079   0.127   6.164 -1.8953  1.2204 -0.7642
12404TIP3    H237156   4.011  -0.007   6.186  1.5183 -0.4390  0.3579
12405TIP3   OH237157   3.076   0.644   2.147  0.1180  0.0770  0.3791
12405TIP3    H137158   3.170   0.635   2.167  0.2692  0.9603  0.0933
12405TIP3    H237159   3.070   0.623   2.054  0.3323  1.8581 -0.0650
12406TIP3   OH237160   2.529   2.777   3.034 -0.1074 -0.1029  0.2403
12406TIP3    H137161   2.491   2.811   2.953  0.1379 -0.0880  0.1293
12406TIP3    H237162   2.473   2.703   3.058 -0.0269 -0.2731 -0.0868
12407TIP3   OH237163   4.738   5.241   0.411  0.5556 -0.6046 -0.4395
12407TIP3    H137164   4.653   5.210   0.380 -0.3498 -2.3456  3.1463
12407TIP3    H237165   4.801   5.196   0.356 -0.8308 -0.7417 -1.9957
12408TIP3   OH237166   3.672   4.127   6.004  0.1245  0.2577  0.0573
12408TIP3    H137167   3.734   4.054   6.010 -0.6204 -0.3996  0.0542
12408TIP3    H237168   3.631   4.131   6.091 -1.4298 -0.8119 -0.5702
12409TIP3   OH237169   5.486   4.688   5.852  0.1204  0.0635  0.3860
12409TIP3    H137170   5.540   4.766   5.851  0.1236  0.1699 -2.7146
12409TIP3    H237171   5.512   4.641   5.931  2.3907  1.6656  0.6915
12410TIP3   OH237172   4.257   1.894   0.109 -0.1822  0.0255  0.1746
12410TIP3    H137173   4.297   1.965   0.058 -0.6837 -0.1323 -0.4475
12410TIP3    H237174   4.166   1.922   0.121 -0.6361 -0.9202 -0.8684
12411TIP3   OH237175   3.299   5.522   5.071 -0.0674 -0.5131 -0.0156
12411TIP3    H137176   3.268   5.611   5.088 -1.1657 -0.6007 -1.3717
12411TIP3    H237177   3.303   5.481   5.158 -1.3370  0.2929  0.4496
12412TIP3   OH237178   0.625   6.542   6.123 -0.1560  0.0560 -0.0696
12412TIP3    H137179   0.607   6.544   6.029  0.8158 -0.2781 -0.2797
12412TIP3    H237180   0.721   6.545   6.129 -0.1614 -0.9146  0.8827
12413TIP3   OH237181   3.086   3.572   3.630  0.1745 -0.2721 -0.1510
12413TIP3    H137182   2.991   3.564   3.624  0.1532 -0.3045  0.2263
12413TIP3    H237183   3.119   3.529   3.551 -0.0876 -0.9188  0.0881
12414TIP3   OH237184   6.315   5.575   3.941  0.2338  0.5038 -0.4107
12414TIP3    H137185   6.328   5.666   3.914  0.3869  0.5264 -0.2667
12414TIP3    H237186   6.307   5.526   3.859 -0.5896  0.7467 -0.4767
12415TIP3   OH237187   4.969   3.892   5.424  0.0211  0.0132  0.6120
12415TIP3    H137188   5.025   3.846   5.486  1.9763  2.0524  0.4794
12415TIP3    H237189   5.006   3.980   5.418 -1.5732  0.6392 -1.5902
12416TIP3   OH237190   3.129   5.001   2.427 -0.0411  0.0823 -0.0154
12416TIP3    H137191   3.039   4.970   2.436 -0.7852  2.2464  0.5749
12416TIP3    H237192   3.125   5.065   2.356  1.5575 -1.4397 -1.5972
12417TIP3   OH237193   2.670   2.987   5.898 -0.6093 -0.4704  0.1193
12417TIP3    H137194   2.684   3.080   5.878 -0.7846 -0.3590  0.5118
12417TIP3    H237195   2.743   2.942   5.854 -1.1758 -0.2698 -1.0594
12418TIP3   OH237196   0.035   3.119   0.970  0.0632  0.8703  0.6925
12418TIP3    H137197   0.067   3.197   0.923  0.3190  0.8797  0.8805
12418TIP3    H237198   0.039   3.050   0.904 -0.3571  1.0589  0.4668
12419TIP3   OH237199   3.662   2.057   0.564  0.2386 -0.5366 -0.6456
12419TIP3    H137200   3.717   2.007   0.625  1.7241  0.7588 -0.8341
12419TIP3    H237201   3.636   1.994   0.498  0.3965 -1.4943  0.1873
12420TIP3   OH237202   0.437   7.559   5.977 -0.1509  0.4039 -0.4272
12420TIP3    H137203   0.404   7.474   5.949  0.5547  0.1571 -0.5493
12420TIP3    H237204   0.492   7.589   5.904  1.1967  0.0476  0.3927
12421TIP3   OH237205   6.450   3.072   1.910 -0.0535 -0.0656 -0.2568
12421TIP3    H137206   6.451   3.167   1.898  0.1900  0.0667  0.7190
12421TIP3    H237207   6.536   3.043   1.882 -0.6239 -0.2032 -1.9647
12422TIP3   OH237208   5.836   6.253   1.684  0.1631  0.6246 -0.8986
12422TIP3    H137209   5.849   6.159   1.681  2.0385  0.8446 -0.6793
12422TIP3    H237210   5.894   6.284   1.754 -1.8231  1.7553  0.3671
12423TIP3   OH237211   5.981   5.277   2.901  0.0352 -0.0373  0.1477
12423TIP3    H137212   5.913   5.210   2.889  0.0117  0.0886 -0.4374
12423TIP3    H237213   5.932   5.358   2.911  0.1052  0.3849 -2.3243
12424TIP3   OH237214   1.396   6.032   6.063 -0.6128  0.0643 -0.1096
12424TIP3    H137215   1.378   5.943   6.092 -0.0939  0.0798  0.2855
12424TIP3    H237216   1.395   6.028   5.967  0.5086 -0.6156 -0.1174
12425TIP3   OH237217   5.430   7.225   4.678  0.1543  0.1581  0.2646
12425TIP3    H137218   5.367   7.163   4.714  0.6956 -0.0650  0.8531
12425TIP3    H237219   5.388   7.310   4.687 -0.6644 -0.1270 -0.7042
12426TIP3   OH237220  -0.001   6.701   2.527 -0.0450 -0.5137  0.1764
12426TIP3    H137221   0.056   6.674   2.599 -0.0376  1.5458  1.0246
12426TIP3    H237222   0.055   6.700   2.449  1.5866  2.4196  1.1368
12427TIP3   OH237223   6.380   6.138   3.742  0.0763  0.2637 -0.2243
12427TIP3    H137224   6.410   6.084   3.668  0.5998  0.9088 -0.4923
12427TIP3    H237225   6.308   6.189   3.706 -0.4534 -0.2767  0.0441
12428TIP3   OH237226   2.899   4.379   0.540 -0.3326 -0.3525  0.0236
12428TIP3    H137227   2.838   4.317   0.502  1.6518 -1.9819 -0.6545
12428TIP3    H237228   2.916   4.442   0.470  0.0738 -0.9107 -0.3914
12429TIP3   OH237229   2.466   1.822   5.928  0.0802  0.3476  0.0559
12429TIP3    H137230   2.521   1.899   5.911  1.2527 -0.4451  0.1142
12429TIP3    H237231   2.467   1.813   6.024 -1.9398  1.5633  0.2383
12430TIP3   OH237232   4.157   5.415   2.582 -0.2039  0.5553 -0.1345
12430TIP3    H137233   4.250   5.398   2.563 -0.5351  0.6464 -1.9120
12430TIP3    H237234   4.134   5.489   2.527 -1.2341  0.8363  0.6517
12431TIP3   OH237235   1.416   3.172   1.038  0.4877  0.5201  0.0202
12431TIP3    H137236   1.497   3.214   1.067  0.9558  0.6750 -1.4541
12431TIP3    H237237   1.354   3.186   1.110  1.9117 -0.0858  1.4170
12432TIP3   OH237238   5.536   1.335   0.716  0.6850 -0.2294  0.6229
12432TIP3    H137239   5.461   1.306   0.664  0.2365  1.0726  0.4996
12432TIP3    H237240   5.603   1.357   0.652  0.9437 -0.7719  0.7044
12433TIP3   OH237241   7.952   7.020   3.505 -0.3040 -0.2744 -0.6309
12433TIP3    H137242   7.961   7.115   3.502  0.6492 -0.3169  0.1481
12433TIP3    H237243   8.000   6.995   3.585 -0.1948 -1.4362 -1.0499
12434TIP3   OH237244   0.155   2.204   3.066  0.3325  0.2259  0.2437
12434TIP3    H137245   0.076   2.248   3.096  0.3216  0.1997  0.2529
12434TIP3    H237246   0.213   2.205   3.141  0.4184  0.4263  0.1767
12435TIP3   OH237247   6.114   0.292   4.619  0.2933 -0.0483 -0.3314
12435TIP3    H137248   6.070   0.367   4.657  0.8260 -0.2933  0.8231
12435TIP3    H237249   6.207   0.307   4.637  0.3085 -1.7103  1.4005
12436TIP3   OH237250   5.517   6.494   3.121 -0.1280 -0.4196  0.1245
12436TIP3    H137251   5.437   6.514   3.169 -0.3162 -0.0799 -0.3179
12436TIP3    H237252   5.510   6.546   3.041  0.0489 -1.1625 -0.3959
12437TIP3   OH237253   3.452   2.635   5.831  0.1119 -0.4350 -0.8059
12437TIP3    H137254   3.382   2.594   5.780  0.1872 -0.3654 -0.9676
12437TIP3    H237255   3.531   2.621   5.779  0.0486  0.4077 -1.1536
12438TIP3   OH237256   2.800   2.410   4.702  0.2632  0.1985  0.2646
12438TIP3    H137257   2.815   2.438   4.792  2.2529  4.5268 -1.1682
12438TIP3    H237258   2.880   2.364   4.677 -1.1811 -3.1306  1.1909
12439TIP3   OH237259   2.555   7.267   1.808  0.0774  0.4347 -0.0469
12439TIP3    H137260   2.587   7.221   1.730 -1.5529  0.9858 -1.0939
12439TIP3    H237261   2.605   7.348   1.811  1.2756 -0.2914  0.4365
12440TIP3   OH237262   3.422   3.942   6.455 -0.4904  0.0475 -0.3042
12440TIP3    H137263   3.405   3.848   6.448 -1.8500  0.2560  0.0214
12440TIP3    H237264   3.407   3.976   6.367 -0.2502  0.0097 -0.3621
12441TIP3   OH237265   4.361   4.731   6.384  0.3772 -0.3850 -0.0087
12441TIP3    H137266   4.329   4.779   6.307  0.5123  0.7836  0.6360
12441TIP3    H237267   4.456   4.727   6.371  0.7240  2.0102  1.2350
12442TIP3   OH237268   1.946   6.071   4.748 -0.0007 -0.2848 -0.3198
12442TIP3    H137269   2.025   6.120   4.773 -0.6274  0.8340 -0.4368
12442TIP3    H237270   1.929   6.097   4.658  0.9405 -2.5343 -1.2186
12443TIP3   OH237271   0.405   6.648   2.687 -0.4122  0.3325  0.7444
12443TIP3    H137272   0.450   6.720   2.641 -0.4782  0.4028  0.7885
12443TIP3    H237273   0.475   6.599   2.729 -0.3034 -0.0178  0.1716
12444TIP3   OH237274   7.705   5.505   5.604  0.2489  0.3974  0.4237
12444TIP3    H137275   7.610   5.505   5.619  0.0689 -2.0398 -0.3445
12444TIP3    H237276   7.715   5.512   5.509  0.7140 -1.8060  0.2766
12445TIP3   OH237277   5.288   3.779   5.441 -0.2906 -0.2059  0.5980
12445TIP3    H137278   5.255   3.707   5.388  1.8475 -0.3267 -0.6569
12445TIP3    H237279   5.256   3.760   5.530 -1.1425 -1.7783 -0.0040
12446TIP3   OH237280   5.809   6.667   5.121 -0.6239 -0.3522 -0.1632
12446TIP3    H137281   5.817   6.605   5.194  0.1962 -1.4564 -1.1413
12446TIP3    H237282   5.721   6.650   5.086  0.0543 -1.9521 -1.2217
12447TIP3   OH237283   4.408   0.859   5.664 -0.4502  0.2037 -0.3473
12447TIP3    H137284   4.403   0.884   5.571 -0.0581 -2.3724 -1.1565
12447TIP3    H237285   4.501   0.841   5.678 -0.5731  0.1692  0.4516
12448TIP3   OH237286   4.903   0.691   2.693  0.0573  0.0232  0.1250
12448TIP3    H137287   4.897   0.727   2.781 -1.4865 -0.8013  0.3917
12448TIP3    H237288   4.929   0.765   2.638  1.1044  0.5282  1.2602
12449TIP3   OH237289   1.060   4.371   5.233 -0.3791 -0.1198 -0.6341
12449TIP3    H137290   1.106   4.366   5.150 -0.0220 -0.8303 -0.3964
12449TIP3    H237291   0.979   4.322   5.219  0.7271 -2.2936  0.1054
12450TIP3   OH237292   3.064   5.328   5.679  0.2507  0.2170  0.3021
12450TIP3    H137293   2.988   5.379   5.650 -1.2552 -2.0035  0.0803
12450TIP3    H237294   3.098   5.287   5.599 -0.8089 -1.9037  0.8508
12451TIP3   OH237295   4.296   0.247   6.063  0.0090  0.1778  0.3705
12451TIP3    H137296   4.355   0.172   6.075 -0.1246 -0.0625 -0.4340
12451TIP3    H237297   4.242   0.247   6.143  1.1215  0.4463  1.1491
12452TIP3   OH237298   5.673   6.975   4.721 -0.4574  0.1643  0.5416
12452TIP3    H137299   5.654   7.032   4.796 -2.0174  0.9251 -0.3797
12452TIP3    H237300   5.597   6.918   4.715  0.2213 -0.7205  0.2578
12453TIP3   OH237301   0.862   0.953   2.958  0.0687  0.2187 -0.0741
12453TIP3    H137302   0.870   0.860   2.934  2.1416  0.2133  0.4080
12453TIP3    H237303   0.768   0.966   2.972 -0.2595 -1.8500  0.0352
12454TIP3   OH237304   4.621   7.791   3.933 -0.5388  0.3897 -0.3561
12454TIP3    H137305   4.591   7.718   3.987 -0.2251  1.0540  0.7544
12454TIP3    H237306   4.548   7.852   3.932  0.4428  1.6999  1.7854
12455TIP3   OH237307   0.676   6.968   4.567 -0.3429  0.5778  0.6130
12455TIP3    H137308   0.765   6.955   4.600 -0.6834 -0.4333  1.1560
12455TIP3    H237309   0.619   6.929   4.633 -1.3448  2.9679  1.2705
12456TIP3   OH237310   7.186   3.476   2.627 -0.2378 -0.4424  0.3876
12456TIP3    H137311   7.191   3.527   2.708 -0.9139 -2.6634  1.9301
12456TIP3    H237312   7.101   3.431   2.632 -0.7402  0.0672 -2.0410
12457TIP3   OH237313   5.801   6.062   5.023  1.0462 -0.1323  0.2623
12457TIP3    H137314   5.796   6.144   5.071  0.5069  0.2291 -0.4031
12457TIP3    H237315   5.737   6.005   5.066  1.1736 -0.0943  0.5055
12458TIP3   OH237316   1.502   5.074   4.840  0.0378 -0.3010  0.5550
12458TIP3    H137317   1.597   5.072   4.826 -0.0358  3.4884 -1.9708
12458TIP3    H237318   1.468   5.006   4.782  1.1191 -0.9083  0.6075
12459TIP3   OH237319   7.583   7.443   3.569 -0.1379 -0.1332 -0.2476
12459TIP3    H137320   7.575   7.508   3.499 -2.9441  1.5935  1.4344
12459TIP3    H237321   7.514   7.379   3.550  0.4562 -0.8029 -0.1592
12460TIP3   OH237322  -0.011   3.289   1.295 -0.3745  0.0814 -0.3949
12460TIP3    H137323   0.078   3.322   1.310 -0.3348 -0.6750  1.3129
12460TIP3    H237324  -0.062   3.367   1.274  1.1445  0.2528 -4.2040
12461TIP3   OH237325   2.148   5.366   6.789  0.2132  0.1634  0.1775
12461TIP3    H137326   2.101   5.395   6.711  0.8183  0.5486 -0.0482
12461TIP3    H237327   2.187   5.282   6.764 -1.9437 -1.1708  0.9847
12462TIP3   OH237328   6.492   3.220   5.334  0.0276  0.0645  0.0847
12462TIP3    H137329   6.566   3.170   5.299 -1.5597 -1.2344 -1.5958
12462TIP3    H237330   6.496   3.204   5.428  1.7833 -0.0959  0.0210
12463TIP3   OH237331   5.701   5.474   2.967 -0.6727  0.1423 -0.2160
12463TIP3    H137332   5.696   5.528   3.046 -0.6476  2.4106 -1.6727
12463TIP3    H237333   5.611   5.442   2.954 -0.7303 -0.0259  0.5805
12464TIP3   OH237334   8.123   7.757   3.709  0.4453 -0.4966 -0.0838
12464TIP3    H137335   8.102   7.689   3.773  1.8758 -1.6151 -0.7415
12464TIP3    H237336   8.218   7.765   3.714  0.5113 -0.1333 -1.5854
12465TIP3   OH237337   2.345   5.744   3.873 -0.3242  0.0143 -0.3926
12465TIP3    H137338   2.284   5.690   3.823 -0.5192  1.0119 -1.2465
12465TIP3    H237339   2.428   5.697   3.867 -0.7878 -0.8840  0.0211
12466TIP3   OH237340   5.716   6.078   2.409  0.2486 -0.6010 -0.0721
12466TIP3    H137341   5.692   6.167   2.432 -0.5674 -0.9201  0.3365
12466TIP3    H237342   5.800   6.087   2.363  2.2084  0.0717  3.2681
12467TIP3   OH237343   2.495   3.588   0.769  0.1297  0.7684  0.5855
12467TIP3    H137344   2.540   3.567   0.687 -0.4572 -2.4908  0.9561
12467TIP3    H237345   2.558   3.639   0.819  3.1085 -2.4987  0.5588
12468TIP3   OH237346   6.603   6.763   3.156 -0.0215  0.7935 -0.6182
12468TIP3    H137347   6.671   6.706   3.192 -1.5696 -0.6902  0.0582
12468TIP3    H237348   6.545   6.783   3.229 -1.2866  0.5911 -1.5258
12469TIP3   OH237349   0.887   4.535   2.937  0.2972 -0.0462 -0.0815
12469TIP3    H137350   0.895   4.524   3.032  1.0570 -0.4589 -0.1808
12469TIP3    H237351   0.793   4.542   2.921  0.0941 -1.0562  0.5865
12470TIP3   OH237352   3.255   0.405   1.899 -0.2646  0.6292 -0.1736
12470TIP3    H137353   3.312   0.470   1.858 -0.0204 -0.2804 -1.3396
12470TIP3    H237354   3.167   0.436   1.882 -0.1455  0.7164 -0.6428
12471TIP3   OH237355   1.093   2.201   4.999 -0.3813  0.4376 -0.2969
12471TIP3    H137356   1.070   2.292   4.979  1.1694  1.3353  1.6726
12471TIP3    H237357   1.189   2.200   5.003 -0.3886 -1.1240  0.3901
12472TIP3   OH237358   2.352   3.184   5.992  0.4740 -0.0362  0.1688
12472TIP3    H137359   2.417   3.244   5.957 -0.4715  0.1066 -1.4531
12472TIP3    H237360   2.290   3.240   6.038 -0.0844  0.1970 -0.8341
12473TIP3   OH237361   3.257   7.189   1.977  0.2355  0.1960 -0.4597
12473TIP3    H137362   3.186   7.233   1.930 -1.2653  1.4981  2.7827
12473TIP3    H237363   3.310   7.260   2.013  1.0116 -0.7272  0.2816
12474TIP3   OH237364   6.914   2.463   4.729  0.2272  0.7659 -0.5431
12474TIP3    H137365   6.911   2.368   4.713 -1.0421  1.0107 -1.9686
12474TIP3    H237366   6.999   2.490   4.696  0.3233  0.2165 -0.7685
12475TIP3   OH237367   5.918   0.754   3.405  0.1626 -0.1363  0.0846
12475TIP3    H137368   5.954   0.723   3.488  0.2537 -0.4594 -0.0768
12475TIP3    H237369   5.892   0.675   3.358 -1.6775  0.1111  0.5995
12476TIP3   OH237370   3.545   4.807   0.219  0.8152  0.0037 -0.2767
12476TIP3    H137371   3.450   4.816   0.207  0.5791 -0.3958  1.1458
12476TIP3    H237372   3.569   4.881   0.274  1.3351  0.1196 -0.6623
12477TIP3   OH237373   7.664   5.502   1.398  0.0913 -0.2283 -0.4390
12477TIP3    H137374   7.730   5.570   1.401 -0.5084  0.3581 -0.2908
12477TIP3    H237375   7.652   5.483   1.305 -0.4249  0.5489 -0.5343
12478TIP3   OH237376   0.077   6.498   3.898 -0.3525  0.4237 -0.0523
12478TIP3    H137377   0.162   6.487   3.940  0.1305 -0.4506 -1.1981
12478TIP3    H237378   0.094   6.559   3.826 -0.1063 -1.4618 -1.7161
12479TIP3   OH237379   0.134   0.424   6.297 -0.0527 -0.3158 -0.0071
12479TIP3    H137380   0.219   0.385   6.279  1.4337  2.8069 -0.4416
12479TIP3    H237381   0.072   0.373   6.245  1.7282 -1.8570 -0.7025
12480TIP3   OH237382   2.287   2.736   4.051  0.0593  0.1395  0.0344
12480TIP3    H137383   2.219   2.720   4.117 -2.0531  1.0725 -1.8051
12480TIP3    H237384   2.314   2.826   4.067 -1.7999  1.0153 -1.4488
12481TIP3   OH237385   7.447   7.470   4.386 -0.4960  0.2178  0.2779
12481TIP3    H137386   7.392   7.472   4.464  0.1837 -0.3909  0.7904
12481TIP3    H237387   7.477   7.379   4.379 -0.4916  0.2782 -0.6533
12482TIP3   OH237388   1.150   2.898   3.205  0.2991  0.6381  0.3669
12482TIP3    H137389   1.163   2.826   3.267  1.2523  0.7037  0.2516
12482TIP3    H237390   1.064   2.880   3.166  1.4590 -1.7480 -1.3600
12483TIP3   OH237391   1.572   1.495   0.397 -0.4661 -0.3444 -0.5807
12483TIP3    H137392   1.576   1.441   0.476 -0.3850  1.4402  0.6700
12483TIP3    H237393   1.660   1.489   0.360  0.6714  1.7497  1.5372
12484TIP3   OH237394   0.264   5.627   6.790  0.0416 -0.2806 -0.1383
12484TIP3    H137395   0.292   5.677   6.713 -0.0540  1.3218  0.8371
12484TIP3    H237396   0.171   5.610   6.774 -0.3611  1.3564  0.2761
12485TIP3   OH237397   2.270   4.692   3.267  0.0998  0.4303 -0.2162
12485TIP3    H137398   2.342   4.750   3.291  0.7853 -0.5870  0.3063
12485TIP3    H237399   2.302   4.604   3.290 -0.3217 -0.3287 -2.3127
12486TIP3   OH237400   1.748   4.530   1.540 -0.0952  0.1737 -0.3062
12486TIP3    H137401   1.802   4.573   1.606 -0.6368 -0.7118  0.7586
12486TIP3    H237402   1.756   4.584   1.462 -0.6382  2.1030  0.9186
12487TIP3   OH237403   5.683   5.770   4.384  0.1620 -0.7273  0.1152
12487TIP3    H137404   5.650   5.783   4.473  0.5533  0.0845  0.1577
12487TIP3    H237405   5.640   5.691   4.354 -1.1254 -0.2054  0.4952
12488TIP3   OH237406   3.527   3.274   4.071  0.1552 -0.1992  0.3409
12488TIP3    H137407   3.493   3.361   4.092 -0.9455 -0.1815 -1.3407
12488TIP3    H237408   3.449   3.220   4.058  0.7919 -0.9538 -0.5024
12489TIP3   OH237409   5.485   3.244   1.434 -0.0017 -0.1716  0.3665
12489TIP3    H137410   5.442   3.278   1.355  2.6059 -0.0911 -1.1052
12489TIP3    H237411   5.543   3.315   1.462 -0.4357 -0.4423  2.0400
12490TIP3   OH237412   4.180   2.462   3.262  0.0199 -0.0281  0.3438
12490TIP3    H137413   4.116   2.453   3.332 -1.3520 -0.8138 -0.9754
12490TIP3    H237414   4.145   2.411   3.190  1.0102  1.3828 -1.2054
12491TIP3   OH237415   4.847   2.767   6.400 -0.2811  0.1319  0.4196
12491TIP3    H137416   4.911   2.834   6.376 -0.6946 -0.3302 -2.2471
12491TIP3    H237417   4.871   2.691   6.347 -1.1684 -1.1229  1.7440
12492TIP3   OH237418   6.566   7.040   1.568 -0.5584  0.6543  0.0272
12492TIP3    H137419   6.518   7.086   1.637  0.1131  0.0477  0.9133
12492TIP3    H237420   6.557   6.948   1.590 -2.1220  0.2900 -1.8912
12493TIP3   OH237421   1.196   5.967   6.665 -0.3452  0.0924 -0.2864
12493TIP3    H137422   1.245   6.007   6.593  1.5857 -0.3554  0.6977
12493TIP3    H237423   1.181   5.877   6.637  2.3710 -0.7540  0.6689
12494TIP3   OH237424   2.618   0.878   0.410 -0.5349  0.4621  0.5475
12494TIP3    H137425   2.637   0.810   0.475 -0.1276  1.6628  1.7030
12494TIP3    H237426   2.688   0.869   0.345 -1.2073 -1.0473 -0.0222
12495TIP3   OH237427   7.691   4.704   2.367 -0.2305  0.1441 -0.0447
12495TIP3    H137428   7.786   4.709   2.354  0.0906  0.1548  1.9360
12495TIP3    H237429   7.681   4.654   2.448 -1.9371 -0.0441 -0.3422
12496TIP3   OH237430   5.971   6.851   4.408 -0.3561  0.0353 -0.2504
12496TIP3    H137431   6.049   6.876   4.358  0.2304 -0.9064  0.1697
12496TIP3    H237432   5.899   6.891   4.360  0.5248  2.9750  0.6921
12497TIP3   OH237433   6.635   1.593   2.126  0.4260 -0.5781 -0.1339
12497TIP3    H137434   6.687   1.671   2.105  1.2772 -1.0954 -0.0092
12497TIP3    H237435   6.578   1.580   2.050  1.9178 -1.1664 -1.1971
12498TIP3   OH237436   3.150   1.832   1.036 -0.1511  0.4889 -0.0067
12498TIP3    H137437   3.216   1.771   1.070  2.4396  3.0031 -0.1081
12498TIP3    H237438   3.140   1.806   0.944 -0.3680 -0.7533  0.3413
12499TIP3   OH237439   5.104   5.577   1.400 -0.0422 -0.2666  0.5731
12499TIP3    H137440   5.164   5.549   1.331 -0.8287 -2.2918  0.6411
12499TIP3    H237441   5.155   5.570   1.481  0.2584  0.1022  0.4182
12500TIP3   OH237442   3.108   5.169   2.160 -0.4225 -0.3607 -0.0706
12500TIP3    H137443   3.093   5.129   2.074 -1.0896  0.5103 -0.3776
12500TIP3    H237444   3.020   5.185   2.194 -0.1598 -0.8073  0.8329
12501TIP3   OH237445   5.053   0.703   3.644  0.5037 -0.8829 -0.4347
12501TIP3    H137446   5.072   0.618   3.605  1.9949 -0.9162  0.2988
12501TIP3    H237447   5.050   0.685   3.738  0.6900 -0.1555 -0.2855
12502TIP3   OH237448   5.278   5.365   3.210 -0.1191  0.0753  0.0722
12502TIP3    H137449   5.298   5.404   3.125 -0.6992 -0.8861 -0.5353
12502TIP3    H237450   5.334   5.288   3.214 -0.7308 -0.3754  0.1495
12503TIP3   OH237451   7.346   2.433   4.145  0.0202 -0.3292 -0.6811
12503TIP3    H137452   7.296   2.365   4.099  1.0211 -2.1615  0.8089
12503TIP3    H237453   7.407   2.385   4.200  0.4644  1.8086  0.8134
12504TIP3   OH237454   1.406   2.000   4.899 -0.0981 -0.3341 -0.1068
12504TIP3    H137455   1.457   1.921   4.919 -0.5820 -0.4597  0.6713
12504TIP3    H237456   1.402   2.047   4.983  1.0710  1.0472 -0.7728
12505TIP3   OH237457   2.381   3.257   4.674 -0.3527  0.1421  0.6509
12505TIP3    H137458   2.432   3.200   4.616 -0.8326  0.0514  0.3153
12505TIP3    H237459   2.291   3.250   4.642 -0.7872 -0.6427  1.9766
12506TIP3   OH237460   7.607   3.524   2.688  0.1880 -0.3963 -0.7802
12506TIP3    H137461   7.628   3.527   2.781 -1.2626 -0.1065 -0.4395
12506TIP3    H237462   7.612   3.431   2.665  0.8198 -0.4361 -0.4809
12507TIP3   OH237463   5.891   1.755   0.829 -0.3870  0.1391 -0.0906
12507TIP3    H137464   5.961   1.722   0.772 -1.1376  1.2934 -1.7760
12507TIP3    H237465   5.826   1.685   0.831 -0.4628  0.1781 -0.8780
12508TIP3   OH237466   4.694   7.734   1.030  0.1060 -0.2737  0.0719
12508TIP3    H137467   4.685   7.722   1.125  1.7609 -0.8387  0.1805
12508TIP3    H237468   4.777   7.779   1.018 -1.1068  1.7950 -1.0249
12509TIP3   OH237469   4.211   1.927   5.984  0.4465 -0.0831 -0.0817
12509TIP3    H137470   4.284   1.868   6.002  0.6016  0.7706  2.6555
12509TIP3    H237471   4.147   1.873   5.938  1.4601 -1.7964  0.4222
12510TIP3   OH237472   5.901   1.841   5.804 -0.3143 -0.4253  0.0658
12510TIP3    H137473   5.964   1.843   5.876  1.3856  0.5361 -1.3523
12510TIP3    H237474   5.862   1.929   5.803  0.7293  0.0613 -1.0049
12511TIP3   OH237475   1.839   6.476   1.800 -0.2510 -0.8468 -0.5100
12511TIP3    H137476   1.918   6.497   1.850 -0.4756 -1.0764 -0.0591
12511TIP3    H237477   1.769   6.475   1.864 -0.8696  0.7044 -1.1099
12512TIP3   OH237478   0.080   4.581   0.889 -0.2984 -0.4248  0.1385
12512TIP3    H137479   0.081   4.593   0.984  0.0396  1.0710 -0.0212
12512TIP3    H237480   0.149   4.639   0.857 -2.6535  1.8497 -1.2491
12513TIP3   OH237481   2.436   2.489   5.165  0.3718 -0.1628  0.3154
12513TIP3    H137482   2.490   2.488   5.244 -0.0918  1.6189  0.7146
12513TIP3    H237483   2.480   2.430   5.104  1.7259 -0.1914  1.2827
12514TIP3   OH237484   7.601   3.356   0.189 -0.3745  0.1570  0.1484
12514TIP3    H137485   7.621   3.266   0.212  1.6379  0.2917 -0.9143
12514TIP3    H237486   7.680   3.405   0.210 -1.4883  1.7465  0.8950
12515TIP3   OH237487   2.993   0.996   6.642  0.1303  0.1997 -0.0933
12515TIP3    H137488   3.050   0.926   6.611 -0.8498 -2.0894  2.7480
12515TIP3    H237489   2.912   0.984   6.592  0.0339 -0.6523  0.2354
12516TIP3   OH237490   0.337   2.883   0.327 -0.1291  0.1287 -0.1022
12516TIP3    H137491   0.333   2.869   0.422  0.9223 -1.2879 -0.2469
12516TIP3    H237492   0.310   2.974   0.316 -0.6461  0.2123  1.5183
12517TIP3   OH237493   4.870   2.248   4.271 -0.0290  0.2765  0.0598
12517TIP3    H137494   4.935   2.237   4.201 -0.9924  0.0682 -0.8438
12517TIP3    H237495   4.803   2.305   4.232 -1.0307 -0.5722  0.4706
12518TIP3   OH237496   7.943   4.243   4.354 -0.5838 -0.0763  0.2421
12518TIP3    H137497   7.942   4.152   4.325 -1.2451  0.1127 -0.3435
12518TIP3    H237498   8.002   4.287   4.293 -0.4594 -0.0539  0.3754
12519TIP3   OH237499   0.522   1.654   3.362 -0.1726  0.0479  0.6148
12519TIP3    H137500   0.490   1.618   3.445 -0.6933 -2.8571 -0.7182
12519TIP3    H237501   0.551   1.577   3.312  0.7341  1.7477 -1.6600
12520TIP3   OH237502   6.605   1.752   3.221 -0.0729 -0.5076 -0.4101
12520TIP3    H137503   6.544   1.787   3.156 -0.7978  0.0693  0.5483
12520TIP3    H237504   6.584   1.799   3.301  1.0947 -0.8990  0.1452
12521TIP3   OH237505   7.326   2.339   1.610 -0.0097  0.3083  0.3054
12521TIP3    H137506   7.395   2.277   1.588  0.3974  0.3262  1.4792
12521TIP3    H237507   7.356   2.382   1.689 -0.8392  1.1572  0.1787
12522TIP3   OH237508   0.371   3.805   1.482  0.2622  0.1817 -0.4191
12522TIP3    H137509   0.306   3.839   1.543  0.5631 -0.7120  0.4346
12522TIP3    H237510   0.330   3.812   1.396 -0.5864  0.4876  0.0013
12523TIP3   OH237511   7.814   7.029   1.760  0.0291 -0.2507  0.1116
12523TIP3    H137512   7.724   7.027   1.793  0.1581  0.3461  0.4985
12523TIP3    H237513   7.841   7.120   1.767  0.0724 -0.0955 -1.6039
12524TIP3   OH237514   2.932   4.253   1.897 -0.5736 -0.0669  0.0381
12524TIP3    H137515   2.948   4.323   1.834 -0.5568  1.6376  1.8301
12524TIP3    H237516   2.963   4.174   1.853  1.2304  1.3069 -1.3466
12525TIP3   OH237517   2.312   6.063   1.645  0.1785  0.0743  0.0833
12525TIP3    H137518   2.240   6.071   1.582  0.1858 -0.9423 -0.0573
12525TIP3    H237519   2.385   6.029   1.595  0.4820  0.1944  0.4346
12526TIP3   OH237520   1.065   4.715   6.078 -0.2184 -0.3168 -0.4321
12526TIP3    H137521   1.106   4.685   6.160  0.7094 -0.5679 -0.9777
12526TIP3    H237522   1.034   4.803   6.099 -0.0016 -0.3823  0.2030
12527TIP3   OH237523   2.396   2.156   6.065 -0.1266  0.0680 -0.4217
12527TIP3    H137524   2.370   2.152   5.973 -0.0088  0.2483 -0.4647
12527TIP3    H237525   2.490   2.139   6.064  0.4263  2.7221 -0.6321
12528TIP3   OH237526   5.855   0.307   3.546 -0.3608 -0.1466 -0.0359
12528TIP3    H137527   5.822   0.220   3.570  2.1425 -0.7106  1.8715
12528TIP3    H237528   5.933   0.288   3.493 -0.2034  0.9527 -0.2185
12529TIP3   OH237529   7.842   5.690   1.285 -0.2631 -0.3921 -0.0178
12529TIP3    H137530   7.753   5.690   1.250 -0.0320  1.2274 -0.7207
12529TIP3    H237531   7.838   5.749   1.361 -0.0162 -1.1513  0.5906
12530TIP3   OH237532   2.586   4.042   3.929 -0.3471  0.1710  0.3109
12530TIP3    H137533   2.511   3.984   3.935 -1.0003  0.9163 -0.4222
12530TIP3    H237534   2.566   4.100   3.855  0.4671  1.0489  0.7579
12531TIP3   OH237535   1.318   0.643   0.542  0.7605  0.3704 -0.2674
12531TIP3    H137536   1.274   0.582   0.601 -1.0156  1.4863 -0.3514
12531TIP3    H237537   1.403   0.660   0.583 -0.0557  0.4029  1.5145
12532TIP3   OH237538   2.946   4.811   1.448 -0.2323 -0.0129 -0.2814
12532TIP3    H137539   2.916   4.721   1.458  2.2568 -0.9187 -0.2372
12532TIP3    H237540   2.880   4.852   1.393 -2.1067 -1.4727  0.7508
12533TIP3   OH237541   7.122   2.858   0.301  0.2032 -0.0662  0.1300
12533TIP3    H137542   7.060   2.928   0.324  0.3203  0.6069 -1.4200
12533TIP3    H237543   7.170   2.840   0.382 -0.1508  1.3323  0.6778
12534TIP3   OH237544   2.732   6.550   2.113  0.3282 -0.0908  0.5751
12534TIP3    H137545   2.738   6.618   2.045 -1.0404  1.0697  1.5488
12534TIP3    H237546   2.650   6.505   2.093  0.2050 -0.1133  1.1206
12535TIP3   OH237547   2.507   6.307   3.420  0.2646  0.1718 -0.1405
12535TIP3    H137548   2.591   6.273   3.450  0.9632  1.0544 -1.0245
12535TIP3    H237549   2.504   6.285   3.327  0.5128  2.0066 -0.6271
12536TIP3   OH237550   5.225   2.444   0.947 -0.3009 -0.4474  0.0024
12536TIP3    H137551   5.248   2.453   1.039 -0.6069  0.9942 -0.0339
12536TIP3    H237552   5.152   2.382   0.946  0.9234 -1.9640  0.5080
12537TIP3   OH237553   0.053   0.012   1.719 -0.2240 -0.0184  0.1121
12537TIP3    H137554   0.141   0.042   1.695  0.1770 -0.7504  0.6079
12537TIP3    H237555   0.031   0.063   1.797 -1.1927  1.7791 -1.2783
12538TIP3   OH237556   6.487   1.437   3.370  0.1922  0.2308 -0.3144
12538TIP3    H137557   6.569   1.450   3.322  0.8627  0.7017  0.8983
12538TIP3    H237558   6.451   1.356   3.334  1.6135 -0.4428 -0.3188
12539TIP3   OH237559   7.178   4.405   6.038 -0.1652 -0.1878 -0.4921
12539TIP3    H137560   7.109   4.361   6.088  0.2991  0.1111  0.4348
12539TIP3    H237561   7.257   4.355   6.058  0.6035  1.6980  1.5169
12540TIP3   OH237562   6.952   4.753   3.720 -0.1889  0.8539  0.3107
12540TIP3    H137563   6.942   4.813   3.645  1.2586  1.9894  0.9729
12540TIP3    H237564   7.040   4.770   3.753 -0.3928 -0.4090  1.6252
12541TIP3   OH237565   3.152   1.395   6.318  0.1645  0.3329 -0.0916
12541TIP3    H137566   3.099   1.456   6.267  2.8483 -0.2075 -3.9116
12541TIP3    H237567   3.097   1.316   6.325 -1.4800  1.5013  0.7330
12542TIP3   OH237568   5.778   2.986   3.573  0.1354  0.1301  0.2905
12542TIP3    H137569   5.697   3.028   3.545  0.2033  0.1528  0.1288
12542TIP3    H237570   5.777   2.995   3.669 -0.8649 -1.3661  0.4430
12543TIP3   OH237571   2.322   4.670   0.209  0.4326 -0.2544 -0.5614
12543TIP3    H137572   2.231   4.698   0.206  0.6350  0.8134  1.5612
12543TIP3    H237573   2.372   4.749   0.186  0.8726 -0.2279  0.4664
12544TIP3   OH237574   1.796   2.068   0.059  0.3987 -0.1335  0.6291
12544TIP3    H137575   1.744   2.029   0.128 -1.5269 -0.3687 -0.8751
12544TIP3    H237576   1.860   2.000   0.035 -0.8539 -1.1913  0.1923
12545TIP3   OH237577   0.854   0.479   5.251  0.4225  0.0157 -0.0417
12545TIP3    H137578   0.842   0.542   5.322 -1.0545 -1.3722  1.0328
12545TIP3    H237579   0.804   0.515   5.178  2.3607  1.7072 -0.6144
12546TIP3   OH237580   0.553   3.758   4.929  0.0436  0.6050  0.4061
12546TIP3    H137581   0.518   3.719   5.009  0.6201 -0.8003  0.0013
12546TIP3    H237582   0.479   3.761   4.869  0.0601 -0.2247  0.3293
12547TIP3   OH237583   6.293   1.106   2.050 -0.2019 -0.6155 -0.4211
12547TIP3    H137584   6.368   1.161   2.027 -2.0566  1.9053 -0.9443
12547TIP3    H237585   6.234   1.165   2.098 -1.3866 -2.7900  0.9486
12548TIP3   OH237586   3.198   6.672   0.393  0.5492 -0.0178  0.2609
12548TIP3    H137587   3.174   6.638   0.479  0.8612 -0.5509  0.1371
12548TIP3    H237588   3.259   6.743   0.411  0.3908  0.0588  0.4932
12549TIP3   OH237589   1.717   2.686   5.226  0.3703 -0.8836 -0.6003
12549TIP3    H137590   1.745   2.737   5.302  0.3211  0.5058 -1.4842
12549TIP3    H237591   1.764   2.604   5.234 -1.9727 -2.1436  2.6317
12550TIP3   OH237592   2.586   7.169   2.345 -0.0528  0.0432  0.4059
12550TIP3    H137593   2.518   7.192   2.282 -1.7384 -1.1076  1.7296
12550TIP3    H237594   2.633   7.097   2.304 -0.5166 -0.0704  0.0673
12551TIP3   OH237595   3.298   4.316   1.891 -0.3897  0.1376  0.0284
12551TIP3    H137596   3.264   4.241   1.940  2.9742 -1.4474  0.2399
12551TIP3    H237597   3.324   4.279   1.806  2.1045  0.7706  0.4376
12552TIP3   OH237598   2.140   1.426   0.173 -0.0492  0.2112 -0.1818
12552TIP3    H137599   2.083   1.431   0.250  0.3349  0.0106  0.1215
12552TIP3    H237600   2.100   1.357   0.119 -0.0115 -0.0380  0.1025
12553TIP3   OH237601   4.631   0.886   0.289 -0.4988  0.2609  0.0627
12553TIP3    H137602   4.697   0.940   0.334 -1.8029  2.9470 -1.0557
12553TIP3    H237603   4.564   0.947   0.262 -1.9149 -1.9142 -1.7151
12554TIP3   OH237604   5.534   1.315   5.321  0.5281  0.4791 -0.5279
12554TIP3    H137605   5.558   1.231   5.282 -0.1657 -0.4958  0.9987
12554TIP3    H237606   5.617   1.361   5.334  1.0522 -0.5221 -0.2298
12555TIP3   OH237607   4.835   7.542   5.425 -0.0871 -0.2554 -0.4172
12555TIP3    H137608   4.806   7.551   5.334 -2.0890 -0.8755  0.1149
12555TIP3    H237609   4.839   7.632   5.458 -2.2861 -0.1512 -0.2949
12556TIP3   OH237610   1.606   4.944   6.566  1.1573 -0.1260  0.2538
12556TIP3    H137611   1.672   5.007   6.596  0.9406 -0.0013  0.4745
12556TIP3    H237612   1.584   4.894   6.644  0.5130  0.2694  0.3322
12557TIP3   OH237613   3.629   5.147   4.841  0.1821 -0.1915  0.2665
12557TIP3    H137614   3.621   5.218   4.776 -1.8270 -0.3412  0.3060
12557TIP3    H237615   3.664   5.073   4.791 -0.5052 -0.0372 -0.4591
12558TIP3   OH237616   1.649   6.351   5.606  0.1687  0.0940  0.0676
12558TIP3    H137617   1.688   6.305   5.681 -1.2992 -0.2544  0.6588
12558TIP3    H237618   1.564   6.381   5.638  0.0410  1.0372 -1.0937
12559TIP3   OH237619   0.838   5.096   2.920 -0.3973 -0.4423 -0.1477
12559TIP3    H137620   0.901   5.081   2.849 -0.2245 -0.0983 -0.0712
12559TIP3    H237621   0.762   5.136   2.877 -0.4128 -0.5092 -0.1829
12560TIP3   OH237622   5.367   1.848   3.059  0.0415 -0.6524  0.5330
12560TIP3    H137623   5.282   1.860   3.102  0.2355 -2.2428  1.4633
12560TIP3    H237624   5.372   1.753   3.043  0.5925 -0.2803 -1.7929
12561TIP3   OH237625   4.346   0.954   1.607  0.4150 -0.0284  0.6422
12561TIP3    H137626   4.334   0.999   1.523  0.4407 -0.8313  0.1862
12561TIP3    H237627   4.312   1.014   1.673  0.3006  0.5748  0.0427
12562TIP3   OH237628   4.954   6.612   1.593  0.2689 -0.6134 -0.3495
12562TIP3    H137629   5.030   6.596   1.649  0.6870 -1.9280 -1.2355
12562TIP3    H237630   4.890   6.654   1.650  2.0451  1.6448  0.1518
12563TIP3   OH237631   0.239   6.257   0.849  0.0301  0.0254 -0.3723
12563TIP3    H137632   0.189   6.334   0.821 -1.4341 -0.4240  0.8651
12563TIP3    H237633   0.327   6.271   0.813 -0.6104  1.5149 -1.4648
12564TIP3   OH237634   5.211   4.589   2.575  0.3058 -0.5159  0.5086
12564TIP3    H137635   5.178   4.544   2.653  0.9039 -0.9335  0.5303
12564TIP3    H237636   5.277   4.650   2.608  2.2088 -2.2688  0.1762
12565TIP3   OH237637   1.276   7.486   4.943  0.3069  0.1657  0.2031
12565TIP3    H137638   1.329   7.532   4.879 -1.0976  3.3457  1.1293
12565TIP3    H237639   1.201   7.454   4.894 -0.2953  1.7649  0.0306
12566TIP3   OH237640   2.270   1.438   5.044  0.1134  0.5214  0.1517
12566TIP3    H137641   2.196   1.435   4.983 -0.9730  1.8232  1.3480
12566TIP3    H237642   2.272   1.350   5.083 -1.9067  0.9165  1.3025
12567TIP3   OH237643   6.805   4.250   4.150  0.6685  0.2624 -0.0545
12567TIP3    H137644   6.875   4.189   4.173 -0.1829 -0.6841  0.0775
12567TIP3    H237645   6.725   4.198   4.153 -0.3300  1.7730  1.7710
12568TIP3   OH237646   3.993   0.578   2.814  0.0475  0.0471 -0.8261
12568TIP3    H137647   4.072   0.526   2.829 -0.1779 -1.1191 -3.1500
12568TIP3    H237648   3.929   0.514   2.781 -0.8772  1.4906 -1.9176
12569TIP3   OH237649   4.350   7.585   2.618  0.7681 -0.0549  0.1290
12569TIP3    H137650   4.421   7.560   2.559  0.9846 -0.9009  0.7350
12569TIP3    H237651   4.383   7.662   2.664  1.0868 -0.1447  0.0491
12570TIP3   OH237652   0.977   4.776   6.520 -0.4500 -0.0206 -0.3567
12570TIP3    H137653   0.964   4.841   6.589  1.8482  1.6226 -1.3318
12570TIP3    H237654   1.044   4.717   6.555 -2.0031 -1.5165  0.2340
12571TIP3   OH237655   2.964   5.651   6.655 -0.6248 -0.0895 -0.1607
12571TIP3    H137656   3.003   5.695   6.579 -0.9679  0.1170 -0.2154
12571TIP3    H237657   3.016   5.571   6.665  1.7999  1.5525  1.5561
12572TIP3   OH237658   4.620   0.560   0.009 -0.4427 -0.2598 -0.4235
12572TIP3    H137659   4.553   0.528   0.070  0.6367 -2.9028 -0.5032
12572TIP3    H237660   4.570   0.601  -0.062 -2.1995 -3.4497 -1.2317
12573TIP3   OH237661   5.504   0.534   6.099 -0.4470 -0.6546  0.4331
12573TIP3    H137662   5.482   0.549   6.191  1.5767 -1.5861  1.1277
12573TIP3    H237663   5.567   0.602   6.078 -0.9920 -0.3684 -0.3324
12574TIP3   OH237664   0.214   5.479   3.522  0.4698  0.6539 -0.0953
12574TIP3    H137665   0.272   5.479   3.445 -0.4765 -0.3278 -0.8415
12574TIP3    H237666   0.142   5.537   3.498 -0.3067 -0.3881 -0.3563
12575TIP3   OH237667   5.258   5.389   2.099  0.1999 -0.4157  0.2050
12575TIP3    H137668   5.214   5.319   2.146  0.0230 -0.2783  0.2464
12575TIP3    H237669   5.219   5.387   2.011  1.1246 -1.2156 -0.1993
12576TIP3   OH237670   2.750   1.911   6.582  0.5490  0.0617  0.1628
12576TIP3    H137671   2.727   1.992   6.627  1.1149 -0.0160  0.6025
12576TIP3    H237672   2.667   1.864   6.574  0.3427  0.3443  0.5835
12577TIP3   OH237673   6.614   5.199   1.258 -0.1830 -0.0397 -0.7672
12577TIP3    H137674   6.647   5.114   1.286  1.6417  0.6546 -0.6097
12577TIP3    H237675   6.655   5.213   1.172  0.3349  1.0793 -0.3611
12578TIP3   OH237676   0.881   3.928   3.169  0.1904  0.7962  0.4999
12578TIP3    H137677   0.910   3.872   3.097 -0.3861  0.2778  0.6542
12578TIP3    H237678   0.862   3.867   3.240 -0.4519  1.1833  0.6715
12579TIP3   OH237679   6.192   3.301   3.999  0.0171  0.4547  0.1243
12579TIP3    H137680   6.204   3.395   4.011  1.6674  0.3597 -0.5891
12579TIP3    H237681   6.122   3.295   3.933 -0.8930  1.1348  0.9909
12580TIP3   OH237682   7.966   2.836   2.737  0.2055 -0.0360  0.1622
12580TIP3    H137683   7.968   2.768   2.804 -0.8373 -1.5985 -1.3066
12580TIP3    H237684   8.037   2.812   2.677 -2.4783 -2.2230 -2.4503
12581TIP3   OH237685   6.435   7.479   5.497 -0.0895 -0.1631 -0.4283
12581TIP3    H137686   6.516   7.432   5.480 -0.3378 -1.0272  0.6829
12581TIP3    H237687   6.450   7.567   5.461  1.3190 -0.3114 -0.2355
12582TIP3   OH237688   5.562   4.330   6.311  0.6882  0.1798  0.0574
12582TIP3    H137689   5.555   4.259   6.247 -1.0394 -0.0276  0.4168
12582TIP3    H237690   5.606   4.400   6.264 -1.2486  0.3336 -1.6823
12583TIP3   OH237691   4.560   0.771   3.685  0.1366  0.1577 -0.3555
12583TIP3    H137692   4.636   0.776   3.743  1.0376 -0.8050 -1.4301
12583TIP3    H237693   4.552   0.678   3.663 -0.7923  0.3726 -0.9857
12584TIP3   OH237694   6.376   3.692   1.537  0.0286 -0.1998 -0.3501
12584TIP3    H137695   6.358   3.678   1.444 -0.3669 -1.2815 -0.1260
12584TIP3    H237696   6.291   3.687   1.579  0.3381 -0.9990  0.2127
12585TIP3   OH237697   7.253   6.718   0.307  0.3908  0.0065  0.4109
12585TIP3    H137698   7.245   6.684   0.218 -0.0265 -1.4498  0.9746
12585TIP3    H237699   7.163   6.739   0.332  0.4860  0.2444  0.5551
12586TIP3   OH237700   0.555   6.355   1.021 -0.1684 -0.1098  0.6249
12586TIP3    H137701   0.504   6.275   1.007 -0.3339 -0.2587  1.9887
12586TIP3    H237702   0.643   6.324   1.039  0.0216  0.0756  0.0353
12587TIP3   OH237703   7.653   4.406   3.548 -0.2138  0.1775  0.3385
12587TIP3    H137704   7.665   4.480   3.607  2.9115  0.3733 -0.3804
12587TIP3    H237705   7.680   4.330   3.599 -2.1926 -0.3664  0.6579
12588TIP3   OH237706   0.017   2.411   3.917  0.0204  0.3797 -0.2836
12588TIP3    H137707  -0.068   2.402   3.959  0.4094 -1.6767  0.1765
12588TIP3    H237708   0.074   2.445   3.986 -0.1772  0.7433 -0.2941
12589TIP3   OH237709   2.475   4.558   2.763 -0.5685  0.0122 -0.0425
12589TIP3    H137710   2.398   4.501   2.765  0.7712 -2.0102 -1.3295
12589TIP3    H237711   2.529   4.528   2.836 -1.3733  2.1455  1.5405
12590TIP3   OH237712   6.611   5.482   4.534 -0.1959 -0.5995 -0.2898
12590TIP3    H137713   6.691   5.487   4.586 -1.0519  0.3850  1.0086
12590TIP3    H237714   6.641   5.465   4.445  1.4155 -0.8186  0.2662
12591TIP3   OH237715   6.889   0.750   1.581 -0.0586  0.2701  0.6968
12591TIP3    H137716   6.953   0.819   1.560 -1.0726  0.7003 -1.1341
12591TIP3    H237717   6.927   0.670   1.544 -0.7706  0.6162 -0.8483
12592TIP3   OH237718   7.994   6.067   5.785 -0.1616 -0.4706  0.5753
12592TIP3    H137719   8.049   6.115   5.722  0.2732 -0.6396  0.8187
12592TIP3    H237720   7.926   6.130   5.810  0.2158 -0.0858  0.6468
12593TIP3   OH237721   2.955   4.379   5.977 -0.6082 -0.4755 -0.0920
12593TIP3    H137722   2.964   4.302   6.033 -1.7363 -1.9509 -1.8597
12593TIP3    H237723   3.037   4.383   5.928  0.1941  0.5571  1.2499
12594TIP3   OH237724   3.913   2.528   5.682 -0.1628 -0.3014 -0.3426
12594TIP3    H137725   3.882   2.450   5.728  0.4208  0.9631  2.4142
12594TIP3    H237726   4.004   2.508   5.659 -0.2026 -0.6603 -0.1886
12595TIP3   OH237727   7.846   5.885   1.479 -0.3925 -0.0797  0.7298
12595TIP3    H137728   7.872   5.949   1.413 -2.3463 -0.9516 -0.9936
12595TIP3    H237729   7.779   5.929   1.531 -0.9744 -0.3356  0.2152
12596TIP3   OH237730   7.831   6.376   6.248 -0.3790  0.3131 -0.5592
12596TIP3    H137731   7.900   6.323   6.289  0.0094  1.0749 -0.2183
12596TIP3    H237732   7.827   6.344   6.158 -0.5816 -0.7256 -0.2057
12597TIP3   OH237733   2.622   3.108   2.962  0.0551 -0.1059  0.0762
12597TIP3    H137734   2.577   3.094   2.878 -0.0653  1.1111 -0.0783
12597TIP3    H237735   2.554   3.098   3.028 -0.4066  1.3584 -0.1351
12598TIP3   OH237736   5.353   3.422   2.019 -0.1404 -0.3882 -0.0888
12598TIP3    H137737   5.420   3.486   2.045 -0.3920 -0.9547  2.2242
12598TIP3    H237738   5.311   3.461   1.943  1.3706  1.0010 -0.2883
12599TIP3   OH237739   8.211   2.452   3.482  0.5641 -0.4479  0.2050
12599TIP3    H137740   8.155   2.482   3.410 -0.9155 -2.3790  0.4577
12599TIP3    H237741   8.224   2.529   3.536 -1.0421  0.3046 -0.4098
12600TIP3   OH237742   7.521   3.379   0.500  0.0665 -0.0282  0.2627
12600TIP3    H137743   7.519   3.385   0.595  2.8000  0.4279  0.3549
12600TIP3    H237744   7.575   3.453   0.472 -0.2704 -0.4447 -1.6203
12601TIP3   OH237745   2.052   3.375   5.739 -0.0846 -0.3381  0.4160
12601TIP3    H137746   2.028   3.438   5.671 -0.4747 -0.1318  0.7375
12601TIP3    H237747   2.114   3.422   5.794 -1.1784  0.1633  1.2762
12602TIP3   OH237748   5.896   2.429   2.457  0.3297  0.3013  0.1718
12602TIP3    H137749   5.823   2.425   2.395 -0.0300  0.2889  0.5916
12602TIP3    H237750   5.876   2.505   2.512  1.2487  1.0318 -0.4740
12603TIP3   OH237751   1.807   2.582   6.511  0.1346 -0.2313 -0.0029
12603TIP3    H137752   1.770   2.550   6.428  0.6993  1.2677 -0.8672
12603TIP3    H237753   1.769   2.524   6.577 -2.0270 -0.1409 -1.0615
12604TIP3   OH237754   5.223   3.328   3.499  0.0656  0.2255 -0.2076
12604TIP3    H137755   5.175   3.401   3.462 -0.9937  0.8698  2.2059
12604TIP3    H237756   5.195   3.252   3.448 -1.2679  1.0360 -0.7186
12605TIP3   OH237757   1.763   2.017   5.990 -0.0328 -0.2425 -0.6044
12605TIP3    H137758   1.858   2.027   5.984 -0.2826  2.7706 -0.7251
12605TIP3    H237759   1.745   2.014   6.084  0.1564 -0.6574 -0.5796
12606TIP3   OH237760   6.566   4.480   5.294 -0.1840 -0.3930 -0.6140
12606TIP3    H137761   6.646   4.531   5.309 -0.3672  0.1197 -1.3127
12606TIP3    H237762   6.511   4.500   5.369  0.3365 -0.7432 -0.1306
12607TIP3   OH237763   7.885   3.349   5.750  0.0925  0.4768  0.3278
12607TIP3    H137764   7.950   3.413   5.780 -0.4373  1.4120 -0.4654
12607TIP3    H237765   7.802   3.382   5.784 -0.3913  1.0702 -1.3471
12608TIP3   OH237766   4.944   6.046   6.243 -0.4236 -0.0614 -0.1446
12608TIP3    H137767   4.937   5.981   6.173  1.5454 -0.9240  0.4019
12608TIP3    H237768   4.879   6.112   6.220 -1.2122 -1.2959 -1.7098
12609TIP3   OH237769   4.804   1.311   5.969  0.3577  0.3152 -0.4304
12609TIP3    H137770   4.899   1.316   5.955  0.3773 -0.8923 -0.8832
12609TIP3    H237771   4.793   1.320   6.063  0.9516  0.1689 -0.3416
12610TIP3   OH237772   4.343   4.160   0.986  0.3813 -0.3768  0.3439
12610TIP3    H137773   4.287   4.168   0.909 -0.5942 -0.2357  1.0494
12610TIP3    H237774   4.323   4.238   1.039  2.7678  0.7709 -0.3322
12611TIP3   OH237775   1.357   5.558   1.029 -0.4254  0.0849  0.2756
12611TIP3    H137776   1.385   5.649   1.018 -0.1870 -0.0229 -0.0318
12611TIP3    H237777   1.275   5.552   0.980  1.6785 -0.9343 -3.5360
12612TIP3   OH237778   5.664   2.853   2.449  0.3295 -0.0574  0.8661
12612TIP3    H137779   5.592   2.914   2.468 -0.1810 -0.6827  0.9928
12612TIP3    H237780   5.620   2.773   2.421  0.9628 -0.5835  1.3389
12613TIP3   OH237781   2.868   3.114   2.881 -0.7854 -0.0996  0.0784
12613TIP3    H137782   2.772   3.117   2.886 -1.1014 -2.3586 -2.3646
12613TIP3    H237783   2.892   3.043   2.940 -0.6145  0.2794  0.4721
12614TIP3   OH237784   6.118   2.890   3.181 -0.3948 -1.1206 -0.1888
12614TIP3    H137785   6.107   2.904   3.275 -1.1014 -2.1378 -0.1085
12614TIP3    H237786   6.210   2.864   3.171  0.8826  2.7107 -0.2838
12615TIP3   OH237787   6.293   6.474   6.082 -0.1012 -0.5027  0.2206
12615TIP3    H137788   6.348   6.491   6.005 -1.1525 -0.1517 -0.4713
12615TIP3    H237789   6.308   6.382   6.101  0.0659 -0.6374 -0.5063
12616TIP3   OH237790   0.375   4.472   0.054  0.2350 -0.0203  1.0025
12616TIP3    H137791   0.311   4.418   0.007  0.2489 -0.1732  1.1559
12616TIP3    H237792   0.415   4.526  -0.014 -1.0543  1.1092  1.1089
12617TIP3   OH237793   5.283   0.714   4.307  0.0572  0.6333  0.3569
12617TIP3    H137794   5.265   0.778   4.238 -3.1259 -0.3640  0.0955
12617TIP3    H237795   5.201   0.666   4.317  1.2156 -1.0172  3.0572
12618TIP3   OH237796   3.744   4.464   1.569  0.2420 -0.3062 -0.0705
12618TIP3    H137797   3.683   4.534   1.548  1.5174  0.7072 -0.5196
12618TIP3    H237798   3.827   4.508   1.585  0.8275 -1.6271  0.7484
12619TIP3   OH237799   6.472   0.183   4.439 -0.4517  0.0329 -0.1756
12619TIP3    H137800   6.397   0.135   4.405 -0.7591  0.6645 -0.3853
12619TIP3    H237801   6.524   0.205   4.362  0.5843 -1.4317  0.0554
12620TIP3   OH237802   3.050   0.319   0.712  0.0447 -0.3172  0.1196
12620TIP3    H137803   3.009   0.401   0.684 -0.7985 -1.3088 -1.7111
12620TIP3    H237804   3.144   0.337   0.708 -0.1154  0.3814 -0.8702
12621TIP3   OH237805   7.712   7.481   5.067  0.2548 -0.2225  0.0443
12621TIP3    H137806   7.738   7.529   5.146 -0.6836  1.2033 -0.4828
12621TIP3    H237807   7.638   7.531   5.032  0.2031 -1.2358 -1.3573
12622TIP3   OH237808   5.714   0.976   3.042  0.0824 -0.3866  0.0094
12622TIP3    H137809   5.788   0.951   2.986 -0.2269 -2.4466  0.4381
12622TIP3    H237810   5.750   0.979   3.130 -0.0219  0.2027  0.0404
12623TIP3   OH237811   5.421   4.982   2.060  0.5418  0.2251 -0.0328
12623TIP3    H137812   5.424   4.913   1.993 -2.0170 -0.0403  0.0129
12623TIP3    H237813   5.380   5.056   2.016 -1.0189  0.1036  1.1322
12624TIP3   OH237814   5.006   7.311   4.588  0.7637  0.4905  0.0071
12624TIP3    H137815   5.008   7.398   4.550 -1.7684  1.1320  1.1403
12624TIP3    H237816   5.063   7.316   4.665  0.3485  1.2459  0.2646
12625TIP3   OH237817   6.137   4.986   5.902 -0.6518 -0.4821  0.6250
12625TIP3    H137818   6.158   5.057   5.963  0.1260 -1.4043  1.4741
12625TIP3    H237819   6.052   5.010   5.866 -1.6202 -0.3581  2.7904
12626TIP3   OH237820   8.309   4.392   0.418  0.8463  0.0761  0.0520
12626TIP3    H137821   8.294   4.332   0.344  1.4588  1.5084 -1.2991
12626TIP3    H237822   8.279   4.344   0.495  1.6983 -2.1102 -0.9115
12627TIP3   OH237823   2.222   7.724   1.320  0.2359 -0.1714  0.1204
12627TIP3    H137824   2.204   7.691   1.409  0.6226 -1.9312 -0.4035
12627TIP3    H237825   2.276   7.655   1.280  2.1302  1.6877 -0.7023
12628TIP3   OH237826   0.203   4.606   2.958  0.0614  0.9753  0.4943
12628TIP3    H137827   0.202   4.692   3.000 -2.0299  0.8376  0.8279
12628TIP3    H237828   0.147   4.616   2.881 -3.0812 -0.8171  2.3234
12629TIP3   OH237829   1.801   2.776   2.227  0.2293 -0.3089  0.2024
12629TIP3    H137830   1.711   2.753   2.201  0.8165 -0.1611 -2.2370
12629TIP3    H237831   1.838   2.694   2.260 -0.9801 -0.2130  1.9219
12630TIP3   OH237832   2.235   7.799   2.056  0.4217  0.1938  0.3023
12630TIP3    H137833   2.212   7.757   1.973  0.2507 -0.2136  0.5555
12630TIP3    H237834   2.287   7.876   2.030  1.3937 -0.5917 -0.1161
12631TIP3   OH237835   8.081   1.785   2.682 -0.1199  0.5946 -0.0172
12631TIP3    H137836   7.994   1.774   2.721  0.0515  0.2515  0.2816
12631TIP3    H237837   8.082   1.875   2.650 -1.1271  0.1521 -1.3816
12632TIP3   OH237838   3.355   2.319   5.897  0.0651  0.0020  0.0905
12632TIP3    H137839   3.303   2.349   5.971  0.6400 -0.6942  0.7828
12632TIP3    H237840   3.446   2.338   5.920  0.1496  1.4775 -1.2382
12633TIP3   OH237841   0.080   6.582   1.027  0.0591  0.2093  0.2268
12633TIP3    H137842  -0.003   6.544   0.998 -0.2007  1.0276 -0.1408
12633TIP3    H237843   0.086   6.558   1.120  0.6526 -1.9937 -0.3297
12634TIP3   OH237844   3.665   5.023   3.474  0.0572  0.6452 -0.0181
12634TIP3    H137845   3.696   5.078   3.403 -4.4156  0.8076 -2.1942
12634TIP3    H237846   3.677   4.933   3.442 -0.4726  0.6664 -0.2837
12635TIP3   OH237847   2.726   5.653   6.513 -0.4120 -0.2960 -0.0115
12635TIP3    H137848   2.803   5.671   6.568  0.9355 -2.0176 -1.2046
12635TIP3    H237849   2.761   5.651   6.424 -2.0081 -0.4326 -0.6603
12636TIP3   OH237850   5.271   6.741   4.092  0.1357 -0.3414  0.0654
12636TIP3    H137851   5.304   6.661   4.051 -1.4325 -0.8497 -0.2836
12636TIP3    H237852   5.189   6.759   4.045 -1.9022 -1.0890  3.0918
12637TIP3   OH237853   2.043   1.009   3.175 -0.4530 -0.1861  0.2033
12637TIP3    H137854   1.956   0.969   3.173 -0.2348 -0.6622 -2.4185
12637TIP3    H237855   2.074   1.005   3.085  0.7357  3.4279  0.2980
12638TIP3   OH237856   3.673   7.422   4.406  0.0570 -0.0489 -0.0454
12638TIP3    H137857   3.594   7.433   4.352 -0.8331 -1.6031  0.8715
12638TIP3    H237858   3.650   7.461   4.490 -0.1402 -1.3712  0.5469
12639TIP3   OH237859   6.910   5.769   4.604 -0.4074 -0.1639 -0.2179
12639TIP3    H137860   6.951   5.725   4.528 -0.9934 -0.8048 -0.1759
12639TIP3    H237861   6.977   5.829   4.636  0.0181 -0.2301 -0.9634
12640TIP3   OH237862   7.589   2.589   1.981  0.2922 -0.4197  0.1414
12640TIP3    H137863   7.635   2.532   2.042 -0.7320 -0.9061  0.4874
12640TIP3    H237864   7.509   2.540   1.958 -1.0909  1.2298  1.1772
12641TIP3   OH237865   3.009   6.786   3.220  0.1019  0.2259 -0.7810
12641TIP3    H137866   2.956   6.865   3.234  0.2927  0.2733 -0.3125
12641TIP3    H237867   2.979   6.752   3.135 -2.3441 -1.0680  0.4889
12642TIP3   OH237868   3.630   7.812   6.424  0.1436 -0.0999 -0.3728
12642TIP3    H137869   3.573   7.743   6.390  0.7122 -1.3233  1.0661
12642TIP3    H237870   3.576   7.891   6.422 -0.7903 -0.7332 -1.2697
12643TIP3   OH237871   0.794   5.618   5.363  0.5395 -0.2209  0.4664
12643TIP3    H137872   0.745   5.561   5.421 -1.2290  0.8602  0.1122
12643TIP3    H237873   0.826   5.689   5.419 -2.1282  1.4402  0.0793
12644TIP3   OH237874   6.139   3.592   6.445 -0.0825 -0.1839  0.2697
12644TIP3    H137875   6.075   3.662   6.461 -0.1614 -0.2338  0.1729
12644TIP3    H237876   6.193   3.626   6.373 -0.6727 -0.5912 -0.3704
12645TIP3   OH237877   3.015   2.935   5.545  0.5100  0.2405 -0.0280
12645TIP3    H137878   3.085   2.879   5.512  0.8444  0.4822  0.2699
12645TIP3    H237879   2.940   2.914   5.490  0.7371 -0.2255 -0.1656
12646TIP3   OH237880   2.596   3.118   6.273  0.1994 -0.1033 -0.8743
12646TIP3    H137881   2.556   3.081   6.194  0.3609 -0.0844 -0.9647
12646TIP3    H237882   2.521   3.139   6.329  0.1559 -2.6186  0.1412
12647TIP3   OH237883   5.040   4.972   6.422  0.0873  0.6068 -0.1046
12647TIP3    H137884   5.084   5.000   6.342  2.7678 -1.0942  0.6230
12647TIP3    H237885   5.075   4.884   6.439 -0.4224  0.8705  2.8777
12648TIP3   OH237886   5.168   3.199   4.048  0.1246  0.1603 -0.7242
12648TIP3    H137887   5.237   3.237   4.102 -1.6302  3.7877 -0.7460
12648TIP3    H237888   5.209   3.182   3.964  1.4657  0.1650 -0.0954
12649TIP3   OH237889   5.535   3.719   0.277  0.2221  0.1196  0.0512
12649TIP3    H137890   5.446   3.748   0.255  0.5884  0.3129 -1.2066
12649TIP3    H237891   5.527   3.624   0.287 -0.0189  0.0591 -0.6523
12650TIP3   OH237892   7.647   5.439   5.324 -0.2836  0.7150  0.2764
12650TIP3    H137893   7.579   5.381   5.358 -1.3220  0.2193 -2.3697
12650TIP3    H237894   7.631   5.441   5.229  3.5206  0.4257 -0.5135
12651TIP3   OH237895   7.065   1.534   6.705  0.2588  0.0504  1.0762
12651TIP3    H137896   6.976   1.511   6.733  0.1243  1.0471  1.5493
12651TIP3    H237897   7.115   1.454   6.716  0.0165  0.1259  3.4180
12652TIP3   OH237898   1.178   4.648   3.159  0.0667  0.4807  0.2334
12652TIP3    H137899   1.127   4.571   3.135 -0.9685  0.9185  0.9371
12652TIP3    H237900   1.167   4.655   3.254 -0.0933  1.6611  0.1379
12653TIP3   OH237901   7.208   2.870   2.853 -0.4769  0.5380  0.2030
12653TIP3    H137902   7.177   2.890   2.765 -2.1357 -0.7065  0.4570
12653TIP3    H237903   7.147   2.915   2.911 -1.4606 -1.3472  0.7118
12654TIP3   OH237904   5.209   4.669   5.609  0.1168 -0.3182 -0.3113
12654TIP3    H137905   5.151   4.741   5.633 -0.5015 -0.8555 -0.1333
12654TIP3    H237906   5.291   4.710   5.585  0.0678  0.3775  0.6717
12655TIP3   OH237907   0.267   7.177   6.253  0.0462 -0.4551 -0.3423
12655TIP3    H137908   0.330   7.108   6.233 -0.1033 -0.3346 -1.2708
12655TIP3    H237909   0.235   7.155   6.341 -0.5912 -2.0348 -0.9342
12656TIP3   OH237910   3.274   1.542   2.303 -0.4633 -0.1790  0.2545
12656TIP3    H137911   3.342   1.504   2.359  0.4553 -0.5231 -1.0558
12656TIP3    H237912   3.225   1.600   2.361  0.3223 -0.6882  1.4619
12657TIP3   OH237913   3.669   2.376   3.993 -0.0171 -0.0689  0.2092
12657TIP3    H137914   3.619   2.320   4.053  1.0031 -1.5639 -0.2850
12657TIP3    H237915   3.758   2.376   4.029  0.2157  0.4365 -0.3515
12658TIP3   OH237916   5.595   7.130   3.450 -0.5528  0.3308 -0.0365
12658TIP3    H137917   5.569   7.197   3.387 -0.0166 -0.0568 -0.6758
12658TIP3    H237918   5.545   7.052   3.424 -1.4624  0.5636  0.9315
12659TIP3   OH237919   6.715   6.093   2.235 -0.2204  0.0640 -0.3730
12659TIP3    H137920   6.685   6.051   2.155  1.6217 -1.9356 -0.1160
12659TIP3    H237921   6.802   6.055   2.251 -0.6043  0.2113  2.6746
12660TIP3   OH237922   2.674   3.626   1.352 -0.4038 -0.0032 -0.1481
12660TIP3    H137923   2.741   3.654   1.415  1.5420  1.0688 -2.5273
12660TIP3    H237924   2.656   3.534   1.375  0.6187  0.1915  1.5979
12661TIP3   OH237925   2.954   1.205   4.126 -0.3487 -0.0236 -0.3721
12661TIP3    H137926   2.937   1.131   4.185  1.5756  1.2743  1.9753
12661TIP3    H237927   3.004   1.167   4.053  0.9049 -1.0174  0.9526
12662TIP3   OH237928   2.441   7.562   1.619  0.4551  0.3387 -0.4994
12662TIP3    H137929   2.511   7.525   1.673  1.3247 -0.8123 -2.2999
12662TIP3    H237930   2.456   7.656   1.622  1.1048  0.2218  0.4144
12663TIP3   OH237931   5.805   2.570   0.970  0.1611  0.2587 -0.4841
12663TIP3    H137932   5.719   2.608   0.989 -0.5276 -1.2784 -0.3759
12663TIP3    H237933   5.788   2.506   0.901  1.4158  0.6582 -1.1868
12664TIP3   OH237934   2.317   5.723   2.039 -0.2099 -0.2030 -0.2042
12664TIP3    H137935   2.330   5.674   1.958 -1.5541  0.2216 -0.6984
12664TIP3    H237936   2.266   5.665   2.095  0.2569 -0.2841  0.1505
12665TIP3   OH237937   4.258   2.896   6.598  0.0565 -0.0862  0.7517
12665TIP3    H137938   4.184   2.939   6.642 -0.6517 -0.4763 -0.0317
12665TIP3    H237939   4.320   2.966   6.581 -0.0714  0.2315  1.5189
12666TIP3   OH237940   1.657   4.216   4.947 -0.2987  1.5115 -0.3008
12666TIP3    H137941   1.578   4.196   4.997 -1.0339  1.0480 -1.6074
12666TIP3    H237942   1.661   4.149   4.879  2.4193  0.1996  0.9934
12667TIP3   OH237943   8.171   5.777   3.076  0.2185 -0.5255 -0.0489
12667TIP3    H137944   8.086   5.762   3.036  0.1059  1.1779 -0.5222
12667TIP3    H237945   8.152   5.805   3.165  0.4381 -3.3170  0.9603
12668TIP3   OH237946   6.358   1.327   1.594  0.2200 -0.1696 -0.4097
12668TIP3    H137947   6.451   1.303   1.592  0.1864 -0.2313 -1.4458
12668TIP3    H237948   6.312   1.243   1.592  0.1366 -0.1202 -0.5614
12669TIP3   OH237949   0.894   2.737   3.321 -0.4564  0.3746  0.3321
12669TIP3    H137950   0.977   2.719   3.364  0.4341  0.6589 -1.1858
12669TIP3    H237951   0.864   2.651   3.291 -0.7487  0.2665  0.9154
12670TIP3   OH237952   7.278   3.792   2.183 -0.3245 -0.4386 -0.0370
12670TIP3    H137953   7.230   3.786   2.100  1.0775 -1.6344 -0.8089
12670TIP3    H237954   7.273   3.704   2.220 -0.4915 -0.0422  0.9242
12671TIP3   OH237955   0.576   6.863   2.629  0.1022 -0.0166  0.4532
12671TIP3    H137956   0.579   6.896   2.539  0.0358  4.6756  1.9164
12671TIP3    H237957   0.668   6.863   2.657  0.0722 -1.0425  0.6162
12672TIP3   OH237958   1.838   2.995   2.721  0.1416 -0.4206  0.0338
12672TIP3    H137959   1.789   2.947   2.655 -0.4217 -0.1017  0.2123
12672TIP3    H237960   1.774   3.014   2.790  0.6386 -0.4571  0.5177
12673TIP3   OH237961   6.603   0.650   6.376  0.6961  0.1719 -0.0975
12673TIP3    H137962   6.601   0.557   6.354  0.7349  0.1233  0.0973
12673TIP3    H237963   6.530   0.662   6.436 -0.0322  0.5111 -1.0283
12674TIP3   OH237964   7.228   6.929   3.059 -1.1020 -0.0620  0.1652
12674TIP3    H137965   7.259   6.838   3.053  1.4575  0.7760 -0.8654
12674TIP3    H237966   7.193   6.948   2.972 -2.3398 -0.2630  0.6077
12675TIP3   OH237967   5.789   3.954   5.876 -0.0052 -0.1195  0.0106
12675TIP3    H137968   5.823   3.938   5.964  0.0907  0.6847  0.1287
12675TIP3    H237969   5.694   3.942   5.883 -0.0144  0.1025  0.2632
12676TIP3   OH237970   4.217   2.659   4.917 -0.3376 -0.6050 -0.5023
12676TIP3    H137971   4.282   2.730   4.913 -0.8914  0.0091  0.9008
12676TIP3    H237972   4.151   2.684   4.853 -0.0913 -0.3124 -0.6503
12677TIP3   OH237973   1.709   3.028   6.527  0.1182 -0.2117  0.2993
12677TIP3    H137974   1.683   3.005   6.437  2.3902 -2.2199  0.0245
12677TIP3    H237975   1.751   2.948   6.560 -0.6174  0.5017  3.1639
12678TIP3   OH237976   4.379   4.359   4.151  0.4311 -0.1511 -0.0155
12678TIP3    H137977   4.467   4.360   4.187  0.1281 -2.0103  0.8628
12678TIP3    H237978   4.386   4.409   4.069  2.3080 -0.4117 -0.0479
12679TIP3   OH237979   4.071   3.633   3.080 -0.7584  0.5335  0.0269
12679TIP3    H137980   4.009   3.561   3.092 -0.7001  0.6381  1.1222
12679TIP3    H237981   4.020   3.712   3.098 -0.5417  0.6841 -0.0077
12680TIP3   OH237982   4.364   1.274   5.985 -0.0081  0.4332 -0.3590
12680TIP3    H137983   4.308   1.199   5.970 -0.6328  1.2647 -2.6543
12680TIP3    H237984   4.446   1.252   5.940 -0.3665  1.2680 -1.4712
12681TIP3   OH237985   4.849   4.065   0.225  0.2835 -0.0240 -0.3338
12681TIP3    H137986   4.842   4.157   0.200 -1.5420 -0.3873 -1.3043
12681TIP3    H237987   4.874   4.067   0.318  0.3086  1.4259 -0.3483
12682TIP3   OH237988   3.278   7.054   6.797  0.3510  0.3738  0.0791
12682TIP3    H137989   3.256   6.968   6.759  1.1689  0.8478 -1.5635
12682TIP3    H237990   3.272   7.115   6.724 -1.3522  1.9682  1.4490
12683TIP3   OH237991   8.192   0.690   3.483 -0.9864  0.2700 -0.4254
12683TIP3    H137992   8.207   0.599   3.459 -0.3968  0.4162 -0.6152
12683TIP3    H237993   8.206   0.692   3.578  0.5028  0.4535 -0.6272
12684TIP3   OH237994   4.153   5.922   0.641  0.4354  0.1104  0.8000
12684TIP3    H137995   4.180   5.858   0.575 -0.2226 -0.1107  0.7346
12684TIP3    H237996   4.094   5.873   0.699 -0.3542  0.7448  0.5522
12685TIP3   OH237997   5.166   1.032   3.748 -0.0836  0.1461  0.2576
12685TIP3    H137998   5.212   0.982   3.816 -1.3320 -0.2323  0.8514
12685TIP3    H237999   5.229   1.101   3.723  0.2783  0.5324  2.0764
12686TIP3   OH238000   0.139   6.249   0.312  0.0380 -0.2748 -0.4134
12686TIP3    H138001   0.110   6.337   0.288 -0.8212 -0.4337  0.0071
12686TIP3    H238002   0.144   6.202   0.228  0.4903  0.1610 -0.6393
12687TIP3   OH238003   3.265   2.077   4.212  0.2457  0.0378 -0.3723
12687TIP3    H138004   3.240   2.146   4.274 -2.8068 -0.1051 -1.2393
12687TIP3    H238005   3.356   2.096   4.191  1.5237  0.0204  4.1105
12688TIP3   OH238006   7.381   5.656   6.124 -0.0078 -0.2732  0.0129
12688TIP3    H138007   7.450   5.688   6.182 -0.7810 -1.2371  1.5319
12688TIP3    H238008   7.376   5.562   6.143 -1.1080 -0.3857 -0.7396
12689TIP3   OH238009   5.007   2.660   0.077  0.6421  0.4446 -0.4870
12689TIP3    H138010   4.995   2.579   0.027 -1.6928 -0.5869  1.5024
12689TIP3    H238011   4.931   2.713   0.054 -1.4359 -0.7188  2.8826
12690TIP3   OH238012   1.531   6.671   5.778  0.0278  0.3917  0.2176
12690TIP3    H138013   1.533   6.678   5.873  0.6908 -0.0397  0.2429
12690TIP3    H238014   1.619   6.695   5.750  0.1604 -0.5113 -0.2035
12691TIP3   OH238015   1.941   3.568   1.545 -0.1364 -0.4173  0.5785
12691TIP3    H138016   1.881   3.563   1.470 -0.0618  3.8165  0.0251
12691TIP3    H238017   1.884   3.585   1.620  0.0954 -0.0751  0.6806
12692TIP3   OH238018   0.280   3.120   2.261  0.0871 -0.4087 -0.4796
12692TIP3    H138019   0.275   3.033   2.300 -4.8908 -0.2254 -0.1548
12692TIP3    H238020   0.281   3.180   2.336  0.1640 -0.1593 -0.6798
12693TIP3   OH238021   4.494   0.447   6.756 -0.2219 -0.2121 -0.0120
12693TIP3    H138022   4.402   0.468   6.737 -0.3573 -1.0656 -0.3734
12693TIP3    H238023   4.525   0.407   6.675  1.0610  1.8407 -0.6196
12694TIP3   OH238024   0.801   3.631   2.089  0.1567  0.2686  0.2998
12694TIP3    H138025   0.734   3.680   2.042 -0.2803 -0.7834 -0.2024
12694TIP3    H238026   0.842   3.576   2.022  0.0091 -0.7268  1.0047
12695TIP3   OH238027   7.622   6.012   0.129 -0.3189 -0.3171  0.4793
12695TIP3    H138028   7.656   5.943   0.186  0.0513  0.6024  1.4128
12695TIP3    H238029   7.536   6.033   0.167 -0.6076 -0.5480 -0.0457
12696TIP3   OH238030   1.303   1.747   6.402 -0.6115  0.1354 -0.4659
12696TIP3    H138031   1.211   1.721   6.400 -0.9682  1.3683 -1.8634
12696TIP3    H238032   1.312   1.797   6.482 -0.5267 -1.9994  0.9374
12697TIP3   OH238033   6.749   6.968   3.349  0.4561 -0.3307  0.0093
12697TIP3    H138034   6.656   6.955   3.330  0.4680 -0.6450  0.1594
12697TIP3    H238035   6.760   6.935   3.438  0.6506 -0.0031  0.1109
12698TIP3   OH238036   0.050   1.556   4.933 -0.0821 -0.7136  0.1905
12698TIP3    H138037   0.017   1.594   5.015  0.6864  1.0313 -0.2631
12698TIP3    H238038  -0.027   1.552   4.876 -0.3515 -0.6607  0.5459
12699TIP3   OH238039   3.168   3.088   5.703 -0.1758 -0.1809 -0.0913
12699TIP3    H138040   3.111   3.055   5.633  0.5528  0.5899 -1.0800
12699TIP3    H238041   3.197   3.010   5.750 -1.7083 -0.6201  0.1868
12700TIP3   OH238042   3.774   7.470   2.717  0.0297 -0.4386 -0.3991
12700TIP3    H138043   3.795   7.493   2.626 -0.6467  0.4072 -0.3572
12700TIP3    H238044   3.803   7.380   2.726  1.2435 -0.1352 -1.0867
12701TIP3   OH238045   4.462   2.370   3.238 -0.0644 -0.2238  0.4595
12701TIP3    H138046   4.382   2.408   3.275  1.4172  1.4660  2.1011
12701TIP3    H238047   4.435   2.337   3.152 -2.0247  2.4080 -0.0630
12702TIP3   OH238048   5.406   5.219   6.702 -0.1017  0.2063 -0.5911
12702TIP3    H138049   5.387   5.190   6.792  0.4876  1.2540 -0.1184
12702TIP3    H238050   5.351   5.296   6.690 -0.0652  0.1566 -1.0803
12703TIP3   OH238051   3.862   3.919   5.935 -0.5996  0.3667 -1.0003
12703TIP3    H138052   3.828   3.896   5.849 -0.0228 -2.3668 -0.5763
12703TIP3    H238053   3.957   3.916   5.925 -0.4777 -2.3729  0.2060
12704TIP3   OH238054   3.081   2.721   6.712 -0.9041  0.3829  0.2442
12704TIP3    H138055   3.165   2.686   6.742 -1.1437 -0.1647  0.2864
12704TIP3    H238056   3.100   2.757   6.626 -0.9483 -1.1453 -0.4340
12705TIP3   OH238057   0.895   2.890   0.267 -0.3388  0.4359  0.4229
12705TIP3    H138058   0.883   2.938   0.185  0.7894  0.9722  0.5481
12705TIP3    H238059   0.928   2.956   0.328  0.8933 -0.4021  0.6994
12706TIP3   OH238060   6.983   3.521   2.138  0.2389  0.1144  0.0097
12706TIP3    H138061   7.049   3.588   2.120 -0.5561  0.6615 -1.0045
12706TIP3    H238062   6.912   3.569   2.181  1.2973 -0.8371  3.1188
12707TIP3   OH238063   6.679   3.169   3.027 -0.4026  0.3240 -0.3396
12707TIP3    H138064   6.774   3.159   3.022 -0.3192  0.1531  1.0950
12707TIP3    H238065   6.653   3.118   3.104 -1.8175 -0.5762 -1.3818
12708TIP3   OH238066   1.156   2.077   2.335 -0.5388 -0.3300  0.0269
12708TIP3    H138067   1.109   2.093   2.417 -0.5940  0.6424 -0.1824
12708TIP3    H238068   1.247   2.100   2.354 -0.9770  2.5260 -0.8727
12709TIP3   OH238069   0.116   0.103   4.637  0.1120 -0.5796  0.1550
12709TIP3    H138070   0.128   0.123   4.730 -2.0572 -0.0684  0.3858
12709TIP3    H238071   0.161   0.173   4.591 -0.6244  0.3941  0.8729
12710TIP3   OH238072   0.753   6.274   5.444 -0.0909  0.2060  0.1547
12710TIP3    H138073   0.722   6.363   5.460  0.0445  0.2776  0.0310
12710TIP3    H238074   0.849   6.283   5.440 -0.0785  0.0595  0.1195
12711TIP3   OH238075   2.047   6.637   0.683 -0.0751 -0.7043  0.2223
12711TIP3    H138076   1.995   6.600   0.612 -0.8177  1.6721 -0.5695
12711TIP3    H238077   2.031   6.731   0.678 -0.6918 -0.4522  3.9493
12712TIP3   OH238078   6.273   2.071   2.304  0.6557  0.8614 -0.0774
12712TIP3    H138079   6.301   2.161   2.287  0.2539  1.0771  0.3446
12712TIP3    H238080   6.183   2.081   2.335  0.6626  0.3270  0.1164
12713TIP3   OH238081   0.852   1.596   5.529 -0.4251 -0.1968 -0.0113
12713TIP3    H138082   0.880   1.581   5.619  0.1501 -1.3000 -0.3589
12713TIP3    H238083   0.933   1.614   5.481 -0.6769 -0.0624 -0.3965
12714TIP3   OH238084   2.823   4.550   6.145  0.1764  0.3203 -0.3615
12714TIP3    H138085   2.729   4.539   6.134  0.1456 -1.6418  1.2492
12714TIP3    H238086   2.861   4.487   6.083  0.2828 -1.2720  1.2264
12715TIP3   OH238087   0.555   5.946   1.196 -0.0105  0.2343 -0.9844
12715TIP3    H138088   0.486   5.939   1.130 -0.2076  1.5279 -0.9449
12715TIP3    H238089   0.636   5.945   1.145 -0.0558 -0.9925 -1.0538
12716TIP3   OH238090   8.118   5.423   3.448 -0.1956 -0.3024 -0.1167
12716TIP3    H138091   8.063   5.401   3.373  1.2475 -0.0760 -1.2988
12716TIP3    H238092   8.133   5.517   3.440 -0.3332 -0.2058  0.6790
12717TIP3   OH238093   7.676   4.596   1.028  0.4301 -0.3303 -0.5163
12717TIP3    H138094   7.730   4.564   1.100  0.9695  0.5525 -0.5205
12717TIP3    H238095   7.721   4.566   0.949  0.4541 -0.3113 -0.5096
12718TIP3   OH238096   5.186   0.774   2.974  0.3372  0.0146 -0.4656
12718TIP3    H138097   5.246   0.724   2.918  1.9671  1.1824  0.1739
12718TIP3    H238098   5.221   0.764   3.062 -1.5293 -0.8297  0.2221
12719TIP3   OH238099   1.196   5.577   6.357 -0.3137  0.1788  0.0386
12719TIP3    H138100   1.127   5.631   6.318  0.0957 -0.2280 -1.3223
12719TIP3    H238101   1.220   5.515   6.288  1.5979  0.4940  0.3436
12720TIP3   OH238102   2.614   5.659   0.409  0.4390  0.0050  0.1706
12720TIP3    H138103   2.601   5.572   0.372 -1.2025  0.9328 -1.5991
12720TIP3    H238104   2.662   5.707   0.342  0.3670  0.7707  0.6510
12721TIP3   OH238105   7.626   7.161   5.668  0.1051 -0.0416  0.1380
12721TIP3    H138106   7.582   7.171   5.753 -0.8039  0.0266 -0.3234
12721TIP3    H238107   7.709   7.118   5.689 -0.5978 -1.0600  0.9311
12722TIP3   OH238108   2.905   0.670   6.553 -0.0302 -0.5589 -0.3331
12722TIP3    H138109   2.830   0.681   6.611 -2.0600 -0.7028 -2.7209
12722TIP3    H238110   2.901   0.578   6.527  0.7210 -0.4669 -0.8068
12723TIP3   OH238111   5.108   2.857   1.357 -0.2217 -0.5022  0.2119
12723TIP3    H138112   5.169   2.889   1.423 -0.4172 -1.3701  0.8219
12723TIP3    H238113   5.127   2.763   1.350 -0.3930 -0.4802 -0.7641
12724TIP3   OH238114   1.667   6.888   1.004  0.4996  0.2825 -0.2393
12724TIP3    H138115   1.586   6.843   0.980  0.4806  0.4791 -0.5562
12724TIP3    H238116   1.665   6.969   0.953  0.2980  0.8805  0.6969
12725TIP3   OH238117   8.124   2.323   5.853 -0.2357 -0.0260 -0.0738
12725TIP3    H138118   8.150   2.260   5.920  2.3567 -0.7952 -1.6616
12725TIP3    H238119   8.187   2.394   5.861 -0.5977  0.4099 -0.9458
12726TIP3   OH238120   0.297   4.204   0.384  0.1367  0.0372  0.5102
12726TIP3    H138121   0.208   4.214   0.418 -0.5850 -0.9847 -0.9662
12726TIP3    H238122   0.315   4.110   0.393  0.0271 -0.2183 -1.5573
12727TIP3   OH238123   7.790   2.638   2.966  0.5793 -0.2191  0.1987
12727TIP3    H138124   7.702   2.676   2.966 -0.2704 -2.0360 -0.6745
12727TIP3    H238125   7.787   2.572   2.897  2.0834 -1.5747  1.3570
12728TIP3   OH238126   0.081   6.351   2.650  0.0701 -0.1614 -0.2702
12728TIP3    H138127   0.127   6.397   2.580 -2.4758 -1.5539 -3.1399
12728TIP3    H238128   0.118   6.263   2.649 -0.5963 -0.4431 -0.5203
12729TIP3   OH238129   7.950   3.739   2.289  0.3410 -0.4457 -0.0132
12729TIP3    H138130   7.920   3.745   2.379  0.4731 -1.1951  0.0882
12729TIP3    H238131   7.982   3.649   2.280  1.1765 -0.1127 -0.5378
12730TIP3   OH238132   5.261   0.710   3.236  0.3578  0.1358  0.0775
12730TIP3    H138133   5.312   0.676   3.310 -2.1536 -1.1081  1.3804
12730TIP3    H238134   5.205   0.777   3.275 -1.1127 -0.6430 -0.6376
12731TIP3   OH238135   2.269   1.663   2.463 -0.0171  0.0914 -0.2817
12731TIP3    H138136   2.314   1.681   2.546 -0.3943 -1.6165  0.3480
12731TIP3    H238137   2.339   1.633   2.404 -0.3042 -4.8147  1.3699
12732TIP3   OH238138   2.300   4.712   3.788  0.6463  0.4282  0.6110
12732TIP3    H138139   2.296   4.807   3.798  1.2246  0.5699 -0.3480
12732TIP3    H238140   2.229   4.679   3.844 -0.5084  1.5174 -0.1342
12733TIP3   OH238141   5.408   3.645   4.243  0.0160 -0.2730 -0.1469
12733TIP3    H138142   5.466   3.690   4.305  0.0609 -0.8255  0.2193
12733TIP3    H238143   5.349   3.595   4.299 -2.9993  2.7562 -0.2799
12734TIP3   OH238144   6.893   4.392   3.466  0.3997  0.1132  0.7590
12734TIP3    H138145   6.977   4.383   3.421  0.5411 -2.0310  1.3632
12734TIP3    H238146   6.834   4.333   3.419 -0.9334  1.8513  0.1130
12735TIP3   OH238147   3.082   0.119   0.896  0.5433  0.4785 -0.1493
12735TIP3    H138148   3.174   0.112   0.923  0.4280  0.8326  0.3334
12735TIP3    H238149   3.076   0.203   0.851  0.6836 -0.0072 -1.1086
12736TIP3   OH238150   0.759   2.273   6.156  0.0116 -0.1370  0.1471
12736TIP3    H138151   0.843   2.228   6.161  1.1963  1.6459 -1.7959
12736TIP3    H238152   0.775   2.359   6.195 -0.9778  0.1165  0.0306
12737TIP3   OH238153   5.096   5.528   4.049 -0.4004  0.1068 -0.0592
12737TIP3    H138154   5.115   5.456   3.989  2.3532 -0.2438  1.1139
12737TIP3    H238155   5.060   5.487   4.127  0.0886  0.1198  0.1736
12738TIP3   OH238156   3.886   4.782   1.292 -0.1413  0.1486  0.1636
12738TIP3    H138157   3.813   4.844   1.295  0.2912  0.7168 -0.6561
12738TIP3    H238158   3.964   4.836   1.307  0.0775 -0.5882  1.9864
12739TIP3   OH238159   4.105   3.344   1.542  0.0531  0.6690 -0.4973
12739TIP3    H138160   4.126   3.358   1.635 -1.4372  1.9157 -0.3128
12739TIP3    H238161   4.064   3.425   1.514  3.3502  1.6547 -3.2113
12740TIP3   OH238162   2.647   0.982   2.980  0.2975  0.0108  0.0624
12740TIP3    H138163   2.728   1.033   2.974  0.8670 -0.5751  1.9719
12740TIP3    H238164   2.674   0.899   3.018 -1.0871 -0.5001 -0.0306
12741TIP3   OH238165   3.992   7.005   4.716 -0.5240 -0.3586 -0.0455
12741TIP3    H138166   4.071   6.987   4.664 -0.1270 -0.2319  0.5060
12741TIP3    H238167   4.025   7.025   4.803 -1.1517  0.0340  0.1058
12742TIP3   OH238168   7.150   2.831   4.301  0.2264  0.2254 -0.4095
12742TIP3    H138169   7.057   2.825   4.323  0.1981  1.8777  0.0572
12742TIP3    H238170   7.151   2.853   4.208  0.2249 -1.8309 -0.9264
12743TIP3   OH238171   1.293   2.823   2.569 -0.2683  0.3807  0.6654
12743TIP3    H138172   1.367   2.880   2.548 -1.0289  1.2133  0.1791
12743TIP3    H238173   1.273   2.779   2.486  0.9576 -1.4051  1.2651
12744TIP3   OH238174   4.209   5.445   0.056 -0.1833 -0.0027  0.2909
12744TIP3    H138175   4.295   5.469   0.021 -0.1822 -0.3102  0.0800
12744TIP3    H238176   4.148   5.502   0.008 -0.1209  0.0489  0.2713
12745TIP3   OH238177   0.832   5.693   4.803 -0.2932 -0.2099  0.2613
12745TIP3    H138178   0.784   5.748   4.741  1.0730 -0.1690 -0.8022
12745TIP3    H238179   0.853   5.751   4.876  1.8272  0.9821 -1.1989
12746TIP3   OH238180   1.243   7.765   2.702  0.2279  0.1227  0.3367
12746TIP3    H138181   1.296   7.804   2.632 -0.7512  0.1598 -0.4086
12746TIP3    H238182   1.159   7.810   2.695 -0.6587 -1.5075  0.0042
12747TIP3   OH238183   6.935   2.318   6.449 -0.1929  0.3917  0.0332
12747TIP3    H138184   6.999   2.388   6.463  0.3277  0.2763 -1.5416
12747TIP3    H238185   6.980   2.238   6.473 -0.6691  0.5187  1.4826
12748TIP3   OH238186   4.400   1.329   3.090 -0.3914 -0.2830  0.0842
12748TIP3    H138187   4.369   1.401   3.145 -1.2371 -0.5555 -0.0126
12748TIP3    H238188   4.494   1.344   3.081 -0.2593 -0.1367  1.4541
12749TIP3   OH238189   4.450   0.040   5.536  0.1344  0.5142  0.3103
12749TIP3    H138190   4.418  -0.043   5.570  0.3091  0.7986  1.2036
12749TIP3    H238191   4.517   0.067   5.599  0.8040  0.8301 -0.5241
12750TIP3   OH238192   1.593   4.686   0.872  0.5210  0.2702 -0.1720
12750TIP3    H138193   1.674   4.658   0.831  1.2442  1.3197  0.4762
12750TIP3    H238194   1.539   4.720   0.800  0.4703 -0.8203 -0.6615
12751TIP3   OH238195   5.160   0.111   3.508  0.3487 -0.0610  0.6132
12751TIP3    H138196   5.078   0.156   3.528 -0.0873 -0.3631 -0.4244
12751TIP3    H238197   5.190   0.151   3.426  0.1623 -1.3416 -0.1116
12752TIP3   OH238198   5.068   3.681   1.855 -0.0758  0.6005  0.0143
12752TIP3    H138199   5.121   3.605   1.832 -0.6698 -0.1984  1.1539
12752TIP3    H238200   5.088   3.697   1.947 -0.6688  1.2336  0.0412
12753TIP3   OH238201   7.246   0.077   3.531 -0.0181  0.6842  0.3635
12753TIP3    H138202   7.235   0.172   3.525  0.4434  0.6881 -0.5788
12753TIP3    H238203   7.338   0.066   3.558  0.0549  0.5027  0.0451
12754TIP3   OH238204   7.908   0.724   0.573  0.4778 -0.2450 -0.0682
12754TIP3    H138205   7.875   0.811   0.594 -1.0266 -0.7644 -0.2031
12754TIP3    H238206   7.937   0.731   0.481  0.2227  0.0641 -0.1262
12755TIP3   OH238207   4.995   5.081   3.182 -0.2207  0.6028  0.3580
12755TIP3    H138208   5.069   5.036   3.222 -1.4133 -0.2932  1.6351
12755TIP3    H238209   5.003   5.172   3.211  0.5682  0.6014  0.1716
12756TIP3   OH238210   1.301   6.258   1.809  0.1041  0.1244 -0.7704
12756TIP3    H138211   1.388   6.287   1.838 -0.0617 -0.6438  0.5786
12756TIP3    H238212   1.282   6.312   1.733  1.9135  0.0819 -1.2994
12757TIP3   OH238213   3.216   1.746   5.695  0.2112  0.1728  0.0202
12757TIP3    H138214   3.219   1.682   5.766  0.3714 -0.2530 -0.3637
12757TIP3    H238215   3.136   1.796   5.711 -0.0085 -0.2391  0.2290
12758TIP3   OH238216   1.273   2.448   0.299  0.5505  0.5189 -0.6156
12758TIP3    H138217   1.247   2.368   0.254 -0.5115 -0.3020  1.3540
12758TIP3    H238218   1.217   2.516   0.261  0.5414  0.0996 -1.3734
12759TIP3   OH238219   6.776   4.079   0.068  0.0525  0.8109 -0.6021
12759TIP3    H138220   6.741   4.067  -0.020  0.1983  2.3549 -0.9070
12759TIP3    H238221   6.869   4.097   0.055  0.3999 -0.4942 -0.0061
12760TIP3   OH238222   5.232   0.240   0.023  0.3580  0.0590 -0.2004
12760TIP3    H138223   5.296   0.197   0.080 -0.0054  0.3991  0.4832
12760TIP3    H238224   5.203   0.316   0.073 -2.9113 -1.7535  0.9539
12761TIP3   OH238225   0.198   7.198   3.945  0.1317  0.0660  0.2870
12761TIP3    H138226   0.259   7.269   3.968  0.1533 -0.1929  1.0613
12761TIP3    H238227   0.217   7.129   4.008 -0.9648 -0.0204  0.5431
12762TIP3   OH238228   3.634   5.164   4.357 -0.5766 -0.2308 -0.1923
12762TIP3    H138229   3.711   5.184   4.304 -0.4242  0.1859  0.1840
12762TIP3    H238230   3.655   5.080   4.398 -0.9018 -0.8177 -1.1704
12763TIP3   OH238231   7.885   5.052   3.324 -0.4364 -0.4935  0.6696
12763TIP3    H138232   7.920   4.989   3.262 -0.6347  1.1975 -1.2786
12763TIP3    H238233   7.800   5.077   3.287  0.4906  2.3412  0.2519
12764TIP3   OH238234   6.235   3.237   0.892 -0.2390  0.5901  0.4528
12764TIP3    H138235   6.299   3.252   0.961 -0.0146  1.1606  0.1276
12764TIP3    H238236   6.283   3.187   0.826 -0.2616  0.6154  0.4173
12765TIP3   OH238237   0.632   5.159   1.050  0.3713  0.8657 -0.1338
12765TIP3    H138238   0.561   5.196   0.997  0.4817 -0.1107 -1.0078
12765TIP3    H238239   0.649   5.225   1.117  0.2288  2.1710 -1.3297
12766TIP3   OH238240   2.652   1.638   3.740 -0.0299 -0.1579 -0.1446
12766TIP3    H138241   2.685   1.702   3.803 -1.7983  0.2832  0.4033
12766TIP3    H238242   2.729   1.612   3.689  1.1581  0.6188  1.1888
12767TIP3   OH238243   1.001   1.364   0.613  0.1197 -0.3138 -0.4706
12767TIP3    H138244   1.076   1.396   0.563 -0.3638  0.4160 -0.7480
12767TIP3    H238245   0.926   1.407   0.573 -0.3869 -0.5898  0.1714
12768TIP3   OH238246   0.184   7.704   5.029 -0.1926  0.1279  0.1260
12768TIP3    H138247   0.088   7.708   5.025 -0.1497  0.2984 -2.2068
12768TIP3    H238248   0.208   7.644   4.959  1.4061 -0.4570  1.1315
12769TIP3   OH238249   5.164   2.343   0.103 -0.0743  0.4908 -0.4540
12769TIP3    H138250   5.244   2.353   0.154 -0.9539  1.9005  0.7352
12769TIP3    H238251   5.193   2.341   0.012  1.3302  0.5727 -0.0255
12770TIP3   OH238252   3.750   1.403   5.733 -0.0617  0.2270  0.0747
12770TIP3    H138253   3.682   1.343   5.704 -0.3730 -0.7586  2.5842
12770TIP3    H238254   3.829   1.349   5.739  0.7189  1.0967 -1.6973
12771TIP3   OH238255   8.024   2.531   3.292  0.3680 -0.0494  0.0588
12771TIP3    H138256   7.996   2.620   3.270 -1.1474  0.2724  2.8220
12771TIP3    H238257   7.942   2.485   3.312  1.1214 -2.1231 -1.3318
12772TIP3   OH238258   6.182   5.874   3.114 -0.3505  0.0715  0.4106
12772TIP3    H138259   6.138   5.954   3.087  0.3179  0.6061  0.8566
12772TIP3    H238260   6.275   5.899   3.121  0.3259 -1.4314 -2.1003
12773TIP3   OH238261   6.575   7.114   0.972 -0.2185  0.0326  0.3842
12773TIP3    H138262   6.577   7.195   1.022  2.2740  0.1371  0.2634
12773TIP3    H238263   6.543   7.048   1.033  0.6974  0.5670  1.4770
12774TIP3   OH238264   3.794   1.860   5.831  0.2720 -0.3583 -0.0805
12774TIP3    H138265   3.830   1.942   5.797 -1.1737 -0.4274 -2.0081
12774TIP3    H238266   3.868   1.800   5.836  0.8910  0.2780 -1.3043
12775TIP3   OH238267   3.918   6.857   1.037 -0.2686 -0.6074 -0.4631
12775TIP3    H138268   3.860   6.814   1.100  0.5214 -0.1123  0.6326
12775TIP3    H238269   3.989   6.795   1.024  0.4147 -0.0348  0.4305
12776TIP3   OH238270   7.136   6.695   6.561  0.0034 -0.6094 -0.0185
12776TIP3    H138271   7.216   6.675   6.609  1.0597 -0.3952 -1.5877
12776TIP3    H238272   7.099   6.610   6.538  0.7665 -0.7528 -0.7875
12777TIP3   OH238273   0.615   1.895   5.722  0.0356 -0.3318 -0.1671
12777TIP3    H138274   0.674   1.893   5.646 -0.2289  1.0892 -0.4296
12777TIP3    H238275   0.621   1.806   5.758  1.9156 -0.4011 -0.5039
12778TIP3   OH238276   2.086   1.715   0.493  0.3480 -0.4163  0.5600
12778TIP3    H138277   2.112   1.632   0.533 -0.6618  0.1514  2.5248
12778TIP3    H238278   2.032   1.758   0.560 -0.6400  1.0373 -1.0821
12779TIP3   OH238279   5.439   7.714   3.713 -0.3824 -0.3665  0.1427
12779TIP3    H138280   5.407   7.765   3.787 -0.3223  0.9279 -0.6914
12779TIP3    H238281   5.360   7.695   3.662 -0.0898  1.4471 -1.0724
12780TIP3   OH238282   6.312   6.673   1.435 -0.0456  0.2086  0.0712
12780TIP3    H138283   6.243   6.719   1.389 -0.4736  2.0980  2.3664
12780TIP3    H238284   6.268   6.600   1.479  0.1667 -0.9086 -1.4997
12781TIP3   OH238285   1.145   7.017   3.473  0.0440 -0.3371 -0.1879
12781TIP3    H138286   1.134   6.922   3.473 -1.2825 -0.2072  0.3251
12781TIP3    H238287   1.154   7.040   3.566 -3.0072  0.3339  0.0405
12782TIP3   OH238288   0.064   0.513   5.498  0.1002  0.3581 -0.1984
12782TIP3    H138289   0.022   0.578   5.555  1.0250  1.2319 -0.4743
12782TIP3    H238290   0.080   0.438   5.554  1.3232  1.3338  0.8392
12783TIP3   OH238291   0.242   3.453   3.377  0.1906 -0.1783  0.9089
12783TIP3    H138292   0.191   3.527   3.409 -0.1009 -0.0496  0.1803
12783TIP3    H238293   0.177   3.384   3.362 -0.3345  0.8754 -2.7534
12784TIP3   OH238294   5.455   4.599   6.119  0.0459 -0.2077  0.1894
12784TIP3    H138295   5.370   4.563   6.144 -0.2641 -0.3756 -1.0355
12784TIP3    H238296   5.474   4.665   6.186 -0.1951 -1.4127  1.4796
12785TIP3   OH238297   4.044   7.859   4.438  0.4093 -0.3773 -0.2890
12785TIP3    H138298   3.967   7.827   4.390  0.2092 -0.1402 -0.1312
12785TIP3    H238299   4.101   7.783   4.446 -1.2014 -1.4391  2.4097
12786TIP3   OH238300   8.255   3.070   0.200 -0.2093  0.2923 -0.3157
12786TIP3    H138301   8.334   3.082   0.147  0.0028 -1.3021 -0.4079
12786TIP3    H238302   8.191   3.033   0.141 -1.8231  3.5177 -0.7957
12787TIP3   OH238303   0.442   3.637   5.164  0.0376 -0.1656  0.1729
12787TIP3    H138304   0.444   3.559   5.108 -0.7792  0.7306 -1.1753
12787TIP3    H238305   0.359   3.629   5.212  0.1414 -0.3102  0.3314
12788TIP3   OH238306   1.042   3.987   2.051 -0.0169  0.0267  1.0197
12788TIP3    H138307   1.086   3.908   2.085  1.4965 -0.1310 -1.1309
12788TIP3    H238308   0.987   3.955   1.980 -0.2610  0.8023  0.8532
12789TIP3   OH238309   3.281   1.644   3.656 -0.5081 -0.4652 -0.1472
12789TIP3    H138310   3.191   1.660   3.630  0.0537  0.4053 -1.7581
12789TIP3    H238311   3.315   1.730   3.680  0.9352  0.0414 -3.3645
12790TIP3   OH238312   3.453   0.791   2.173 -0.0734  0.0576  0.0392
12790TIP3    H138313   3.378   0.821   2.223 -1.3925 -2.3202 -0.3485
12790TIP3    H238314   3.420   0.716   2.124  2.2370 -0.2467 -1.1759
12791TIP3   OH238315   0.931   3.231   3.241  1.2186 -0.2251 -0.3252
12791TIP3    H138316   0.884   3.158   3.200  1.0356 -0.6278  0.5765
12791TIP3    H238317   1.024   3.210   3.228  1.1989 -1.2297  0.9040
12792TIP3   OH238318   6.993   0.246   1.602  0.7131 -0.8149  0.5520
12792TIP3    H138319   6.921   0.234   1.664  0.5857  1.9124  1.0670
12792TIP3    H238320   6.956   0.302   1.534  2.0453 -0.3047  0.2322
12793TIP3   OH238321   3.913   5.375   1.166 -0.2099 -0.1356  0.3477
12793TIP3    H138322   3.981   5.402   1.104 -1.0320  0.2502 -0.4307
12793TIP3    H238323   3.840   5.348   1.110 -0.8388 -0.1416  1.1527
12794TIP3   OH238324   1.516   6.710   2.155  0.1423  0.3662 -0.3225
12794TIP3    H138325   1.424   6.719   2.129  0.0502  0.2993 -0.0243
12794TIP3    H238326   1.542   6.798   2.181 -0.0652  0.2428  0.3268
12795TIP3   OH238327   3.277   6.027   1.879  0.1932 -0.3649 -0.1950
12795TIP3    H138328   3.213   6.094   1.903  0.0759 -0.6043  0.1679
12795TIP3    H238329   3.258   6.008   1.787  1.3293  1.3109 -0.8232
12796TIP3   OH238330   7.648   0.354   3.320 -0.8967  0.4027  0.6337
12796TIP3    H138331   7.678   0.445   3.322 -0.0296  0.1913 -0.9110
12796TIP3    H238332   7.729   0.302   3.318 -1.3786 -0.4143  1.3944
12797TIP3   OH238333   7.545   3.081   6.031 -0.8006 -0.0243  0.2168
12797TIP3    H138334   7.636   3.107   6.020 -0.8896 -0.1746 -1.1367
12797TIP3    H238335   7.523   3.037   5.949 -2.2350  0.4735  0.3000
12798TIP3   OH238336   1.162   1.875   0.385  0.4166 -0.4781  0.0726
12798TIP3    H138337   1.254   1.849   0.398  0.8300  0.3045 -1.1097
12798TIP3    H238338   1.151   1.950   0.444  0.5301 -0.5974  0.2468
12799TIP3   OH238339   7.156   3.246   1.838 -0.5366  0.3927  0.7710
12799TIP3    H138340   7.129   3.323   1.789  0.4308  0.0623 -0.3148
12799TIP3    H238341   7.231   3.276   1.890 -1.6488  0.7819  2.2191
12800TIP3   OH238342   8.247   6.296   1.318  0.0661 -0.5900 -0.3748
12800TIP3    H138343   8.205   6.382   1.309  1.0123  0.1086  1.4074
12800TIP3    H238344   8.251   6.262   1.228 -0.9772  0.8918 -1.0265
12801TIP3   OH238345   7.237   3.738   0.678  0.0714 -0.0055 -0.0055
12801TIP3    H138346   7.202   3.785   0.754 -0.5386  0.3137 -0.4698
12801TIP3    H238347   7.332   3.747   0.686  0.2004 -2.1655  2.0928
12802TIP3   OH238348   6.738   2.682   4.687 -0.1893 -0.0513 -0.8940
12802TIP3    H138349   6.809   2.625   4.715 -0.9361 -0.6599 -0.2022
12802TIP3    H238350   6.747   2.760   4.742 -0.6165 -0.5225 -0.1437
12803TIP3   OH238351   1.631   0.251   2.065  0.6048 -0.4793 -0.4113
12803TIP3    H138352   1.626   0.163   2.102  0.5184 -0.3780 -0.1838
12803TIP3    H238353   1.710   0.289   2.104  0.8652 -0.5946 -0.8132
12804TIP3   OH238354   1.254   2.474   1.273 -0.8309  0.0309 -0.1156
12804TIP3    H138355   1.235   2.382   1.293  2.0200 -0.8051 -0.7383
12804TIP3    H238356   1.262   2.477   1.178 -1.9663  1.1993 -0.1951
12805TIP3   OH238357   4.434   0.300   5.145  0.3774 -0.0163  0.2293
12805TIP3    H138358   4.500   0.246   5.189 -1.1570 -1.7659  0.4623
12805TIP3    H238359   4.369   0.319   5.213  0.2844  1.1476 -0.1582
12806TIP3   OH238360   1.710   1.977   3.741 -0.1723 -0.2292  0.3253
12806TIP3    H138361   1.653   2.011   3.811  1.9593  1.4499  1.3700
12806TIP3    H238362   1.712   2.048   3.676 -1.3948 -1.4067 -1.0935
12807TIP3   OH238363   0.357   3.469   4.986 -0.5948 -0.2417  0.4397
12807TIP3    H138364   0.312   3.422   5.057 -1.4785  0.8249  0.6214
12807TIP3    H238365   0.286   3.506   4.934  0.0358 -1.1925 -1.1654
12808TIP3   OH238366   7.192   6.919   1.763  0.0449 -0.1306  0.2405
12808TIP3    H138367   7.259   6.922   1.831  1.7462  2.8766 -1.3121
12808TIP3    H238368   7.110   6.935   1.809  1.1644  2.1375  1.6410
12809TIP3   OH238369   7.795   2.457   6.722  0.5209  0.4605 -0.5355
12809TIP3    H138370   7.712   2.492   6.753  1.1082  0.7883  0.7385
12809TIP3    H238371   7.772   2.397   6.651 -0.5997  2.8745 -2.3749
12810TIP3   OH238372   5.702   7.264   4.662  0.0654 -0.5527  0.1130
12810TIP3    H138373   5.733   7.282   4.573  1.4815  2.2780  1.0623
12810TIP3    H238374   5.609   7.245   4.652  0.1992 -0.3614 -1.9464
12811TIP3   OH238375   7.152   1.714   1.346  0.2115  0.3448  0.2591
12811TIP3    H138376   7.142   1.628   1.387 -0.6096 -0.1374 -0.9296
12811TIP3    H238377   7.214   1.699   1.274  0.1150  0.7694  0.0866
12812TIP3   OH238378   4.023   1.295   5.505  0.3593 -0.3492  0.1278
12812TIP3    H138379   4.004   1.259   5.592  3.9831 -2.2957  0.3194
12812TIP3    H238380   4.086   1.366   5.522  1.7180 -1.2676 -0.8519
12813TIP3   OH238381   0.354   7.146   5.397  0.0271  0.4682  0.6729
12813TIP3    H138382   0.408   7.069   5.380 -0.3346  0.4094 -0.2703
12813TIP3    H238383   0.300   7.155   5.319 -0.9932  0.8058  1.3980
12814TIP3   OH238384   4.895   6.651   4.948 -0.1049 -0.1668  0.2305
12814TIP3    H138385   4.838   6.697   5.010 -0.7876  2.1778 -1.9623
12814TIP3    H238386   4.853   6.665   4.863  1.7183 -1.7348 -0.9995
12815TIP3   OH238387   5.597   2.062   2.044 -0.4762 -0.4425  0.3156
12815TIP3    H138388   5.535   2.123   2.003 -0.5287 -0.8231 -0.1890
12815TIP3    H238389   5.544   1.985   2.065 -0.1271 -0.8750 -0.3579
12816TIP3   OH238390   0.762   2.217   6.565  0.3113  0.4435 -0.1503
12816TIP3    H138391   0.855   2.195   6.557  0.2580 -0.1155  0.6028
12816TIP3    H238392   0.757   2.272   6.643 -0.0098  0.3222 -0.0831
12817TIP3   OH238393   0.645   2.038   0.305 -0.3157 -0.0759 -0.3425
12817TIP3    H138394   0.623   2.081   0.388  0.3623  0.6519 -0.5294
12817TIP3    H238395   0.707   2.097   0.263 -0.1000 -0.7863 -1.0502
12818TIP3   OH238396   2.840   0.820   3.350  0.4244  0.3084  0.0088
12818TIP3    H138397   2.750   0.818   3.318 -0.7716 -1.0272  3.0118
12818TIP3    H238398   2.843   0.896   3.408  0.9779 -0.0687  0.4869
12819TIP3   OH238399   1.359   6.446   4.801  0.0876  0.2414  0.2820
12819TIP3    H138400   1.269   6.475   4.819 -0.4886 -0.4248 -1.3200
12819TIP3    H238401   1.399   6.521   4.757 -0.2940 -0.1147 -0.6946
12820TIP3   OH238402   7.849   1.978   6.513 -0.2446  0.6199 -0.1610
12820TIP3    H138403   7.834   2.002   6.605 -2.1752 -0.0694 -0.2590
12820TIP3    H238404   7.891   1.892   6.518  0.5455  1.0016  0.0629
12821TIP3   OH238405   6.243   2.814   6.114  0.0535 -0.0072 -0.5261
12821TIP3    H138406   6.250   2.815   6.019 -0.4436 -0.0570 -0.5656
12821TIP3    H238407   6.225   2.723   6.136  1.4916 -0.2509 -0.2767
12822TIP3   OH238408   5.424   2.707   6.420  0.2451 -0.1021 -0.3366
12822TIP3    H138409   5.421   2.674   6.510 -0.9408  0.1442 -0.2626
12822TIP3    H238410   5.477   2.643   6.373 -1.1839 -1.6166  0.0156
12823TIP3   OH238411   2.158   4.568   5.247 -0.2836 -0.2680 -0.1618
12823TIP3    H138412   2.201   4.497   5.294  0.9471  0.3721 -0.2955
12823TIP3    H238413   2.199   4.568   5.160 -1.4478 -0.4450 -0.7357
12824TIP3   OH238414   0.188   5.780   6.565 -0.2514 -0.1350 -0.0447
12824TIP3    H138415   0.137   5.861   6.575  0.5251  0.2866  0.6557
12824TIP3    H238416   0.128   5.719   6.523 -0.8544  0.8105 -0.6111
12825TIP3   OH238417   3.110   7.548   0.343 -0.2448 -0.0049 -0.2135
12825TIP3    H138418   3.023   7.507   0.334 -0.8392  1.1741 -0.0257
12825TIP3    H238419   3.148   7.541   0.256  0.3171 -2.2948  0.1399
12826TIP3   OH238420   5.962   0.609   5.879  0.0850 -0.2939  0.3338
12826TIP3    H138421   5.932   0.675   5.816  0.0411 -0.0312  0.6279
12826TIP3    H238422   6.050   0.587   5.850 -0.4950 -1.3075 -0.7298
12827TIP3   OH238423   2.792   5.093   1.920 -0.2985  0.6151  0.2691
12827TIP3    H138424   2.761   5.170   1.969 -0.8121  0.0815  0.8036
12827TIP3    H238425   2.741   5.094   1.839 -1.6026 -0.1275  1.0414
12828TIP3   OH238426   4.214   4.143   4.592  0.2538  0.2612 -0.8193
12828TIP3    H138427   4.265   4.162   4.513 -0.0473  0.2169 -1.0281
12828TIP3    H238428   4.127   4.121   4.559 -0.5072  2.3610 -0.3553
12829TIP3   OH238429   5.788   5.694   2.840 -0.8134  0.0917  0.0430
12829TIP3    H138430   5.703   5.717   2.801 -1.8877 -2.5683  0.5859
12829TIP3    H238431   5.769   5.618   2.895  1.7241  0.2106  1.2108
12830TIP3   OH238432   3.742   2.411   1.755 -0.7217  0.2341  0.0103
12830TIP3    H138433   3.708   2.492   1.793 -0.8968  0.8197 -1.3288
12830TIP3    H238434   3.666   2.352   1.753 -0.8971  0.4634 -0.1309
12831TIP3   OH238435   6.820   7.172   0.715  0.0024 -0.9777 -0.2188
12831TIP3    H138436   6.818   7.203   0.624 -2.4634 -0.8398 -0.1890
12831TIP3    H238437   6.733   7.133   0.728 -0.5390  0.9827  2.7309
12832TIP3   OH238438   7.847   7.461   6.121 -0.5191  0.3930 -0.2496
12832TIP3    H138439   7.841   7.529   6.188 -0.7570  0.4318 -0.3074
12832TIP3    H238440   7.810   7.383   6.162  3.1221 -0.7934  1.1687
12833TIP3   OH238441   2.431   5.690   5.982  0.0956 -0.1198 -0.3420
12833TIP3    H138442   2.381   5.711   5.902  2.0575  1.8530 -1.1729
12833TIP3    H238443   2.385   5.737   6.051  1.0206  2.2495 -1.2083
12834TIP3   OH238444   0.237   3.769   1.969 -0.4026 -0.3021  0.3777
12834TIP3    H138445   0.254   3.863   1.975  1.9998 -0.5991 -0.6285
12834TIP3    H238446   0.152   3.757   2.011 -1.2104  2.4320 -0.3078
12835TIP3   OH238447   1.842   5.335   2.510  0.4890  0.2404 -0.4331
12835TIP3    H138448   1.852   5.367   2.420  1.0222 -1.8391 -1.1823
12835TIP3    H238449   1.749   5.314   2.518  0.2013  1.6149 -0.0493
12836TIP3   OH238450   3.906   1.366   3.052 -0.3035 -0.5020 -0.2369
12836TIP3    H138451   3.823   1.410   3.031  0.0582  0.4735  0.3201
12836TIP3    H238452   3.958   1.376   2.973  0.0387  0.7269  0.1278
12837TIP3   OH238453   4.288   2.950   4.851 -0.1785 -0.0355  0.3763
12837TIP3    H138454   4.349   2.924   4.782 -0.1482  2.7824 -0.7942
12837TIP3    H238455   4.345   2.977   4.924 -0.1138 -0.2603  0.4086
12838TIP3   OH238456   3.251   1.417   2.059  0.7340  0.8459 -0.4535
12838TIP3    H138457   3.245   1.447   2.150 -0.4161  0.2098 -0.3040
12838TIP3    H238458   3.308   1.340   2.063  0.0605  0.3545 -0.1386
12839TIP3   OH238459   1.867   4.434   0.204 -0.4915  0.3734  0.2707
12839TIP3    H138460   1.870   4.469   0.115 -0.0877  1.3687  0.6655
12839TIP3    H238461   1.775   4.444   0.231 -1.0919 -1.7846 -0.7250
12840TIP3   OH238462   2.345   3.111   3.045 -0.1502 -0.1421 -0.0696
12840TIP3    H138463   2.340   3.194   2.998 -2.2242 -0.0028  0.3106
12840TIP3    H238464   2.268   3.063   3.016 -0.8619 -0.5178  2.2837
12841TIP3   OH238465  -0.010   1.704   2.397  0.8531  0.3605 -0.5945
12841TIP3    H138466   0.036   1.638   2.345 -0.1565 -1.4652  0.6938
12841TIP3    H238467   0.017   1.687   2.487 -0.5034  0.7945 -0.0807
12842TIP3   OH238468   7.391   1.748   0.042  0.5130  0.3807  0.3035
12842TIP3    H138469   7.349   1.829   0.072 -0.8520  0.1510 -0.8488
12842TIP3    H238470   7.366   1.682   0.106 -0.2013  0.4392  0.1000
12843TIP3   OH238471   7.524   4.770   5.850  0.2909  0.3060  0.0096
12843TIP3    H138472   7.595   4.832   5.866  1.7726 -1.0177 -1.1384
12843TIP3    H238473   7.455   4.822   5.811  1.0220  1.4608  0.2094
12844TIP3   OH238474   7.057   2.460   0.558 -0.2218  0.0581 -0.7775
12844TIP3    H138475   7.099   2.545   0.571  1.1515 -0.5525 -1.0252
12844TIP3    H238476   7.013   2.442   0.642  0.5572  0.4354 -0.2796
12845TIP3   OH238477   5.205   2.080   4.754 -0.0148 -0.4729 -0.0469
12845TIP3    H138478   5.212   2.176   4.753 -1.5906 -0.3230 -0.9323
12845TIP3    H238479   5.289   2.050   4.721 -0.6174  0.7700 -3.1235
12846TIP3   OH238480   2.933   7.666   4.348 -0.4895 -0.1421 -0.6365
12846TIP3    H138481   2.946   7.580   4.388 -2.4238 -0.1568  0.1004
12846TIP3    H238482   3.018   7.690   4.314  0.5715 -1.4615  0.9249
12847TIP3   OH238483   8.265   0.234   6.136  0.0118  0.4528 -0.6251
12847TIP3    H138484   8.324   0.159   6.141 -0.4928  0.1038  0.2605
12847TIP3    H238485   8.242   0.240   6.043 -0.0763 -0.5899 -0.6828
12848TIP3   OH238486   7.163   2.520   4.648 -0.0247 -0.9531  0.0239
12848TIP3    H138487   7.237   2.509   4.707 -0.0446  0.2419  0.2853
12848TIP3    H238488   7.201   2.559   4.569 -0.1483 -1.6922 -0.4120
12849TIP3   OH238489   5.229   3.746   6.217  0.3920 -0.3609 -0.1055
12849TIP3    H138490   5.232   3.650   6.227 -1.0359 -0.4394 -0.1207
12849TIP3    H238491   5.232   3.759   6.122 -0.5645 -0.4776 -0.1648
12850TIP3   OH238492   5.987   5.857   4.922  0.4490  0.4653 -0.1382
12850TIP3    H138493   5.963   5.782   4.976  2.3886 -0.3791 -0.3637
12850TIP3    H238494   5.914   5.918   4.932 -0.2711 -0.6109  1.6161
12851TIP3   OH238495   1.987   5.906   5.338  0.4705 -0.1137  0.0604
12851TIP3    H138496   1.940   5.950   5.267  0.4631  1.1211  0.8145
12851TIP3    H238497   2.080   5.918   5.316  0.4689 -1.1759 -0.5925
12852TIP3   OH238498   4.983   3.891   6.359 -0.4583  0.1979 -0.1730
12852TIP3    H138499   4.930   3.970   6.350  1.1429  1.5559  1.4799
12852TIP3    H238500   5.017   3.875   6.271 -3.0636 -0.3953 -1.1421
12853TIP3   OH238501   0.440   3.015   5.638  0.1283 -0.8900  0.0698
12853TIP3    H138502   0.463   3.064   5.717  2.1902  2.7986 -2.5234
12853TIP3    H238503   0.362   3.058   5.605 -0.2995 -1.9258 -0.2968
12854TIP3   OH238504   7.505   1.168   5.376  0.3518  0.4464  0.3161
12854TIP3    H138505   7.502   1.169   5.280  1.8155  0.5743  0.2530
12854TIP3    H238506   7.502   1.075   5.399  2.9259  0.1998 -0.0262
12855TIP3   OH238507   0.834   1.346   6.539 -0.0052 -0.1883  0.1798
12855TIP3    H138508   0.749   1.375   6.507 -1.0806 -0.7157  2.3807
12855TIP3    H238509   0.890   1.345   6.461 -2.2764 -0.8904 -1.5412
12856TIP3   OH238510   7.715   5.800   3.590  0.2575  0.2470 -0.4415
12856TIP3    H138511   7.654   5.780   3.660 -1.3797  0.1274 -1.8357
12856TIP3    H238512   7.716   5.896   3.585 -0.0393  0.2452 -0.5802
12857TIP3   OH238513   2.005   4.903   5.459  0.0486  0.5011  0.4686
12857TIP3    H138514   1.922   4.901   5.412 -0.0670 -1.2140  0.6897
12857TIP3    H238515   2.054   4.975   5.418 -0.9879  0.6107 -0.6223
12858TIP3   OH238516   5.456   3.551   3.950  0.0530 -0.5179 -0.2935
12858TIP3    H138517   5.525   3.489   3.976  2.0723  0.4594 -2.9239
12858TIP3    H238518   5.440   3.602   4.030  1.4402 -1.6182  0.7564
12859TIP3   OH238519   1.889   6.097   3.234  0.0789 -0.1628  0.1896
12859TIP3    H138520   1.852   6.175   3.276  2.0859  0.9733 -0.0086
12859TIP3    H238521   1.911   6.126   3.145  2.0343 -0.5256  0.5025
12860TIP3   OH238522   5.244   4.145   4.635  0.4305  0.1137  0.3450
12860TIP3    H138523   5.337   4.163   4.644  0.8956 -1.0630 -1.6049
12860TIP3    H238524   5.210   4.217   4.581  0.3814  0.0965  0.3518
12861TIP3   OH238525   1.794   2.802   6.669  0.4571 -0.6888  0.5181
12861TIP3    H138526   1.702   2.791   6.692  0.2374 -1.1498 -0.5073
12861TIP3    H238527   1.812   2.729   6.610  1.6758 -1.0069  1.2464
12862TIP3   OH238528   1.474   6.007   3.320  0.4252  0.0589 -0.1207
12862TIP3    H138529   1.518   5.944   3.264  0.1382  1.1943 -1.6821
12862TIP3    H238530   1.383   6.008   3.290  0.5716  1.7071 -0.6189
12863TIP3   OH238531   1.945   5.184   0.103 -0.0074 -0.1256 -0.3963
12863TIP3    H138532   2.041   5.184   0.098  0.0259  0.0311  0.1681
12863TIP3    H238533   1.926   5.234   0.183 -0.5795  0.6261 -0.9867
12864TIP3   OH238534   1.263   4.330   2.068  0.3130 -0.1619  0.0638
12864TIP3    H138535   1.171   4.352   2.080  0.6034  0.2896  1.6714
12864TIP3    H238536   1.287   4.370   1.984 -0.6263  0.8479  0.2571
12865TIP3   OH238537   7.605   3.935   3.456 -0.4829  0.0031 -1.1645
12865TIP3    H138538   7.516   3.906   3.439 -1.2153 -1.2139  3.3415
12865TIP3    H238539   7.595   4.011   3.514  1.3917 -0.2490 -0.4245
12866TIP3   OH238540   4.728   6.743   5.266 -0.0006  0.3467 -0.1961
12866TIP3    H138541   4.645   6.759   5.311  1.6051  1.0119  2.7977
12866TIP3    H238542   4.739   6.648   5.269  0.0280  0.3778  0.7491
12867TIP3   OH238543   6.434   7.704   1.960  0.3244 -0.2445 -0.6574
12867TIP3    H138544   6.408   7.795   1.965  0.6184 -0.2158  1.4506
12867TIP3    H238545   6.354   7.655   1.980 -0.0220 -0.5153 -2.5597
12868TIP3   OH238546   7.460   3.228   4.959  0.1539 -0.2402  0.4047
12868TIP3    H138547   7.463   3.263   4.870  0.9601  0.0127  0.5233
12868TIP3    H238548   7.489   3.300   5.015 -0.5527 -0.3224  0.9095
12869TIP3   OH238549   2.682   4.948   2.267  0.0764 -0.3349 -0.0207
12869TIP3    H138550   2.675   4.910   2.179 -0.2396  0.3321 -0.2904
12869TIP3    H238551   2.592   4.969   2.291  0.2339  0.1118  0.1852
12870TIP3   OH238552   7.053   2.103   6.571 -0.1323 -0.0594  0.2644
12870TIP3    H138553   7.054   2.170   6.640 -2.1501 -1.9459  2.2860
12870TIP3    H238554   7.094   2.027   6.611  2.9296  0.0497 -2.2852
12871TIP3   OH238555   1.897   2.991   5.928  0.7935 -0.8452  0.2544
12871TIP3    H138556   1.916   3.057   5.996 -2.8565 -2.0376  2.7561
12871TIP3    H238557   1.833   3.034   5.871  1.6400 -0.8658 -0.7446
12872TIP3   OH238558   1.212   0.357   0.304 -0.3147 -0.4032  0.1541
12872TIP3    H138559   1.208   0.385   0.395  1.1891 -0.3973  0.2575
12872TIP3    H238560   1.248   0.433   0.257 -2.9607  0.3485 -0.8526
12873TIP3   OH238561   6.816   2.535   5.670  0.4474 -0.6238  0.0028
12873TIP3    H138562   6.831   2.446   5.703  1.3525 -0.1276  0.9808
12873TIP3    H238563   6.760   2.523   5.594  1.2701 -2.1193 -0.4119
12874TIP3   OH238564   1.252   4.708   1.576 -0.0774 -0.6815  0.3289
12874TIP3    H138565   1.159   4.718   1.595  0.0653 -1.3610  1.5359
12874TIP3    H238566   1.262   4.735   1.485 -1.3629 -0.1035  0.3429
12875TIP3   OH238567   4.973   5.055   4.979 -0.9646  0.2417  0.0310
12875TIP3    H138568   4.910   5.126   4.991 -0.3724  0.6670  0.7372
12875TIP3    H238569   5.028   5.083   4.907 -1.6986 -0.2231 -0.7220
12876TIP3   OH238570   4.901   0.013   0.603 -0.2819 -0.4301 -0.5825
12876TIP3    H138571   4.941   0.043   0.685 -3.0079 -0.0775  0.7389
12876TIP3    H238572   4.966  -0.045   0.565  2.4119  1.8306  0.1963
12877TIP3   OH238573   1.362   3.739   1.845 -0.3880 -0.1132 -0.4170
12877TIP3    H138574   1.331   3.780   1.926  0.3798  0.7755 -0.5615
12877TIP3    H238575   1.437   3.791   1.818  0.5294 -1.5253 -0.7055
12878TIP3   OH238576   4.360   6.694   3.011 -0.2953  0.4900 -0.0190
12878TIP3    H138577   4.351   6.700   3.106 -0.3852 -1.6601  0.1533
12878TIP3    H238578   4.412   6.771   2.987 -0.9419  1.5143  1.6382
12879TIP3   OH238579   6.364   6.953   5.729 -0.2976 -0.2105  0.8196
12879TIP3    H138580   6.326   7.040   5.718 -0.9903 -0.3933  1.6271
12879TIP3    H238581   6.457   6.968   5.745 -0.4968  0.4075  1.4297
12880TIP3   OH238582   5.007   7.763   3.678 -0.3844  0.5790  0.2560
12880TIP3    H138583   5.020   7.857   3.673  0.2773  0.4322 -1.4306
12880TIP3    H238584   4.912   7.752   3.690 -0.6164  1.4452 -0.7115
12881TIP3   OH238585   7.742   5.934   1.092  0.6022 -0.5302 -0.7842
12881TIP3    H138586   7.832   5.927   1.125  0.2974  0.6972  0.4116
12881TIP3    H238587   7.695   5.864   1.138  0.3337  0.7255  0.9338
12882TIP3   OH238588   0.505   2.222   3.047  0.0028 -0.0676 -0.8381
12882TIP3    H138589   0.509   2.315   3.027  0.4859 -0.1996 -1.3704
12882TIP3    H238590   0.475   2.218   3.138  1.1545  0.6457 -0.4167
12883TIP3   OH238591   5.999   0.304   5.019 -0.3964 -0.3931 -0.6201
12883TIP3    H138592   6.047   0.223   5.000 -1.1185 -0.7085 -1.1386
12883TIP3    H238593   5.935   0.311   4.948 -1.5284 -0.2985  0.3832
12884TIP3   OH238594   0.207   3.999   0.604 -0.0262 -0.0646 -0.1129
12884TIP3    H138595   0.280   3.941   0.622  0.7526  0.4225 -1.5174
12884TIP3    H238596   0.232   4.082   0.644  1.0819  0.6257 -2.0792
12885TIP3   OH238597   1.631   2.404   4.042  0.0080  0.6969  0.9791
12885TIP3    H138598   1.722   2.433   4.043  0.4193 -0.5390  1.5359
12885TIP3    H238599   1.588   2.460   4.106  0.4042  1.1968  0.8192
12886TIP3   OH238600   7.204   4.620   1.495  0.1638  0.0364  0.1404
12886TIP3    H138601   7.132   4.597   1.553 -1.5519  3.9547 -0.0826
12886TIP3    H238602   7.277   4.638   1.554  0.2963 -1.6575  0.5465
12887TIP3   OH238603   6.837   1.259   2.815  0.6749  0.2190 -0.5570
12887TIP3    H138604   6.855   1.338   2.866  0.3493 -0.1412  0.1172
12887TIP3    H238605   6.751   1.275   2.777 -1.9514 -1.8574  3.7477
12888TIP3   OH238606   7.310   3.577   5.671 -1.0149 -0.0237 -0.2996
12888TIP3    H138607   7.378   3.639   5.697  2.0276 -2.5855 -1.5147
12888TIP3    H238608   7.282   3.608   5.585  0.4852 -0.2794 -0.9058
12889TIP3   OH238609   3.357   6.072   1.052  0.0757 -0.2306 -0.2233
12889TIP3    H138610   3.437   6.019   1.049  0.1783 -0.2633  1.5546
12889TIP3    H238611   3.286   6.010   1.038  0.1704 -1.0026  2.2211
12890TIP3   OH238612   1.943   2.148   0.863  0.0660  0.7888 -0.3797
12890TIP3    H138613   1.884   2.112   0.929  1.0516  0.5779  0.3982
12890TIP3    H238614   1.888   2.209   0.814 -0.7305  0.8273  0.5231
12891TIP3   OH238615   4.556   7.547   0.621  0.1128 -0.1466  0.1517
12891TIP3    H138616   4.609   7.487   0.672 -0.5005 -0.7428  0.1027
12891TIP3    H238617   4.602   7.631   0.626  0.4592 -0.3860  1.0276
12892TIP3   OH238618   0.641   3.194   2.550 -0.9007  0.2173  0.1187
12892TIP3    H138619   0.659   3.179   2.457 -0.6075 -0.0662  0.2205
12892TIP3    H238620   0.628   3.107   2.586 -0.7766  0.3109  0.3907
12893TIP3   OH238621   5.644   0.285   2.174 -0.3686  0.8615  0.5160
12893TIP3    H138622   5.636   0.352   2.241 -0.7380  0.3170  1.0191
12893TIP3    H238623   5.732   0.249   2.186  0.1487  1.8030 -0.2854
12894TIP3   OH238624   0.016   0.719   0.111 -0.2219  0.0111 -0.1435
12894TIP3    H138625   0.089   0.731   0.050 -0.4052  0.6751 -0.2442
12894TIP3    H238626  -0.061   0.719   0.055 -0.2548 -1.7173 -0.1504
12895TIP3   OH238627   6.427   3.417   5.669  0.1431  0.0617 -0.2398
12895TIP3    H138628   6.377   3.423   5.750 -0.8922 -0.0417 -0.8541
12895TIP3    H238629   6.413   3.328   5.638  0.7066  0.0339 -0.4338
12896TIP3   OH238630   4.805   0.333   2.941 -0.6003  0.2019 -0.4428
12896TIP3    H138631   4.799   0.246   2.903 -1.3491 -0.9986  2.1382
12896TIP3    H238632   4.898   0.354   2.940 -0.1805 -1.4355  0.4446
12897TIP3   OH238633   4.958   5.889   6.559 -0.0414  0.3063  0.3930
12897TIP3    H138634   4.892   5.828   6.526 -0.6063  0.3283  1.4433
12897TIP3    H238635   4.926   5.976   6.531 -0.6477  0.3478  1.1777
12898TIP3   OH238636   1.453   6.286   4.615 -0.0268  0.6433  0.2130
12898TIP3    H138637   1.438   6.319   4.704  0.8929 -0.3255  0.7612
12898TIP3    H238638   1.419   6.197   4.617  2.0086 -0.2000  0.3213
12899TIP3   OH238639   4.204   1.856   5.633 -0.6021 -0.0520 -0.5475
12899TIP3    H138640   4.221   1.764   5.610  2.6968  0.1583  0.5385
12899TIP3    H238641   4.201   1.901   5.549 -0.8577 -0.9543 -1.0425
12900TIP3   OH238642   0.741   4.857   5.710  0.4788 -0.2720  0.1275
12900TIP3    H138643   0.660   4.810   5.690  0.9021 -1.6853  1.4753
12900TIP3    H238644   0.784   4.802   5.776  0.9135  2.1334  1.9830
12901TIP3   OH238645   6.757   7.047   4.426  0.1971 -0.2370  0.1456
12901TIP3    H138646   6.838   7.008   4.458  1.0478  0.5124 -1.0379
12901TIP3    H238647   6.714   6.977   4.378 -1.7758 -1.8460  3.8086
12902TIP3   OH238648   6.666   3.039   5.202 -0.6681  0.0956  0.0552
12902TIP3    H138649   6.756   3.018   5.230  0.0221  0.2336 -1.9095
12902TIP3    H238650   6.673   3.053   5.107 -2.8394 -0.2331 -0.2010
12903TIP3   OH238651   4.959   4.789   6.096  0.0049  0.4127 -0.7561
12903TIP3    H138652   4.983   4.748   6.179  0.2179  0.5807 -0.7352
12903TIP3    H238653   4.920   4.873   6.121  1.5177  1.1816 -0.8866
12904TIP3   OH238654   3.039   7.515   5.635 -0.3854 -0.3834  0.0554
12904TIP3    H138655   3.084   7.554   5.709 -0.7649 -0.7947  0.5141
12904TIP3    H238656   3.001   7.589   5.587 -1.8739 -0.2174  1.4205
12905TIP3   OH238657   1.318   3.814   5.114 -0.3107  0.0442 -0.1337
12905TIP3    H138658   1.413   3.821   5.127 -0.1950  1.3883 -1.3584
12905TIP3    H238659   1.297   3.724   5.138  0.9605  0.2205  1.8840
12906TIP3   OH238660   8.032   5.319   5.675 -0.0137 -0.3435 -0.3081
12906TIP3    H138661   8.064   5.409   5.675  2.9949 -1.2980 -1.7655
12906TIP3    H238662   7.985   5.310   5.592 -1.2703  0.1077  0.3188
12907TIP3   OH238663   6.615   5.855   5.374 -0.2034 -0.3125 -0.2485
12907TIP3    H138664   6.573   5.922   5.320 -2.2371 -1.8528 -0.6964
12907TIP3    H238665   6.676   5.904   5.429 -2.9449  2.1924  0.8342
12908TIP3   OH238666   6.598   2.637   1.390  0.7314  0.5046  0.5663
12908TIP3    H138667   6.548   2.696   1.334 -0.0862 -0.8197 -0.1529
12908TIP3    H238668   6.577   2.665   1.479 -0.7403  0.4392  0.2707
12909TIP3   OH238669   1.977   2.024   1.277  0.3641  0.6831  0.4085
12909TIP3    H138670   2.062   2.041   1.318  0.8549  0.9480 -0.6692
12909TIP3    H238671   1.980   1.932   1.252  0.1237  0.5593  0.8286
12910TIP3   OH238672   0.896   3.643   4.501  0.4425 -0.0036 -0.3874
12910TIP3    H138673   0.889   3.548   4.505 -1.1568  0.1252  0.6257
12910TIP3    H238674   0.935   3.660   4.415  0.0467 -1.5450 -0.9117
12911TIP3   OH238675   0.883   7.119   0.495  0.7289  0.4102  0.7915
12911TIP3    H138676   0.890   7.194   0.436 -1.0308  0.2906  0.3728
12911TIP3    H238677   0.869   7.044   0.437  3.2321 -0.4323  1.1476
12912TIP3   OH238678   1.610   0.691   1.165 -0.6912 -0.2612 -0.4432
12912TIP3    H138679   1.564   0.746   1.228 -1.5080  0.2873 -1.4918
12912TIP3    H238680   1.546   0.625   1.138 -0.0255 -1.1418  0.0598
12913TIP3   OH238681   0.573   2.006   3.518 -0.8742  0.7785 -0.2684
12913TIP3    H138682   0.584   1.980   3.427 -0.8397  2.1238 -0.6682
12913TIP3    H238683   0.632   1.948   3.567 -1.7204 -0.7090 -0.9537
12914TIP3   OH238684   7.921   0.261   4.583  0.3827  0.3474  0.0897
12914TIP3    H138685   7.901   0.349   4.615  0.0997 -0.0529  1.0399
12914TIP3    H238686   8.010   0.268   4.547 -0.0739  1.2939 -0.9309
12915TIP3   OH238687   0.384   0.905   5.586  0.0490 -0.0098  0.1049
12915TIP3    H138688   0.292   0.899   5.561  0.4472 -1.0469 -1.2109
12915TIP3    H238689   0.387   0.869   5.675 -0.6672 -0.9877 -0.2528
12916TIP3   OH238690   8.287   0.341   0.607 -0.7095 -0.3473 -0.1977
12916TIP3    H138691   8.332   0.384   0.535  1.0521 -0.8077  0.5821
12916TIP3    H238692   8.223   0.406   0.637  0.8751  1.1946 -0.0001
12917TIP3   OH238693   5.951   3.952   5.637 -0.0418 -0.5825 -0.2845
12917TIP3    H138694   5.912   3.936   5.723  1.0025  1.1406  0.5461
12917TIP3    H238695   5.910   3.887   5.580 -2.3940 -0.3458  1.0320
12918TIP3   OH238696   6.589   6.733   6.556  0.1417 -0.4371 -0.0754
12918TIP3    H138697   6.638   6.768   6.630 -1.5785 -1.5810  1.6963
12918TIP3    H238698   6.638   6.657   6.527  1.1314  0.3526 -0.5350
12919TIP3   OH238699   0.459   1.156   5.845 -0.1285  0.2548  0.3498
12919TIP3    H138700   0.374   1.172   5.885 -1.6377  0.4215 -2.6424
12919TIP3    H238701   0.449   1.071   5.802  2.4771 -1.4686  2.8127
12920TIP3   OH238702   3.697   3.153   3.383 -0.3241 -0.0964 -0.1899
12920TIP3    H138703   3.781   3.193   3.404 -0.6901  0.1994  0.7658
12920TIP3    H238704   3.666   3.202   3.307 -0.7279  1.4343  0.9092
12921TIP3   OH238705   7.873   2.711   2.238 -0.2348  0.6769 -0.7730
12921TIP3    H138706   7.938   2.765   2.192  0.4012  0.2578 -0.3924
12921TIP3    H238707   7.897   2.720   2.331 -0.2383 -0.0870 -0.6870
12922TIP3   OH238708   4.571   0.014   0.946 -0.2752 -0.2616 -0.3668
12922TIP3    H138709   4.531   0.073   1.010 -0.5901  0.0439 -0.8486
12922TIP3    H238710   4.664   0.037   0.947  0.1520 -1.7807  1.6469
12923TIP3   OH238711   6.961   1.476   6.345 -0.5746 -0.0389 -0.4001
12923TIP3    H138712   6.896   1.460   6.276 -0.7858 -0.8505 -0.0320
12923TIP3    H238713   6.918   1.446   6.425 -0.4719  1.2428  0.1597
12924TIP3   OH238714   4.107   2.813   1.921 -0.2228  0.4059  0.5525
12924TIP3    H138715   4.071   2.734   1.880  1.0698 -1.8927  3.5161
12924TIP3    H238716   4.174   2.780   1.980  2.5263  4.0270 -0.2663
12925TIP3   OH238717   6.114   6.693   4.086 -0.2810 -0.2582  0.2913
12925TIP3    H138718   6.113   6.705   4.181  0.8936 -0.0763  0.2975
12925TIP3    H238719   6.091   6.778   4.050  0.2921 -0.0422  0.4164
12926TIP3   OH238720   4.203   3.230   4.164 -0.2523  0.5872  0.2744
12926TIP3    H138721   4.213   3.182   4.082  1.4650  1.5085 -0.0971
12926TIP3    H238722   4.109   3.226   4.182 -0.5302 -0.4881 -1.2061
12927TIP3   OH238723   2.666   4.780   2.589  0.2643  0.1309 -0.5418
12927TIP3    H138724   2.689   4.737   2.672  0.3584  0.8435 -0.1962
12927TIP3    H238725   2.588   4.733   2.559 -0.6284  0.7915  0.6738
12928TIP3   OH238726   0.967   3.452   3.613  0.0107  0.2294 -0.5172
12928TIP3    H138727   1.056   3.485   3.623  0.7764 -2.1872  1.3705
12928TIP3    H238728   0.977   3.365   3.576 -1.7062  0.4247 -1.5909
12929TIP3   OH238729   5.168   0.120   0.307 -0.5571  0.4106 -0.0653
12929TIP3    H138730   5.146   0.044   0.254 -1.3519 -0.3176  1.2669
12929TIP3    H238731   5.259   0.140   0.283 -0.0270 -1.4955  0.1570
12930TIP3   OH238732   4.016   1.003   3.925 -0.4735 -0.0584  0.2863
12930TIP3    H138733   4.050   0.962   3.845  0.8942  3.0548 -0.8810
12930TIP3    H238734   3.925   0.973   3.930 -1.4300  1.3875 -3.9053
12931TIP3   OH238735   3.399   6.505   2.590  0.0453 -0.1589 -0.1255
12931TIP3    H138736   3.386   6.534   2.680  0.3724  0.2618 -0.2132
12931TIP3    H238737   3.361   6.575   2.536  1.7587  0.6289 -0.3597
12932TIP3   OH238738   3.342   3.255   5.081  0.6561 -0.1752 -0.8317
12932TIP3    H138739   3.413   3.304   5.122  0.5670  1.0641 -2.0644
12932TIP3    H238740   3.383   3.211   5.006  0.4920 -1.0399 -0.4244
12933TIP3   OH238741   3.194   4.576   3.490 -0.2857  0.6501  0.5703
12933TIP3    H138742   3.147   4.564   3.573  0.0726 -0.1885  0.6623
12933TIP3    H238743   3.236   4.492   3.474 -1.7139  0.2260 -1.3194
12934TIP3   OH238744   5.766   2.148   1.629  0.1488 -0.0119 -0.1035
12934TIP3    H138745   5.702   2.089   1.670 -0.8315  0.6237 -0.6841
12934TIP3    H238746   5.731   2.235   1.644  1.6486  0.4603  0.8378
12935TIP3   OH238747   3.809   5.095   2.778  0.3893  0.3277  0.4677
12935TIP3    H138748   3.792   5.183   2.743 -0.3262 -0.4321 -1.1740
12935TIP3    H238749   3.723   5.064   2.807 -0.1919 -1.3395 -2.6734
12936TIP3   OH238750   6.853   3.328   5.019 -0.1116  0.0354 -0.1182
12936TIP3    H138751   6.875   3.235   5.013 -2.5099 -0.5272 -1.8066
12936TIP3    H238752   6.915   3.371   4.959  1.2170 -0.3787  0.9125
12937TIP3   OH238753   3.204   6.866   3.609  0.5923  0.3574 -0.1132
12937TIP3    H138754   3.124   6.866   3.661  0.7242 -0.0664  0.0950
12937TIP3    H238755   3.222   6.958   3.592  0.5916  0.5049  0.6593
12938TIP3   OH238756   5.867   1.326   5.102  0.6105 -0.6348 -0.3179
12938TIP3    H138757   5.949   1.373   5.114  1.6606 -2.2733 -0.6730
12938TIP3    H238758   5.892   1.247   5.053 -0.9144 -1.9375  0.8911
12939TIP3   OH238759   6.462   2.260   1.861 -0.0223  0.5359 -0.1278
12939TIP3    H138760   6.427   2.210   1.787 -1.6938  0.9385  0.3545
12939TIP3    H238761   6.449   2.352   1.837  0.5185  0.6959  0.1677
12940TIP3   OH238762   3.156   7.159   6.549 -0.1452 -0.4881 -0.7319
12940TIP3    H138763   3.089   7.092   6.539 -0.3352 -0.5725  0.8450
12940TIP3    H238764   3.110   7.233   6.589  0.0362  0.6598 -2.5389
12941TIP3   OH238765   0.549   1.221   4.988 -0.3761 -0.1570 -0.2156
12941TIP3    H138766   0.495   1.297   5.011 -0.8565 -0.5477 -0.0533
12941TIP3    H238767   0.614   1.257   4.928 -1.3494  0.1632 -1.1194
12942TIP3   OH238768   0.613   7.395   0.463 -0.3289 -0.1049  0.0601
12942TIP3    H138769   0.682   7.443   0.417 -0.1972 -1.1790 -0.9178
12942TIP3    H238770   0.654   7.366   0.544 -0.2908  1.0668  0.4710
12943TIP3   OH238771   4.487   3.664   1.726 -0.2139  0.2490  0.1051
12943TIP3    H138772   4.554   3.648   1.659  0.1032 -3.1774  1.0597
12943TIP3    H238773   4.443   3.744   1.697  1.2537  0.0631 -3.0653
12944TIP3   OH238774   4.612   5.356   5.157 -0.1242  0.2243  0.1312
12944TIP3    H138775   4.707   5.354   5.150 -0.0796  1.1042  0.2675
12944TIP3    H238776   4.593   5.309   5.238  0.2130  0.2578  0.2320
12945TIP3   OH238777   1.790   0.823   0.714  0.1909  0.2444 -0.2740
12945TIP3    H138778   1.732   0.749   0.697  0.6934 -0.5513  1.2347
12945TIP3    H238779   1.748   0.870   0.786  2.7345 -2.1146  3.1211
12946TIP3   OH238780   8.057   5.964   0.684  0.1613  0.1364  0.7228
12946TIP3    H138781   8.110   5.940   0.760  0.8868 -0.0786  0.1648
12946TIP3    H238782   8.069   5.891   0.623 -0.1789  0.4408  0.2896
12947TIP3   OH238783   6.109   0.515   5.164 -0.4391  0.6418 -0.7516
12947TIP3    H138784   6.077   0.443   5.109 -1.0022  1.1874 -1.1550
12947TIP3    H238785   6.168   0.565   5.107 -1.1097  1.2733 -0.9063
12948TIP3   OH238786   5.622   1.409   3.076  0.1757  0.1300 -0.2890
12948TIP3    H138787   5.686   1.338   3.084  1.1020  0.7281 -1.7950
12948TIP3    H238788   5.675   1.488   3.072 -0.7836  0.8206  0.3419
12949TIP3   OH238789   5.105   0.462   3.499  0.5655  0.2895  0.7588
12949TIP3    H138790   5.151   0.392   3.452  1.1605  0.0545  1.6622
12949TIP3    H238791   5.030   0.419   3.540 -0.5608  0.6947 -0.8075
12950TIP3   OH238792   0.304   0.074   1.641 -0.3273  0.3615 -0.0753
12950TIP3    H138793   0.314   0.001   1.579  0.7378  0.2582  0.1897
12950TIP3    H238794   0.383   0.126   1.628 -0.8636  1.2246  0.0692
12951TIP3   OH238795   3.808   5.319   6.800  0.1433 -0.0329  0.0707
12951TIP3    H138796   3.805   5.372   6.720  1.9357  0.0589  0.0224
12951TIP3    H238797   3.733   5.260   6.793  0.2775 -0.0354 -1.6715
12952TIP3   OH238798   4.527   6.805   0.575  0.8932 -0.4197  0.9453
12952TIP3    H138799   4.512   6.777   0.485 -0.1905  1.8056  0.3584
12952TIP3    H238800   4.463   6.876   0.589  0.8345 -0.8747  3.5574
12953TIP3   OH238801   2.661   7.770   2.782 -0.9344 -0.3685  0.4766
12953TIP3    H138802   2.628   7.807   2.700 -1.5563  2.7039  1.9533
12953TIP3    H238803   2.751   7.743   2.763 -0.1658  2.6715 -0.6545
12954TIP3   OH238804   4.806   6.136   6.536  0.0526  0.2790 -0.7821
12954TIP3    H138805   4.763   6.144   6.450 -1.4413 -1.6494 -0.2973
12954TIP3    H238806   4.743   6.172   6.598  0.9425  1.2570 -0.4217
12955TIP3   OH238807   3.557   5.948   3.904 -0.3471 -0.2050  0.0016
12955TIP3    H138808   3.592   5.887   3.968 -1.0647  0.2789  0.8813
12955TIP3    H238809   3.463   5.948   3.921 -0.4132  0.7550 -0.3376
12956TIP3   OH238810   3.100   7.546   5.060  0.3207 -0.5239 -0.2051
12956TIP3    H138811   3.032   7.604   5.024  0.7582 -0.4041 -0.8576
12956TIP3    H238812   3.062   7.459   5.053 -1.0384 -0.2318  2.3476
12957TIP3   OH238813   7.407   2.536   2.517  0.5071 -0.0818  0.8358
12957TIP3    H138814   7.337   2.533   2.453  0.1003 -0.1807  1.2815
12957TIP3    H238815   7.383   2.470   2.583  0.6153  0.4249  1.3944
12958TIP3   OH238816   5.430   4.318   2.611  0.1586 -0.5586  0.3295
12958TIP3    H138817   5.384   4.309   2.527 -0.5114 -1.0349  0.7438
12958TIP3    H238818   5.379   4.266   2.672  1.0856 -0.8408  0.8725
12959TIP3   OH238819   3.236   4.852   4.905 -0.2214 -0.2632 -0.4348
12959TIP3    H138820   3.142   4.838   4.895 -0.8468  0.5077  3.1074
12959TIP3    H238821   3.267   4.774   4.952  0.4203  0.5700  0.5560
12960TIP3   OH238822   2.519   4.424   0.326 -0.4541  0.1262 -0.2437
12960TIP3    H138823   2.530   4.462   0.413  2.0053  0.2586 -0.5393
12960TIP3    H238824   2.562   4.338   0.331  1.7273  1.0127 -1.8274
12961TIP3   OH238825   0.084   5.691   1.660  0.2869  0.0976 -0.2700
12961TIP3    H138826   0.058   5.639   1.736  1.9330  0.0782  0.3145
12961TIP3    H238827   0.069   5.782   1.687  0.7852  0.0861  0.0531
12962TIP3   OH238828   7.528   3.107   6.302 -0.0060 -0.0587  0.2339
12962TIP3    H138829   7.548   3.084   6.211  1.0618  0.8550  0.2270
12962TIP3    H238830   7.529   3.203   6.303 -0.2954 -0.0626  1.1514
12963TIP3   OH238831   4.302   3.874   2.658 -0.5326  0.1143  0.2033
12963TIP3    H138832   4.379   3.868   2.601 -1.2818  0.2485 -0.8435
12963TIP3    H238833   4.262   3.787   2.653 -0.3609 -0.0127  0.8983
12964TIP3   OH238834   5.069   4.403   3.125  0.5174  0.2650  0.1021
12964TIP3    H138835   5.109   4.416   3.211 -0.4581 -1.0564  0.8063
12964TIP3    H238836   5.137   4.364   3.071  0.8462  0.1737  0.5837
12965TIP3   OH238837   2.172   6.841   5.591  0.2140  0.1735  0.2882
12965TIP3    H138838   2.077   6.835   5.584  0.3453 -2.2671 -0.1539
12965TIP3    H238839   2.196   6.912   5.530 -1.2027 -0.0849 -0.6103
12966TIP3   OH238840   0.423   4.912   1.496 -0.0441 -0.3039  0.3489
12966TIP3    H138841   0.449   4.879   1.410 -1.7800 -0.7084 -0.0575
12966TIP3    H238842   0.431   5.008   1.488 -0.6320 -0.3084 -0.4309
12967TIP3   OH238843   2.024   3.214   2.856  0.3139 -0.3632  0.2869
12967TIP3    H138844   1.972   3.161   2.917 -1.9298 -0.0591 -1.2299
12967TIP3    H238845   2.009   3.173   2.770  1.4192  0.6500 -0.4210
12968TIP3   OH238846   5.978   6.596   1.341  0.0362  0.5915 -0.3642
12968TIP3    H138847   5.942   6.629   1.423  1.9266  1.1302  0.3081
12968TIP3    H238848   6.014   6.674   1.298 -1.1727  0.3622 -1.8724
12969TIP3   OH238849   4.640   2.693   6.611 -0.1704 -0.2112 -1.0357
12969TIP3    H138850   4.693   2.627   6.656 -0.4664 -0.3730 -0.9181
12969TIP3    H238851   4.698   2.731   6.545  0.0717 -0.4264 -0.9456
12970TIP3   OH238852   7.439   6.257   1.437 -0.0655  0.0748  0.3906
12970TIP3    H138853   7.378   6.256   1.511  1.2746 -1.1758  1.5402
12970TIP3    H238854   7.453   6.350   1.419 -1.0540  0.3917  1.1538
12971TIP3   OH238855   2.179   7.060   4.196  0.8528 -0.0779  0.1569
12971TIP3    H138856   2.178   6.967   4.219 -0.7449 -0.7608 -2.2856
12971TIP3    H238857   2.215   7.104   4.274 -0.3102 -2.4913  2.1969
12972TIP3   OH238858   3.267   7.342   1.392  0.2233 -0.3617  0.1269
12972TIP3    H138859   3.356   7.346   1.358  0.4523 -0.5500  0.6858
12972TIP3    H238860   3.259   7.420   1.447 -0.3455  0.2690 -0.8158
12973TIP3   OH238861   3.138   3.993   4.141  0.0939 -0.2572 -0.0277
12973TIP3    H138862   3.124   4.010   4.234 -0.2970 -0.8166  0.0223
12973TIP3    H238863   3.116   4.075   4.097  0.6058  0.1154  0.3964
12974TIP3   OH238864   1.087   1.951   5.635 -0.8895  0.3787 -0.0389
12974TIP3    H138865   1.129   1.921   5.554 -1.6332  0.3594 -0.4239
12974TIP3    H238866   1.149   2.014   5.672 -1.0073  1.1906 -1.1654
12975TIP3   OH238867   7.356   2.622   1.757  0.1362  0.3136  0.1532
12975TIP3    H138868   7.363   2.545   1.814  0.0207  1.0338  1.1840
12975TIP3    H238869   7.324   2.691   1.815  0.3296  1.1651 -0.7291
12976TIP3   OH238870   6.796   2.853   2.342  0.4713 -0.4041 -0.7840
12976TIP3    H138871   6.771   2.922   2.403  1.6653  0.5298 -1.2827
12976TIP3    H238872   6.867   2.893   2.290  2.0479 -2.4061 -0.2765
12977TIP3   OH238873   4.225   7.195   1.348  0.1642 -0.0359  0.7365
12977TIP3    H138874   4.132   7.212   1.336  0.4125  0.7017 -0.2573
12977TIP3    H238875   4.250   7.142   1.273  0.8293  0.9758  0.2102
12978TIP3   OH238876   1.313   1.967   5.371  0.4005  0.3564  0.3291
12978TIP3    H138877   1.383   2.022   5.407 -0.4934 -0.1404  3.0021
12978TIP3    H238878   1.327   1.971   5.276  1.2235  4.0280  0.4567
12979TIP3   OH238879   6.460   1.161   5.332  0.0768  0.3453 -0.0294
12979TIP3    H138880   6.537   1.156   5.276 -0.3022  1.0960 -0.6447
12979TIP3    H238881   6.493   1.143   5.420  0.8933  0.3198 -0.3336
12980TIP3   OH238882   0.515   6.072   3.048 -0.2636 -0.4378 -0.2943
12980TIP3    H138883   0.491   6.126   2.972 -0.2846  0.1650  0.1365
12980TIP3    H238884   0.450   6.095   3.115 -1.5994 -2.5352 -0.7618
12981TIP3   OH238885   4.487   6.657   3.314 -0.2012 -0.4236 -0.8616
12981TIP3    H138886   4.514   6.569   3.341  1.3521  0.1243 -0.5327
12981TIP3    H238887   4.569   6.705   3.301 -1.0170  1.2153 -0.2798
12982TIP3   OH238888   1.843   6.996   2.413 -0.0925 -0.0547 -0.5654
12982TIP3    H138889   1.828   7.075   2.362 -0.3171 -0.2534 -0.8087
12982TIP3    H238890   1.774   6.936   2.386  0.4364 -0.5581 -0.8409
12983TIP3   OH238891   4.963   0.648   5.240  0.1625 -1.3363 -0.3507
12983TIP3    H138892   4.996   0.600   5.164  1.3803  0.1720 -0.8082
12983TIP3    H238893   5.023   0.721   5.251 -0.4486 -1.0661  1.6009
12984TIP3   OH238894   4.618   3.205   6.007 -0.5007 -0.1683  0.3272
12984TIP3    H138895   4.552   3.193   6.074  1.0707 -0.0665  1.9625
12984TIP3    H238896   4.697   3.164   6.043  0.5973  0.5847 -1.1002
12985TIP3   OH238897   0.953   6.673   1.745  0.3367 -0.2815 -0.0156
12985TIP3    H138898   1.036   6.717   1.733  0.2237 -0.2074 -0.5408
12985TIP3    H238899   0.967   6.585   1.711  0.1590 -0.2213 -0.2498
12986TIP3   OH238900   0.620   1.552   4.876 -0.1665  0.1709  0.3282
12986TIP3    H138901   0.528   1.575   4.886 -0.8685 -2.5750  0.8612
12986TIP3    H238902   0.636   1.557   4.782 -0.8279  0.7116  0.2402
12987TIP3   OH238903   1.237   1.307   0.192 -0.5418 -0.9503  0.2686
12987TIP3    H138904   1.174   1.326   0.124 -0.2100  1.9955  0.6598
12987TIP3    H238905   1.195   1.335   0.273  0.5360 -0.7416  0.7783
12988TIP3   OH238906   3.920   6.520   0.645  0.4792  0.1154 -0.0848
12988TIP3    H138907   3.985   6.541   0.713  0.6107 -1.7586  0.4385
12988TIP3    H238908   3.966   6.538   0.562  1.0481  0.4634  0.2949
12989TIP3   OH238909   8.093   0.499   5.036  0.6522  0.0024  0.7063
12989TIP3    H138910   8.098   0.509   4.941 -2.4558 -0.2827  0.4223
12989TIP3    H238911   8.181   0.472   5.062  1.9434  1.3775 -1.8881
12990TIP3   OH238912   4.919   7.242   3.895  0.0399 -0.1232  0.0309
12990TIP3    H138913   4.994   7.300   3.884 -1.6614  1.8856 -1.7655
12990TIP3    H238914   4.929   7.177   3.825  1.5467 -1.6952  1.5885
12991TIP3   OH238915   7.809   7.362   2.074 -0.6619 -0.4370  0.0098
12991TIP3    H138916   7.718   7.392   2.066 -0.0834  1.2479 -0.5720
12991TIP3    H238917   7.862   7.442   2.065  0.8271 -1.0722  2.1583
12992TIP3   OH238918   3.584   4.807   1.274  0.0746 -0.2954 -0.5723
12992TIP3    H138919   3.493   4.785   1.293  0.5601 -1.7913  0.1876
12992TIP3    H238920   3.582   4.844   1.186 -1.5286  1.6995  0.2152
12993TIP3   OH238921   4.821   1.870   5.585 -0.2141  0.4818 -0.5332
12993TIP3    H138922   4.845   1.946   5.531 -0.3445  0.7247 -0.2480
12993TIP3    H238923   4.840   1.897   5.675  0.4157 -0.0772 -0.4862
12994TIP3   OH238924   3.539   4.185   2.987 -0.1866 -0.1521 -0.3073
12994TIP3    H138925   3.518   4.139   3.068  1.4533 -1.0974 -0.3783
12994TIP3    H238926   3.486   4.141   2.920  1.0507 -1.7215 -0.3038
12995TIP3   OH238927   5.802   6.169   1.374 -0.1780  0.0852 -0.1975
12995TIP3    H138928   5.884   6.218   1.375 -0.2761  0.2950  1.5813
12995TIP3    H238929   5.734   6.237   1.378 -0.5309 -0.0386 -2.5732
12996TIP3   OH238930   4.417   3.503   1.000  0.5643  0.4086  0.6864
12996TIP3    H138931   4.414   3.596   1.022 -1.6924  0.6131 -0.1301
12996TIP3    H238932   4.462   3.500   0.915 -1.5664  1.1539 -0.5642
12997TIP3   OH238933   5.912   2.191   5.028 -0.4615  0.0269  0.4206
12997TIP3    H138934   5.940   2.167   5.117  0.6039 -1.1559 -0.2060
12997TIP3    H238935   5.860   2.116   4.999 -0.0847  0.0295 -0.2733
12998TIP3   OH238936   1.049   4.342   3.516  0.3092 -0.0233  1.0377
12998TIP3    H138937   1.016   4.290   3.442  0.9585 -2.4590  2.3498
12998TIP3    H238938   1.115   4.399   3.478  0.2522 -0.8398 -0.3662
12999TIP3   OH238939   5.266   5.481   6.702  0.4159  0.0473 -0.3519
12999TIP3    H138940   5.190   5.504   6.649  0.8286  0.7129 -0.6605
12999TIP3    H238941   5.248   5.520   6.788  0.0980 -0.3905 -0.2099
13000TIP3   OH238942   3.016   1.605   1.412  0.2677 -0.0082 -0.2390
13000TIP3    H138943   2.960   1.663   1.359  0.9048 -0.0757 -1.0137
13000TIP3    H238944   3.105   1.633   1.390  0.5633 -0.7703 -0.0224
13001TIP3   OH238945   4.101   2.312   3.062  0.2109 -0.0582 -0.0550
13001TIP3    H138946   4.005   2.312   3.060  0.1899 -0.7970  0.3757
13001TIP3    H238947   4.127   2.324   2.971 -0.2864  0.1810 -0.1736
13002TIP3   OH238948   7.687   4.123   2.342 -0.8602 -0.4254  0.9735
13002TIP3    H138949   7.625   4.194   2.354 -2.0141 -1.3686  0.8138
13002TIP3    H238950   7.768   4.153   2.384 -1.0147  1.3555  0.0567
13003TIP3   OH238951   4.471   7.479   4.788  0.5193  0.3166 -0.1072
13003TIP3    H138952   4.532   7.444   4.854 -0.1069 -0.7728 -0.0791
13003TIP3    H238953   4.524   7.486   4.709  0.9037  0.2102  0.1358
13004TIP3   OH238954   5.823   4.000   2.784  0.8051  0.3364 -0.4589
13004TIP3    H138955   5.879   3.967   2.854  1.0121  0.3662 -0.6120
13004TIP3    H238956   5.759   4.055   2.829 -0.3824 -1.3017 -0.0197
13005TIP3   OH238957   1.322   6.522   2.771  0.3589  0.6840 -0.2931
13005TIP3    H138958   1.329   6.617   2.757 -0.1508  0.6408 -0.9014
13005TIP3    H238959   1.233   6.501   2.743 -0.1531  0.2981  1.5249
13006TIP3   OH238960   0.089   6.681   6.483  0.0482  0.2501  0.4367
13006TIP3    H138961   0.049   6.748   6.538  3.1141  1.9755  0.7517
13006TIP3    H238962   0.169   6.656   6.529  0.3130 -1.7532 -0.9715
13007TIP3   OH238963   4.595   2.763   2.170 -0.0225  0.4248 -0.0062
13007TIP3    H138964   4.579   2.698   2.238  1.2898 -1.6467 -1.5343
13007TIP3    H238965   4.558   2.844   2.205 -1.1286 -0.9574  2.2949
13008TIP3   OH238966   2.765   6.491   0.102 -0.4719  0.2797  0.3427
13008TIP3    H138967   2.703   6.446   0.046  0.6790  0.0775 -0.8220
13008TIP3    H238968   2.727   6.578   0.116 -0.7465  0.3635 -0.8435
13009TIP3   OH238969   0.945   4.981   1.286  0.0393  0.3320 -0.5170
13009TIP3    H138970   0.861   5.016   1.314 -1.4512 -0.5329 -3.5009
13009TIP3    H238971   0.959   4.904   1.342 -0.8856  0.7832  0.3526
13010TIP3   OH238972   3.811   4.227   1.430  0.2167 -0.5916  0.0233
13010TIP3    H138973   3.780   4.306   1.474  1.7855  0.5129 -0.7876
13010TIP3    H238974   3.867   4.183   1.495 -0.3875 -0.8887  0.3563
13011TIP3   OH238975   0.050   3.171   4.522 -0.1285 -0.1258  0.6043
13011TIP3    H138976  -0.022   3.218   4.479  1.5201  0.8440 -1.3010
13011TIP3    H238977   0.028   3.078   4.511 -0.3835  0.1206 -1.3391
13012TIP3   OH238978   4.198   2.173   5.878  0.2043  0.3850 -0.3309
13012TIP3    H138979   4.102   2.182   5.876  0.1925  0.1887 -1.1857
13012TIP3    H238980   4.214   2.098   5.934 -0.0938  0.9574  0.5373
13013TIP3   OH238981   4.202   0.440   4.431 -0.8614 -0.4029  0.2971
13013TIP3    H138982   4.193   0.478   4.343 -1.1362 -1.6002 -0.2050
13013TIP3    H238983   4.295   0.418   4.439 -0.7148  0.2796  0.5624
13014TIP3   OH238984   3.802   3.175   5.129 -0.2232  0.0729 -0.4066
13014TIP3    H138985   3.767   3.138   5.048 -0.6206 -1.4091  0.4059
13014TIP3    H238986   3.766   3.119   5.198  0.9117  0.6962  0.7250
13015TIP3   OH238987   3.645   0.314   3.667  0.2804  0.2445 -0.6004
13015TIP3    H138988   3.630   0.294   3.575 -1.3060  0.7325 -0.4707
13015TIP3    H238989   3.561   0.346   3.699  1.4782  2.7088  0.3453
13016TIP3   OH238990   6.076   5.718   3.868 -0.2994 -0.3197 -0.3728
13016TIP3    H138991   6.120   5.643   3.828 -0.3165 -1.1985  1.1850
13016TIP3    H238992   6.051   5.688   3.955 -0.5575  1.4186  0.1952
13017TIP3   OH238993   4.280   4.542   1.498 -0.2987  0.8228  0.2015
13017TIP3    H138994   4.292   4.623   1.449 -2.9129  1.7001  0.8916
13017TIP3    H238995   4.186   4.525   1.495 -0.3388 -0.0484  3.4006
13018TIP3   OH238996   4.311   7.254   0.200 -0.2168 -0.2493  0.5223
13018TIP3    H138997   4.225   7.216   0.187 -0.2500 -0.3169  0.9324
13018TIP3    H238998   4.299   7.318   0.270 -0.8176  2.6668 -2.0350
13019TIP3   OH238999   4.890   4.386   5.772  0.2603  0.4168  0.1607
13019TIP3    H139000   4.983   4.364   5.771 -0.0262 -0.8575 -0.2533
13019TIP3    H239001   4.848   4.311   5.814 -0.6308  0.7419 -0.1341
13020TIP3   OH239002   7.912   4.018   4.175 -0.0052  0.4019 -0.1374
13020TIP3    H139003   7.878   4.025   4.086 -1.6306 -2.3846  0.1550
13020TIP3    H239004   7.996   3.972   4.166  0.0743  0.5750 -0.2714
13021TIP3   OH239005   7.082   3.166   5.886  0.1001  0.0480  0.0758
13021TIP3    H139006   7.014   3.136   5.947  0.1005  0.7179  0.4169
13021TIP3    H239007   7.156   3.190   5.943  0.8781 -1.2740 -0.3223
13022TIP3   OH239008   3.244   4.955   5.272 -0.1754  0.8014  0.4170
13022TIP3    H139009   3.162   4.981   5.315 -0.0848 -0.2648  1.2568
13022TIP3    H239010   3.309   4.958   5.342  0.8140  2.8678 -0.4955
13023TIP3   OH239011   6.868   1.985   3.958 -0.3058 -0.7759  0.1719
13023TIP3    H139012   6.956   1.948   3.971 -0.4384 -1.6104 -1.1134
13023TIP3    H239013   6.884   2.074   3.926  0.0708 -0.8679  0.0947
13024TIP3   OH239014   0.083   3.256   6.659 -0.0490 -0.2467  0.1767
13024TIP3    H139015   0.073   3.314   6.734  0.1766 -0.2383  0.2007
13024TIP3    H239016   0.177   3.256   6.641 -0.0726 -0.4413  0.0473
13025TIP3   OH239017   0.336   5.549   4.365 -0.1999  0.0255  0.0794
13025TIP3    H139018   0.331   5.645   4.359  1.5267  0.2245  1.1817
13025TIP3    H239019   0.258   5.524   4.416  0.0588  0.9972  0.9866
13026TIP3   OH239020   5.610   5.469   5.130 -0.3193 -0.6083 -0.2959
13026TIP3    H139021   5.697   5.498   5.158  0.0112 -0.9856 -0.9300
13026TIP3    H239022   5.552   5.500   5.200  0.2409  0.1462 -0.1481
13027TIP3   OH239023   6.626   4.170   5.457 -0.1880  0.6850  0.6109
13027TIP3    H139024   6.538   4.183   5.491 -0.5660 -2.5248  1.1243
13027TIP3    H239025   6.684   4.196   5.529 -0.7475  1.0737  0.9234
13028TIP3   OH239026   6.204   7.306   2.565 -0.0475 -0.8792  0.0665
13028TIP3    H139027   6.192   7.314   2.660 -2.1524 -0.1827 -0.1902
13028TIP3    H239028   6.298   7.303   2.553  0.3337  0.5100  2.0945
13029TIP3   OH239029   5.168   2.342   4.505  0.0340 -0.2278 -0.8166
13029TIP3    H139030   5.184   2.436   4.495  0.7934 -0.5180 -2.8292
13029TIP3    H239031   5.090   2.337   4.560  1.1403  1.5129  1.0308
13030TIP3   OH239032   1.896   2.643   4.381 -0.2693  0.6432 -0.1309
13030TIP3    H139033   1.809   2.609   4.361  0.0152  0.3995 -0.9935
13030TIP3    H239034   1.883   2.699   4.457 -0.5047 -2.6020  2.4453
13031TIP3   OH239035   3.121   5.445   4.221  0.3561 -0.3210  0.4740
13031TIP3    H139036   3.138   5.517   4.161  0.5020 -0.6107  0.1618
13031TIP3    H239037   3.197   5.387   4.211  1.1193  0.3457  2.0294
13032TIP3   OH239038   5.871   6.537   2.139 -0.1859 -0.0350 -0.5517
13032TIP3    H139039   5.858   6.625   2.174  1.1536  1.0511 -2.5900
13032TIP3    H239040   5.924   6.492   2.205  0.0394  1.0569  0.0258
13033TIP3   OH239041   8.220   5.365   0.777 -0.0534 -0.5446  0.2483
13033TIP3    H139042   8.225   5.270   0.788  0.3702 -0.5436  0.0536
13033TIP3    H239043   8.305   5.390   0.742 -0.9006 -0.3614 -1.8289
13034TIP3   OH239044   4.915   6.520   6.019 -0.3146 -0.2842 -0.7459
13034TIP3    H139045   4.962   6.443   5.987  0.8714 -0.0678  0.3759
13034TIP3    H239046   4.898   6.500   6.111 -0.6510  0.4851 -0.6361
13035TIP3   OH239047   8.109   1.227   5.782 -0.4036 -0.7540  0.0422
13035TIP3    H139048   8.055   1.265   5.852 -0.5125  0.3912 -0.6368
13035TIP3    H239049   8.071   1.261   5.701 -0.4554 -2.2856 -0.6199
13036TIP3   OH239050   2.657   5.401   0.317  0.5013 -0.2298  0.1324
13036TIP3    H139051   2.601   5.333   0.279 -0.1679  0.1384  0.4329
13036TIP3    H239052   2.727   5.353   0.362 -1.6283 -0.9434  3.0352
13037TIP3   OH239053   1.667   3.394   1.369  0.0847 -0.0891 -0.3731
13037TIP3    H139054   1.665   3.435   1.456  3.1120 -1.2129  0.3461
13037TIP3    H239055   1.703   3.460   1.311  1.2728 -0.4156 -0.0282
13038TIP3   OH239056   3.939   2.642   0.695  0.3682 -0.1004  0.2362
13038TIP3    H139057   3.855   2.675   0.662  0.3733 -0.4188 -0.0986
13038TIP3    H239058   4.004   2.695   0.650  0.3870 -0.7670 -0.5459
13039TIP3   OH239059   2.089   5.768   6.409  0.1611 -0.5206 -0.5786
13039TIP3    H139060   2.133   5.853   6.412 -1.1533  0.2036 -1.0377
13039TIP3    H239061   2.111   5.727   6.492 -0.2746  0.8327  0.2383
13040TIP3   OH239062   4.086   0.590   3.702 -0.4448 -0.5503 -0.0744
13040TIP3    H139063   4.093   0.668   3.648  0.6803  0.1143  0.9879
13040TIP3    H239064   4.003   0.600   3.749 -0.0587  0.3071  0.4608
13041TIP3   OH239065   7.662   6.899   0.451 -0.1321  0.2711  0.0998
13041TIP3    H139066   7.619   6.880   0.535  1.3987  0.1102  0.8940
13041TIP3    H239067   7.725   6.968   0.472  0.2553  0.2437 -0.9372
13042TIP3   OH239068   1.048   1.628   1.060 -0.0802  0.1992  0.0035
13042TIP3    H139069   0.993   1.570   1.007 -0.3474 -0.4048  0.9180
13042TIP3    H239070   1.075   1.573   1.134  1.8878  0.4151 -0.5005
13043TIP3   OH239071   3.858   4.895   5.043 -0.1588 -0.5339 -0.1140
13043TIP3    H139072   3.950   4.877   5.060  0.4352  1.3450 -1.1345
13043TIP3    H239073   3.821   4.915   5.129  0.2227 -1.7636  0.3722
13044TIP3   OH239074   1.296   2.979   6.294 -0.4151  0.0006  0.0219
13044TIP3    H139075   1.378   3.020   6.321 -0.0196 -1.2037  0.7201
13044TIP3    H239076   1.247   3.049   6.251 -1.1809  2.1669  3.9307
13045TIP3   OH239077   1.012   7.774   6.694 -0.2327  0.0388  0.1336
13045TIP3    H139078   1.077   7.836   6.661  0.1445 -0.5777 -0.2934
13045TIP3    H239079   0.930   7.803   6.653  0.1163 -0.3177 -0.8407
13046TIP3   OH239080   6.400   0.670   3.441 -0.4506 -0.0241  0.1807
13046TIP3    H139081   6.335   0.612   3.401  0.8839 -0.4130 -1.5158
13046TIP3    H239082   6.423   0.626   3.523 -0.8316 -0.9474 -0.1872
13047TIP3   OH239083   7.354   0.643   1.555  0.1523  0.2190  0.2078
13047TIP3    H139084   7.311   0.559   1.564 -0.6007  0.5391 -0.3026
13047TIP3    H239085   7.339   0.687   1.639 -0.3537  0.2523  0.1003
13048TIP3   OH239086   1.778   0.569   2.508  0.0700  0.2911 -0.1919
13048TIP3    H139087   1.784   0.523   2.592  0.9608  2.2139  0.8566
13048TIP3    H239088   1.715   0.639   2.523 -0.0994  0.4023 -1.2905
13049TIP3   OH239089   2.970   5.773   5.436  0.8721  0.0316  0.1499
13049TIP3    H139090   3.041   5.710   5.448 -0.3174 -1.2560  0.6267
13049TIP3    H239091   2.901   5.745   5.496 -0.4926  0.5792 -1.0746
13050TIP3   OH239092   1.255   6.545   5.891 -0.3810  0.3980  0.4279
13050TIP3    H139093   1.204   6.494   5.954 -0.8437 -0.2561 -0.4672
13050TIP3    H239094   1.311   6.601   5.946 -1.5120  0.6004  1.4250
13051TIP3   OH239095   5.432   2.829   4.420 -0.2427  0.2489 -0.3539
13051TIP3    H139096   5.465   2.856   4.506 -0.9322 -1.4300  0.4890
13051TIP3    H239097   5.508   2.835   4.362  1.0186 -1.2748  1.0276
13052TIP3   OH239098   1.618   6.191   0.034  0.0220 -0.0064  0.6576
13052TIP3    H139099   1.686   6.249   0.001  0.5087 -0.6484  0.5273
13052TIP3    H239100   1.623   6.199   0.129 -0.4712  0.7931  0.6308
13053TIP3   OH239101   3.205   0.674   5.922 -0.2630  0.3146  0.3686
13053TIP3    H139102   3.249   0.669   5.837 -0.8954 -1.2483  0.1122
13053TIP3    H239103   3.268   0.639   5.984 -0.1815  0.5029  0.3926
13054TIP3   OH239104   5.037   5.574   3.609  0.3250  0.1857  0.2206
13054TIP3    H139105   4.965   5.596   3.669 -0.9790 -0.7889 -0.9210
13054TIP3    H239106   5.013   5.618   3.527  0.2958 -1.2497 -0.5704
13055TIP3   OH239107   4.235   0.777   6.724  0.1349  0.1601 -0.6770
13055TIP3    H139108   4.215   0.684   6.732 -0.7184  0.3530 -0.4676
13055TIP3    H239109   4.313   0.780   6.669 -0.2083 -0.6508 -1.2305
13056TIP3   OH239110   3.248   3.308   0.234 -0.0948 -0.0311 -0.2642
13056TIP3    H139111   3.298   3.266   0.163  0.5105  0.4099 -0.1031
13056TIP3    H239112   3.262   3.250   0.309 -0.2036 -0.1535 -0.3374
13057TIP3   OH239113   2.571   2.030   0.261  0.1049 -0.0765  0.1024
13057TIP3    H139114   2.634   1.958   0.272  0.6597  0.3878  0.0121
13057TIP3    H239115   2.555   2.062   0.349  3.1561  2.4572 -0.0732
13058TIP3   OH239116   7.669   1.260   3.314 -0.1411  0.1400 -0.2104
13058TIP3    H139117   7.582   1.228   3.289  0.0477 -0.5965  0.0399
13058TIP3    H239118   7.695   1.318   3.243  0.1417 -1.4708 -1.4945
13059TIP3   OH239119   1.926   3.871   5.810  0.0687 -0.1653 -0.2650
13059TIP3    H139120   1.976   3.801   5.853  0.6015 -0.1259 -0.8057
13059TIP3    H239121   1.959   3.951   5.850  0.8495 -0.1007 -1.0011
13060TIP3   OH239122   1.276   5.750   3.692  0.1886 -0.5306 -0.2892
13060TIP3    H139123   1.286   5.808   3.767 -3.0394  1.0944 -0.9220
13060TIP3    H239124   1.257   5.664   3.730 -3.7238  0.6925  1.0395
13061TIP3   OH239125   7.864   7.846   6.088 -0.5866  0.1443 -0.0261
13061TIP3    H139126   7.797   7.802   6.035 -0.7090  0.5970 -0.2544
13061TIP3    H239127   7.898   7.778   6.145  1.8167 -1.2556 -2.8671
13062TIP3   OH239128   6.256   2.141   6.203 -0.1392  0.0417 -0.1672
13062TIP3    H139129   6.200   2.194   6.259  0.2675 -0.8479  1.1297
13062TIP3    H239130   6.285   2.200   6.134 -1.3093  0.9529  0.0972
13063TIP3   OH239131   6.035   1.129   1.282 -0.0390  0.4685 -0.1499
13063TIP3    H139132   6.126   1.158   1.278  0.5525 -1.4131 -1.7072
13063TIP3    H239133   5.991   1.195   1.336  1.6490  2.9340 -1.5972
13064TIP3   OH239134   5.064   6.867   0.575  0.4687 -0.6800 -0.1821
13064TIP3    H139135   5.132   6.803   0.596  1.4050  0.6000  0.9085
13064TIP3    H239136   5.096   6.911   0.496 -0.4811 -1.9380 -1.3037
13065TIP3   OH239137   1.724   4.484   2.955  0.6637 -0.5342  0.3583
13065TIP3    H139138   1.633   4.487   2.925  0.4380  2.6885  1.1033
13065TIP3    H239139   1.773   4.451   2.879 -0.8970 -0.6502 -0.6445
13066TIP3   OH239140   3.709   7.669   6.666  0.4385 -0.1486  0.1361
13066TIP3    H139141   3.659   7.709   6.595 -0.2185 -1.2211 -0.0332
13066TIP3    H239142   3.748   7.591   6.627  0.0787 -0.7461  0.9270
13067TIP3   OH239143   8.194   6.227   0.600  0.1989 -0.1857  0.3665
13067TIP3    H139144   8.137   6.280   0.656  0.5977  1.4370 -0.6743
13067TIP3    H239145   8.151   6.142   0.594 -0.1205 -0.2421  2.6638
13068TIP3   OH239146   1.000   1.678   2.378 -0.5597  0.1310 -0.8613
13068TIP3    H139147   1.012   1.690   2.472  0.3685  0.3274 -1.0000
13068TIP3    H239148   0.927   1.616   2.371  1.2308 -2.2361  0.0632
13069TIP3   OH239149   6.620   3.556   5.551  0.1774 -0.4710 -0.1848
13069TIP3    H139150   6.608   3.646   5.582  2.7553 -0.4453  1.0428
13069TIP3    H239151   6.539   3.511   5.574 -0.9429  1.3933 -0.3163
13070TIP3   OH239152   4.527   2.932   5.126  0.3782  0.0619 -0.3188
13070TIP3    H139153   4.528   2.878   5.206 -0.7466 -1.3946 -1.2205
13070TIP3    H239154   4.527   3.022   5.158 -0.1447 -0.4842  1.3455
13071TIP3   OH239155   4.244   4.372   1.123  0.5578  0.2834  0.8323
13071TIP3    H139156   4.182   4.353   1.194  0.3638  1.8426  1.1044
13071TIP3    H239157   4.188   4.393   1.048  0.6865 -3.6017 -0.5734
13072TIP3   OH239158   6.962   2.391   2.642 -0.0993 -0.0111 -0.7395
13072TIP3    H139159   6.995   2.385   2.553  0.5332 -1.6548 -0.4373
13072TIP3    H239160   6.925   2.304   2.660 -0.3210  0.3232  0.5506
13073TIP3   OH239161   8.314   4.152   2.563  0.4399  0.5407  0.2923
13073TIP3    H139162   8.258   4.208   2.617 -0.7547  1.1899 -1.5632
13073TIP3    H239163   8.282   4.163   2.474  1.5957 -1.4389 -0.4330
13074TIP3   OH239164   2.036   4.556   2.918 -0.1002 -0.2032 -0.5992
13074TIP3    H139165   1.989   4.602   2.849  0.5481  0.7598 -0.4063
13074TIP3    H239166   2.054   4.622   2.984 -0.3917 -1.0353  0.3462
13075TIP3   OH239167   8.121   6.888   3.308  0.1397 -0.1337  0.3449
13075TIP3    H139168   8.183   6.837   3.360  1.7226  0.9442 -0.4008
13075TIP3    H239169   8.066   6.931   3.374 -1.7945 -3.2954  0.9926
13076TIP3   OH239170   6.006   6.743   5.540  0.4861  0.0783  0.8078
13076TIP3    H139171   5.937   6.690   5.579  0.3229  0.5587  1.1942
13076TIP3    H239172   6.068   6.757   5.612 -0.1712  1.5747  1.1403
13077TIP3   OH239173   2.380   5.711   2.363  0.0179  0.3101  0.4863
13077TIP3    H139174   2.361   5.798   2.327  0.6873 -0.1370 -1.0007
13077TIP3    H239175   2.371   5.651   2.289 -1.4553 -1.0598  1.7017
13078TIP3   OH239176   2.284   5.993  -0.011 -0.1354  0.3689 -0.5475
13078TIP3    H139177   2.222   6.055  -0.049 -0.4576  0.6573  0.4135
13078TIP3    H239178   2.240   5.961   0.068  1.5027  1.6725  0.9821
13079TIP3   OH239179   6.642   3.320   2.083  0.2312  0.2679  0.8795
13079TIP3    H139180   6.588   3.249   2.119  0.7335 -0.7225 -0.2604
13079TIP3    H239181   6.603   3.337   1.997  2.0475 -0.8887 -0.2388
13080TIP3   OH239182   2.334   7.687   4.280  0.4162  0.6603  0.0345
13080TIP3    H139183   2.391   7.651   4.348 -0.1364  1.0071  0.6934
13080TIP3    H239184   2.318   7.777   4.307 -1.5477  0.1873  0.6304
13081TIP3   OH239185   5.933   0.898   2.886 -0.0241  0.2313 -0.0181
13081TIP3    H139186   6.016   0.892   2.933 -1.1073  1.6437  2.2208
13081TIP3    H239187   5.950   0.957   2.813  0.9278  0.5482  0.4521
13082TIP3   OH239188   7.465   0.305   2.883 -0.5496  0.8264  0.2027
13082TIP3    H139189   7.536   0.246   2.908 -0.6892  0.2878 -0.6599
13082TIP3    H239190   7.388   0.272   2.930 -0.3835  1.0319  0.6332
13083TIP3   OH239191   1.343   4.420   3.376  0.3217 -0.3848  0.0745
13083TIP3    H139192   1.411   4.480   3.343  0.5256 -1.2764 -1.1753
13083TIP3    H239193   1.365   4.335   3.338 -2.7635 -0.2910 -2.3185
13084TIP3   OH239194   3.850   3.790   1.719 -0.0534 -0.1999  0.0756
13084TIP3    H139195   3.933   3.837   1.729  0.3456 -0.8702  0.0206
13084TIP3    H239196   3.785   3.858   1.704  0.9076  0.2158 -2.6313
13085TIP3   OH239197   7.804   4.180   5.514  0.0249 -0.5030  0.2750
13085TIP3    H139198   7.828   4.192   5.422 -0.3996 -0.4411  0.1717
13085TIP3    H239199   7.808   4.269   5.550  2.0614 -0.7545  0.7852
13086TIP3   OH239200   1.818   4.001   1.713 -0.2281 -0.2591  0.2180
13086TIP3    H139201   1.862   3.921   1.742  0.7977  0.1976 -0.0585
13086TIP3    H239202   1.771   3.974   1.634  0.4305 -0.5076 -0.1005
13087TIP3   OH239203   3.810   5.563   2.259 -0.2062 -0.4518 -0.0220
13087TIP3    H139204   3.748   5.499   2.225 -0.2143 -0.9311  0.8583
13087TIP3    H239205   3.854   5.599   2.182 -0.2169 -1.5057 -0.5243
13088TIP3   OH239206   7.962   3.294   6.276 -0.0018  0.4398 -0.1362
13088TIP3    H139207   8.044   3.271   6.320 -0.5622 -0.1779  0.6059
13088TIP3    H239208   7.966   3.389   6.265  1.2016  0.3235 -0.8990
13089TIP3   OH239209   3.971   3.423   2.156  0.8027  0.0386  0.0474
13089TIP3    H139210   4.016   3.455   2.078  0.6335  2.4927  0.8568
13089TIP3    H239211   3.878   3.425   2.132  0.8701 -1.2982 -0.3682
13090TIP3   OH239212   7.810   4.754   1.280  0.2521 -0.4116 -0.4682
13090TIP3    H139213   7.717   4.734   1.293 -0.2405  0.7841 -1.9008
13090TIP3    H239214   7.816   4.849   1.289  1.3286 -0.4573 -0.5484
13091TIP3   OH239215   6.467   5.967   3.072 -0.2362  0.5526  0.0572
13091TIP3    H139216   6.552   6.006   3.052 -1.5020  4.1320  1.0157
13091TIP3    H239217   6.414   5.984   2.995 -0.0624 -2.1780 -0.7745
13092TIP3   OH239218   6.212   5.320   4.556  0.0338 -0.0941 -0.1409
13092TIP3    H139219   6.235   5.324   4.649  0.4359  0.0889 -0.2473
13092TIP3    H239220   6.226   5.409   4.524 -2.6119  0.5308  0.1978
13093TIP3   OH239221   1.449   1.793   3.189 -0.1398 -0.1493 -0.1953
13093TIP3    H139222   1.471   1.820   3.278  1.6809 -1.5430 -0.1691
13093TIP3    H239223   1.375   1.733   3.200 -1.0341  0.9646  0.1665
13094TIP3   OH239224   6.258   4.592   0.124 -0.5551  0.0043 -0.2267
13094TIP3    H139225   6.295   4.504   0.118 -0.9692 -0.2385  0.5910
13094TIP3    H239226   6.210   4.592   0.207  2.0185  1.9578  1.4499
13095TIP3   OH239227   1.582   1.988   2.015 -0.2072  0.2225 -0.0030
13095TIP3    H139228   1.586   1.893   2.012 -0.6033  0.2357 -1.5801
13095TIP3    H239229   1.655   2.017   1.960 -1.3642  0.7922 -1.2759
13096TIP3   OH239230   0.744   5.702  -0.020  0.0419 -0.6931  0.4438
13096TIP3    H139231   0.786   5.740   0.058  2.5103 -0.8653 -0.6909
13096TIP3    H239232   0.656   5.740  -0.021  0.5797  0.7587  2.2869
13097TIP3   OH239233   2.856   7.720   5.553  0.4647 -0.4703 -0.5264
13097TIP3    H139234   2.869   7.779   5.627 -1.0729 -0.4969 -0.1957
13097TIP3    H239235   2.922   7.746   5.489  1.3742  0.0087  0.5711
13098TIP3   OH239236   3.410   6.120   6.494 -0.2008  0.4948 -0.9191
13098TIP3    H139237   3.336   6.136   6.552 -0.8101 -2.2415 -0.7893
13098TIP3    H239238   3.388   6.039   6.449  3.4899 -1.5926  0.5689
13099TIP3   OH239239   8.004   3.063   5.261  0.9535 -0.3354  0.3453
13099TIP3    H139240   8.014   2.970   5.281  2.1158 -0.0917  0.9702
13099TIP3    H239241   8.051   3.108   5.331  0.4374  0.7258  0.0276
13100TIP3   OH239242   2.996   5.470   0.378 -0.6233  0.5535 -0.1816
13100TIP3    H139243   2.932   5.447   0.310 -0.2463 -1.2500  0.0329
13100TIP3    H239244   2.963   5.429   0.458  1.5459 -1.8446 -0.3815
13101TIP3   OH239245   2.225   2.920   5.155  0.6444  0.2916  0.0891
13101TIP3    H139246   2.299   2.980   5.141  0.7577  0.2508  0.5048
13101TIP3    H239247   2.179   2.957   5.230 -0.5163  1.0612 -0.9541
13102TIP3   OH239248   2.776   1.333   6.097 -0.4689  0.3711 -0.0681
13102TIP3    H139249   2.801   1.293   6.014  0.2563  1.3945 -0.3647
13102TIP3    H239250   2.727   1.411   6.071 -0.7075  0.4024  0.4734
13103TIP3   OH239251   5.438   1.578   1.729 -0.4435  0.0242  0.4449
13103TIP3    H139252   5.507   1.596   1.666 -0.3472 -0.8957  0.2733
13103TIP3    H239253   5.412   1.664   1.762 -1.1737  0.6335 -1.5588
13104TIP3   OH239254   2.219   0.260   4.429 -0.2169  0.1741  0.2899
13104TIP3    H139255   2.155   0.216   4.373 -0.7921 -0.2583  1.2709
13104TIP3    H239256   2.215   0.352   4.401 -0.8416  0.0477 -0.0697
13105TIP3   OH239257   5.709   1.922   1.795 -0.0325  0.2709  0.1617
13105TIP3    H139258   5.673   1.958   1.875 -0.6257 -0.7309  0.3528
13105TIP3    H239259   5.771   1.855   1.824 -0.3498 -0.1911 -0.2188
13106TIP3   OH239260   0.023   4.922   4.920 -0.2911 -0.1814 -0.3173
13106TIP3    H139261   0.071   4.976   4.984  0.4761 -1.0933 -0.0979
13106TIP3    H239262  -0.020   4.855   4.973 -1.3664  0.2883 -0.5772
13107TIP3   OH239263   4.956   3.321   1.665  0.2457  0.0682  0.5809
13107TIP3    H139264   5.022   3.300   1.599  1.2347 -0.4782  1.6923
13107TIP3    H239265   4.884   3.261   1.647  0.2726  0.2914 -0.3165
13108TIP3   OH239266   3.126   2.517   6.449 -0.1224  0.1023  0.5959
13108TIP3    H139267   3.125   2.611   6.463 -0.5365  0.3310 -0.7945
13108TIP3    H239268   3.188   2.483   6.513 -0.5960  1.2181  1.6741
13109TIP3   OH239269   4.278   7.752   1.353 -0.3393 -0.0160  0.2530
13109TIP3    H139270   4.244   7.836   1.323 -0.0841  0.5100  1.3802
13109TIP3    H239271   4.233   7.687   1.299 -1.7065  0.7617  0.4157
13110TIP3   OH239272   4.704   7.041   4.253  0.6569  0.9081  0.0746
13110TIP3    H139273   4.624   7.076   4.293  0.1007  1.1021 -1.1595
13110TIP3    H239274   4.706   6.949   4.280  0.6052  1.1722  1.0048
13111TIP3   OH239275   5.683   3.770   2.818 -0.5813 -0.2537  0.2798
13111TIP3    H139276   5.709   3.690   2.772 -0.6459  0.2956 -0.7557
13111TIP3    H239277   5.726   3.840   2.769 -0.6099  0.3578  1.1105
13112TIP3   OH239278   7.195   0.660   6.481  0.9907  0.6196 -0.1669
13112TIP3    H139279   7.148   0.742   6.469 -1.3330 -0.5508  0.5073
13112TIP3    H239280   7.202   0.623   6.393 -3.2504 -1.1492  0.0030
13113TIP3   OH239281   7.093   1.685   5.606  0.3268 -0.1493  0.5062
13113TIP3    H139282   7.168   1.701   5.663 -0.7518  1.6447  1.4962
13113TIP3    H239283   7.089   1.763   5.550  1.7391 -2.0945 -2.6054
13114TIP3   OH239284   5.557   6.649   3.456  0.2636 -0.3467  0.1021
13114TIP3    H139285   5.546   6.569   3.508  0.5796  0.0788  0.8446
13114TIP3    H239286   5.482   6.651   3.398  0.0480 -0.9855  0.3553
13115TIP3   OH239287   7.472   7.485   6.268  0.3723 -0.1578  0.1483
13115TIP3    H139288   7.522   7.403   6.265  1.2818  0.3224  1.3230
13115TIP3    H239289   7.429   7.484   6.353  0.0954  0.4159  0.0190
13116TIP3   OH239290   1.662   0.459   4.141  0.0873  0.0666  0.3992
13116TIP3    H139291   1.676   0.545   4.100  0.1753 -0.6342 -1.1445
13116TIP3    H239292   1.677   0.473   4.234 -0.2700  1.8010  0.2175
13117TIP3   OH239293   1.285   6.007   5.786 -0.3794  0.5133 -0.0082
13117TIP3    H139294   1.202   5.961   5.796  0.1959 -0.5118  0.1958
13117TIP3    H239295   1.275   6.057   5.705 -0.1250 -2.0038 -1.7043
13118TIP3   OH239296   5.253   2.784   2.471 -0.2682  0.1663  0.9517
13118TIP3    H139297   5.288   2.865   2.434  0.7291 -0.3463  0.7428
13118TIP3    H239298   5.266   2.792   2.565 -3.0225  1.5775  1.3290
13119TIP3   OH239299   0.969   2.603   4.177 -0.4272 -0.2262  0.0887
13119TIP3    H139300   0.950   2.696   4.174 -2.0666 -0.4767  1.3487
13119TIP3    H239301   1.006   2.588   4.264 -0.2771 -0.7609 -0.0613
13120TIP3   OH239302   1.180   5.768   1.019  0.5183  0.4198 -0.0408
13120TIP3    H139303   1.164   5.717   0.939 -0.9366  0.9328 -0.0978
13120TIP3    H239304   1.271   5.796   1.011  0.5822 -0.0511 -1.2265
13121TIP3   OH239305   7.721   3.586   2.215  0.2282 -0.2366 -0.5418
13121TIP3    H139306   7.767   3.668   2.198 -0.3189  0.4829  1.2414
13121TIP3    H239307   7.663   3.606   2.289 -2.4436 -1.2919 -2.2153
13122TIP3   OH239308   0.679   3.435   3.677  0.4587  0.0837 -0.5552
13122TIP3    H139309   0.665   3.419   3.584  0.6601  1.1830 -0.7835
13122TIP3    H239310   0.766   3.477   3.682  0.1257  0.7311  0.0433
13123TIP3   OH239311   6.552   6.552   4.964 -0.4626 -0.1437 -0.1820
13123TIP3    H139312   6.485   6.593   5.019 -0.9469 -0.3878 -0.5768
13123TIP3    H239313   6.535   6.458   4.972  1.7774 -0.4635  2.1845
13124TIP3   OH239314   1.747   1.886   0.891  0.2611  0.1681 -0.3992
13124TIP3    H139315   1.737   1.919   0.981 -0.5115 -0.4418 -0.2461
13124TIP3    H239316   1.789   1.801   0.902  1.6584  0.7890 -0.7452
13125TIP3   OH239317   2.234   3.524   0.794 -0.1837  1.2389 -0.0731
13125TIP3    H139318   2.321   3.547   0.762 -0.0186 -0.4728 -0.9686
13125TIP3    H239319   2.199   3.466   0.727 -1.7433  1.3343  0.6277
13126TIP3   OH239320   4.086   6.696   3.431 -0.2899 -0.3059  0.2892
13126TIP3    H139321   4.026   6.631   3.466 -0.6766  0.0063  0.2196
13126TIP3    H239322   4.153   6.645   3.385  0.6020 -0.7448  2.0272
13127TIP3   OH239323   4.811   0.662   0.241 -0.4082  0.0068 -0.2896
13127TIP3    H139324   4.760   0.738   0.269 -0.0302 -0.1918  1.0127
13127TIP3    H239325   4.818   0.608   0.320  1.2959 -0.2637 -0.6020
13128TIP3   OH239326   5.625   7.307   3.140  0.0721  0.2199 -1.0225
13128TIP3    H139327   5.667   7.257   3.070  1.8197  1.5106 -0.9837
13128TIP3    H239328   5.698   7.349   3.186 -1.0778  0.0312  1.1064
13129TIP3   OH239329   7.612   5.007   4.714  0.5797  0.0753 -0.3816
13129TIP3    H139330   7.528   5.022   4.670 -0.3130  1.3458  1.5760
13129TIP3    H239331   7.641   5.094   4.741  0.3936 -0.6666  2.5744
13130TIP3   OH239332   6.963   1.824   2.243 -0.4151 -0.4161 -0.2810
13130TIP3    H139333   7.013   1.896   2.204  0.5331 -1.7140 -1.5748
13130TIP3    H239334   6.880   1.824   2.195  0.3077 -1.3020 -1.5786
13131TIP3   OH239335   2.104   1.840   4.949 -0.2983  0.1733 -0.2803
13131TIP3    H139336   2.037   1.896   4.988 -0.4796 -0.4768  0.3704
13131TIP3    H239337   2.186   1.871   4.987 -0.1121  1.4618 -1.6452
13132TIP3   OH239338   6.365   6.318   6.606 -0.1846 -0.0519 -0.3032
13132TIP3    H139339   6.439   6.355   6.653 -1.1499  1.6538 -0.0646
13132TIP3    H239340   6.320   6.264   6.670  0.7792 -1.0399 -0.4296
13133TIP3   OH239341   2.040   4.346   2.326  0.1086 -0.2337 -0.5461
13133TIP3    H139342   2.042   4.325   2.420  0.5833 -0.0047 -0.5063
13133TIP3    H239343   1.948   4.369   2.309  0.3913  1.7629  0.3134
13134TIP3   OH239344   7.028   1.248   2.409  0.4771  0.3805  0.2640
13134TIP3    H139345   7.043   1.176   2.471 -0.3653  0.8318  1.0141
13134TIP3    H239346   6.945   1.287   2.437  1.1072  1.8961  0.1052
13135TIP3   OH239347   4.202   7.656   4.464  0.3238  0.1596  0.0553
13135TIP3    H139348   4.194   7.617   4.551  0.1229  1.7719  0.7941
13135TIP3    H239349   4.218   7.582   4.406 -1.0558 -1.1376  1.2354
13136TIP3   OH239350   4.416   1.167   5.437 -0.1109  0.1015  0.3635
13136TIP3    H139351   4.477   1.136   5.504  1.3132 -0.8412 -1.2990
13136TIP3    H239352   4.338   1.112   5.447 -0.2794  0.5657  1.7774
13137TIP3   OH239353   4.315   5.950   0.857 -0.0507  0.0262 -0.4555
13137TIP3    H139354   4.277   5.932   0.771  1.5267  0.8957 -1.3733
13137TIP3    H239355   4.276   6.033   0.883  0.7866  0.6516 -1.1538
13138TIP3   OH239356   2.135   3.020   4.887 -0.2414  0.1537 -0.2371
13138TIP3    H139357   2.174   2.981   4.965  0.4206  1.4870  0.1182
13138TIP3    H239358   2.089   3.097   4.918  0.2851  0.8756 -1.1977
13139TIP3   OH239359   5.628   1.232   4.805 -0.2290 -0.4724 -0.2634
13139TIP3    H139360   5.718   1.263   4.819 -0.9742  1.7404  0.1344
13139TIP3    H239361   5.637   1.139   4.786  2.1713 -0.2513 -0.5610
13140TIP3   OH239362   5.897   5.749   1.915  0.1461 -0.6803  0.5029
13140TIP3    H139363   5.869   5.687   1.983 -0.0395  0.7053  1.7346
13140TIP3    H239364   5.830   5.741   1.847 -1.4557  0.1651  1.9074
13141TIP3   OH239365   3.159   6.593   2.300 -0.0610 -0.2476  0.0626
13141TIP3    H139366   3.117   6.679   2.290 -0.2439 -0.1226  1.6569
13141TIP3    H239367   3.088   6.530   2.294 -0.4028 -0.0886  1.7877
13142TIP3   OH239368   6.194   2.650   1.822 -0.1564  0.0688  0.2972
13142TIP3    H139369   6.263   2.697   1.870 -0.9148  0.2929  1.1866
13142TIP3    H239370   6.179   2.571   1.874 -1.8327  0.8944  1.1236
13143TIP3   OH239371   7.751   2.782   1.435 -0.4323  0.4809 -0.0551
13143TIP3    H139372   7.667   2.751   1.468  0.0717 -1.0999 -0.1815
13143TIP3    H239373   7.782   2.842   1.503 -0.9946 -0.0484  0.6949
13144TIP3   OH239374   4.267   1.837   0.551  0.1445 -0.0509  0.3923
13144TIP3    H139375   4.276   1.769   0.618 -0.5283  0.3220  0.8834
13144TIP3    H239376   4.245   1.916   0.601 -0.6218  0.1741 -0.2755
13145TIP3   OH239377   4.566   6.835   2.880 -0.2574  0.3452  0.0991
13145TIP3    H139378   4.620   6.782   2.822 -1.4252 -0.7842  0.0038
13145TIP3    H239379   4.547   6.915   2.830 -2.5186 -1.2364 -1.7825
13146TIP3   OH239380   7.644   3.995   5.598  0.7632 -0.3539  0.4327
13146TIP3    H139381   7.709   4.065   5.595 -0.4987  0.9020 -3.4428
13146TIP3    H239382   7.580   4.025   5.663  0.6197  1.8619 -0.6321
13147TIP3   OH239383   5.684   7.134   3.899  0.4551 -0.3926 -0.0485
13147TIP3    H139384   5.738   7.116   3.822  0.4120 -0.5872 -0.0343
13147TIP3    H239385   5.599   7.094   3.878  1.0577 -2.3788  0.9671
13148TIP3   OH239386   1.476   3.644   3.733 -0.0239  0.3618 -0.4799
13148TIP3    H139387   1.495   3.732   3.701 -0.6438  0.9985  0.8104
13148TIP3    H239388   1.424   3.604   3.663 -0.5053  1.3515 -0.7052
13149TIP3   OH239389   6.300   6.096   5.499  0.1614  0.5120 -0.3428
13149TIP3    H139390   6.325   6.061   5.414  0.8821 -0.2945  0.1888
13149TIP3    H239391   6.353   6.048   5.562 -1.3889  0.0797  0.6852
13150TIP3   OH239392   2.537   7.601   5.281  0.1418 -0.1181 -0.1454
13150TIP3    H139393   2.577   7.686   5.267  1.4276 -0.6758 -0.0029
13150TIP3    H239394   2.487   7.585   5.201  1.4554 -0.0517 -1.0074
13151TIP3   OH239395   0.204   5.130   3.157  0.0985  0.9118  0.2982
13151TIP3    H139396   0.266   5.198   3.185  0.6163  0.5234  0.1022
13151TIP3    H239397   0.256   5.071   3.103 -0.1432 -0.1001  1.1470
13152TIP3   OH239398   2.239   2.955   1.741 -0.2505 -0.2471 -0.2443
13152TIP3    H139399   2.225   2.983   1.650 -0.8165  0.4230  0.0401
13152TIP3    H239400   2.318   2.902   1.738 -1.1047 -1.5369 -1.4010
13153TIP3   OH239401   3.037   2.381   1.086 -0.3572 -0.0611  0.2577
13153TIP3    H139402   3.130   2.407   1.087 -0.3793  0.0510 -0.2585
13153TIP3    H239403   3.037   2.292   1.052 -0.3226 -0.6085  1.6151
13154TIP3   OH239404   2.111   0.412   0.823 -0.1939 -0.7647 -0.5039
13154TIP3    H139405   2.163   0.450   0.753 -0.1373 -2.4784 -1.4508
13154TIP3    H239406   2.174   0.366   0.878 -0.2429  0.5418  0.6887
13155TIP3   OH239407   0.265   3.476   2.819 -0.0267 -0.4212 -0.4420
13155TIP3    H139408   0.236   3.551   2.871  1.8695  0.8158 -1.0321
13155TIP3    H239409   0.231   3.493   2.731  1.3789  0.4427 -0.8632
13156TIP3   OH239410   2.532   5.871   1.814  0.1650 -0.2305  0.0394
13156TIP3    H139411   2.552   5.919   1.894 -0.1704  0.0778 -0.0602
13156TIP3    H239412   2.580   5.788   1.823 -0.3546 -0.4538  0.8347
13157TIP3   OH239413   5.633   2.103   4.285  0.1541 -0.1641 -0.0684
13157TIP3    H139414   5.691   2.134   4.355 -0.3781  1.0046 -0.1197
13157TIP3    H239415   5.691   2.059   4.224  0.5163 -2.1242  1.5688
13158TIP3   OH239416   2.057   4.064   5.950 -0.4078  0.4338  0.7886
13158TIP3    H139417   2.103   4.096   5.872 -1.7948 -0.4413 -0.4337
13158TIP3    H239418   2.011   4.142   5.983 -1.1515  0.4652 -0.2652
13159TIP3   OH239419   0.567   5.028   6.418 -0.1267  0.3008 -0.7088
13159TIP3    H139420   0.552   5.041   6.511 -0.4013  0.2705 -0.7481
13159TIP3    H239421   0.578   4.933   6.409 -0.6258  0.2470 -0.7813
13160TIP3   OH239422   0.380   3.355   5.454  0.3228 -1.1902  0.1327
13160TIP3    H139423   0.345   3.292   5.518  1.5165 -1.5227  0.4761
13160TIP3    H239424   0.475   3.350   5.464  0.4767 -0.0491 -0.5394
13161TIP3   OH239425   7.460   7.549   2.968  0.0776  0.0487 -0.0107
13161TIP3    H139426   7.475   7.504   3.052 -2.5831  1.5397  1.3935
13161TIP3    H239427   7.387   7.502   2.929 -0.0706  0.6566 -0.4720
13162TIP3   OH239428   2.251   6.875   2.162 -0.5301  0.1863  0.1743
13162TIP3    H139429   2.165   6.917   2.154 -0.5509  0.6532  2.2416
13162TIP3    H239430   2.307   6.942   2.202  0.6448 -0.3272 -0.5344
13163TIP3   OH239431   6.909   5.705   0.093  0.2562  0.1384 -0.2766
13163TIP3    H139432   6.943   5.628   0.046  0.2691  0.4290 -0.7471
13163TIP3    H239433   6.985   5.739   0.140  0.2348 -0.1749 -0.0073
13164TIP3   OH239434   6.012   4.565   0.381  0.2741 -0.1463 -0.1991
13164TIP3    H139435   6.062   4.588   0.459 -0.1490 -0.3196  0.1302
13164TIP3    H239436   5.966   4.645   0.357 -2.0709 -0.8150  1.5944
13165TIP3   OH239437   6.173   7.249   0.934  0.3054 -0.4637  0.2838
13165TIP3    H139438   6.220   7.242   1.017  0.7133  1.4414  0.2482
13165TIP3    H239439   6.108   7.317   0.949 -0.5373 -1.0615 -0.5656
13166TIP3   OH239440   4.026   6.611   0.354 -0.2844  0.1574  0.4485
13166TIP3    H139441   4.061   6.532   0.313  0.3921  0.6522  0.0491
13166TIP3    H239442   4.092   6.636   0.418 -1.4248 -0.7253  2.0449
13167TIP3   OH239443   0.563   3.500   6.263  0.2691 -0.2104 -0.4178
13167TIP3    H139444   0.551   3.409   6.236 -2.8630 -0.1776  0.3922
13167TIP3    H239445   0.599   3.495   6.351  0.9651 -0.6222 -0.7211
13168TIP3   OH239446   0.474   4.171   3.993  0.1958  0.4650 -0.1323
13168TIP3    H139447   0.428   4.162   3.909 -1.2803  0.2836  0.6585
13168TIP3    H239448   0.533   4.096   3.995  0.8546  0.9220 -1.3557
13169TIP3   OH239449   2.171   7.240   1.562  0.1398  0.8750  0.1132
13169TIP3    H139450   2.187   7.158   1.608  0.8562  0.5365 -0.7143
13169TIP3    H239451   2.232   7.239   1.489 -2.6918  0.1481 -2.4695
13170TIP3   OH239452   5.473   7.265   1.546  0.2003  0.5326 -0.0554
13170TIP3    H139453   5.525   7.272   1.466 -0.3686 -1.6046 -0.6846
13170TIP3    H239454   5.383   7.252   1.515 -0.0839  0.0885  0.9357
13171TIP3   OH239455   7.631   4.474   6.512  0.2382 -0.0624  0.1608
13171TIP3    H139456   7.621   4.507   6.422  0.0820 -0.0996  0.1643
13171TIP3    H239457   7.709   4.518   6.545  0.9456 -0.8790 -0.3707
13172TIP3   OH239458   2.689   6.077   3.234 -0.1622  0.6516 -0.1715
13172TIP3    H139459   2.718   6.118   3.316 -0.7268  0.6180  0.0474
13172TIP3    H239460   2.720   5.986   3.241  1.6480  1.1623 -0.9361
13173TIP3   OH239461   5.299   2.150   3.885 -1.0910 -0.8943  0.3530
13173TIP3    H139462   5.289   2.111   3.972  1.8543 -0.9152  0.7875
13173TIP3    H239463   5.308   2.075   3.826 -1.4358 -0.8815  0.2855
13174TIP3   OH239464   6.961   4.606   0.907  0.0429  0.0830 -0.6977
13174TIP3    H139465   6.936   4.698   0.921  0.1445  0.0137 -0.0406
13174TIP3    H239466   6.986   4.602   0.815 -1.0085  0.4728 -1.0138
13175TIP3   OH239467   2.694   7.283   4.093  0.1086 -0.3440 -0.5217
13175TIP3    H139468   2.786   7.308   4.083 -0.0633  0.4512 -0.2153
13175TIP3    H239469   2.652   7.313   4.012 -0.0842  0.3381 -0.1837
13176TIP3   OH239470   2.387   5.703   0.557  0.3034  0.3605  0.5356
13176TIP3    H139471   2.461   5.676   0.503 -0.5186  0.0642 -0.4774
13176TIP3    H239472   2.425   5.758   0.625  1.3351  1.0918 -0.5925
13177TIP3   OH239473   3.654   1.164   2.474 -0.4891 -0.4559 -0.3432
13177TIP3    H139474   3.671   1.219   2.550  0.4702  1.1066 -1.6351
13177TIP3    H239475   3.683   1.076   2.501  0.7419  0.2559  0.7779
13178TIP3   OH239476   0.017   2.463   4.594 -0.2465  0.5204  0.2843
13178TIP3    H139477   0.063   2.542   4.624 -0.7078  0.8239  0.2021
13178TIP3    H239478  -0.065   2.496   4.558 -1.7314 -0.1883  2.7659
13179TIP3   OH239479   8.011   5.676   5.432 -0.1629 -0.1576 -0.4008
13179TIP3    H139480   7.993   5.713   5.518 -1.5261 -0.8234 -0.3710
13179TIP3    H239481   8.106   5.686   5.420  0.2605 -1.1628  1.7060
13180TIP3   OH239482   1.602   6.637   6.308  0.5605  0.3535  0.3888
13180TIP3    H139483   1.625   6.551   6.344  1.1519  0.2926 -0.1150
13180TIP3    H239484   1.591   6.692   6.385 -1.8142 -0.6177  0.8283
13181TIP3   OH239485   2.603   2.405   6.590 -0.2056 -0.0601  0.4382
13181TIP3    H139486   2.616   2.334   6.528  0.6028 -1.9139  2.5937
13181TIP3    H239487   2.601   2.484   6.536  0.6490 -1.5328 -1.8913
13182TIP3   OH239488   0.364   4.652   6.577 -0.2818 -0.3770 -0.3396
13182TIP3    H139489   0.382   4.641   6.484 -0.2972 -0.3363 -0.3475
13182TIP3    H239490   0.338   4.565   6.608 -1.7205 -0.0897 -0.6862
13183TIP3   OH239491   7.531   3.833   6.305  0.4323 -0.5653  0.1497
13183TIP3    H139492   7.555   3.757   6.358 -0.3226  0.3048  1.8423
13183TIP3    H239493   7.610   3.887   6.305  0.8393 -1.1356 -0.7142
13184TIP3   OH239494   6.967   4.483   3.759 -0.8778  0.2072 -0.7750
13184TIP3    H139495   6.948   4.455   3.669 -1.4852 -0.0538 -0.5674
13184TIP3    H239496   6.977   4.578   3.753  1.3811 -0.0098 -1.5269
13185TIP3   OH239497   4.197   3.090   1.056  0.1500  0.0783  0.2914
13185TIP3    H139498   4.233   3.028   1.119 -1.2272 -0.0747  0.9545
13185TIP3    H239499   4.151   3.155   1.109  0.4633  0.9514 -0.4708
13186TIP3   OH239500   3.140   5.733   3.053  0.3516 -0.4067 -0.0476
13186TIP3    H139501   3.196   5.748   2.977  1.8880  1.8875  1.4402
13186TIP3    H239502   3.064   5.789   3.038  1.1170  0.8185  0.5217
13187TIP3   OH239503   0.263   0.023   6.667 -0.2875 -0.2391  0.5850
13187TIP3    H139504   0.173   0.024   6.636 -1.1186  0.5723  2.8198
13187TIP3    H239505   0.275   0.108   6.710  1.4363 -0.4680  0.6466
13188TIP3   OH239506   6.313   5.619   0.484 -0.0087 -0.8845 -0.0256
13188TIP3    H139507   6.255   5.583   0.551  0.1882 -0.6562  0.2721
13188TIP3    H239508   6.373   5.676   0.532  0.1728 -0.7624 -0.3892
13189TIP3   OH239509   0.404   4.051   6.732  0.0059 -0.0968 -0.4326
13189TIP3    H139510   0.367   4.097   6.656 -0.5437  0.3294  0.0840
13189TIP3    H239511   0.400   3.959   6.708 -1.4957 -0.0720 -0.3601
13190TIP3   OH239512   6.151   5.245   3.544  0.2254  0.0697  0.0208
13190TIP3    H139513   6.129   5.158   3.576  0.0893  0.6646  1.6373
13190TIP3    H239514   6.183   5.230   3.455  0.8245 -1.6969  0.4875
13191TIP3   OH239515   2.994   5.746   0.468  0.6086  0.3082 -0.0469
13191TIP3    H139516   2.914   5.733   0.520  0.2577  1.6933 -0.2172
13191TIP3    H239517   3.002   5.665   0.416 -1.0963  0.4419 -0.5718
13192TIP3   OH239518   4.764   7.020   0.128  0.5741  0.3142  0.6854
13192TIP3    H139519   4.672   7.046   0.127  0.9915  1.9224  0.2370
13192TIP3    H239520   4.781   6.997   0.219 -0.6880 -1.7606  0.4472
13193TIP3   OH239521   1.486   7.141   2.313  0.5692  0.5117  0.1264
13193TIP3    H139522   1.420   7.157   2.247 -0.7772  0.5194  1.4153
13193TIP3    H239523   1.544   7.218   2.308  1.3533 -0.1544 -1.9552
13194TIP3   OH239524   0.820   2.895   2.282 -0.4688 -0.8368  0.5709
13194TIP3    H139525   0.725   2.880   2.290 -0.3806 -0.6960  2.5380
13194TIP3    H239526   0.854   2.813   2.245 -1.3437 -0.9187 -0.0840
13195TIP3   OH239527   1.857   3.383   4.418  0.1744  0.3840 -0.0643
13195TIP3    H139528   1.910   3.448   4.372 -2.9827  1.8215 -1.9960
13195TIP3    H239529   1.850   3.417   4.508  1.6398  0.6362 -0.0211
13196TIP3   OH239530   1.819   4.988   1.978  0.1879 -0.4013  0.2028
13196TIP3    H139531   1.881   4.934   1.928  2.1200  1.2891  0.6255
13196TIP3    H239532   1.815   5.070   1.929 -0.9297 -0.1007  0.7680
13197TIP3   OH239533   0.902   2.925   3.538  0.0400 -0.4581 -0.2724
13197TIP3    H139534   0.926   2.851   3.593  3.6351 -0.2960 -1.4035
13197TIP3    H239535   0.895   2.888   3.449  0.5618  0.3105 -0.6463
13198TIP3   OH239536   0.147   7.011   3.705  0.6009  0.0712 -0.3489
13198TIP3    H139537   0.174   7.054   3.786  0.6389 -0.0593 -0.2921
13198TIP3    H239538   0.186   7.065   3.636  2.1047 -0.8147 -0.2494
13199TIP3   OH239539   6.329   2.915   2.268  0.8048 -0.0302  0.1763
13199TIP3    H139540   6.381   2.842   2.302 -0.0455 -0.3157  0.9070
13199TIP3    H239541   6.259   2.873   2.218 -1.8517 -0.0360  3.5054
13200TIP3   OH239542   6.004   0.055   5.288 -0.2926  0.2286  0.1122
13200TIP3    H139543   6.052   0.119   5.341  0.8292 -0.6539  0.2059
13200TIP3    H239544   6.058   0.043   5.210 -1.2134  0.4457 -0.5753
13201TIP3   OH239545   3.194   7.314   2.492 -0.3732 -0.1595  0.2028
13201TIP3    H139546   3.267   7.374   2.507  1.0438 -1.0468 -2.5048
13201TIP3    H239547   3.224   7.230   2.527 -0.1736 -0.4462 -0.6150
13202TIP3   OH239548   0.899   3.304   6.704 -0.3938  0.5413  0.3813
13202TIP3    H139549   0.837   3.292   6.776 -0.0610  1.6090  0.8637
13202TIP3    H239550   0.905   3.218   6.663 -2.0738  0.3699  0.4130
13203TIP3   OH239551   5.876   4.609   3.324  0.0994  0.4081  0.2567
13203TIP3    H139552   5.788   4.604   3.361  0.0214  1.2489  0.2155
13203TIP3    H239553   5.899   4.518   3.304 -0.9687  0.2191 -0.2186
13204TIP3   OH239554   4.290   1.166   1.408  0.1537  0.1069  0.0022
13204TIP3    H139555   4.360   1.193   1.348 -0.8918  0.1145 -1.2605
13204TIP3    H239556   4.272   1.244   1.460  1.8811 -0.2365  1.1894
13205TIP3   OH239557   1.506   6.472   0.480  0.1337  0.0830 -0.8755
13205TIP3    H139558   1.492   6.391   0.430  1.4534 -0.3953 -0.5161
13205TIP3    H239559   1.504   6.445   0.572 -2.2948  0.9625 -0.6024
13206TIP3   OH239560   4.544   5.258   1.588  0.0881  0.2514 -0.2995
13206TIP3    H139561   4.634   5.279   1.564  0.2718  1.0997  1.0019
13206TIP3    H239562   4.540   5.277   1.682 -1.4735  0.3135 -0.3589
13207TIP3   OH239563   6.792   4.484   5.813 -0.5569  0.2767  0.1648
13207TIP3    H139564   6.769   4.434   5.891 -0.9043 -1.8969 -1.2205
13207TIP3    H239565   6.873   4.529   5.836 -0.9250  0.1163  1.9230
13208TIP3   OH239566   4.913   4.048   0.577  0.4833 -0.6935  0.1349
13208TIP3    H139567   4.964   3.972   0.551  0.2301 -0.6535 -0.4762
13208TIP3    H239568   4.968   4.123   0.556  0.0594 -0.6354 -0.8135
13209TIP3   OH239569   0.661   2.710   6.710  0.0297  0.2093  0.1095
13209TIP3    H139570   0.602   2.770   6.754  0.6818  0.8148  0.1621
13209TIP3    H239571   0.647   2.727   6.617  0.1476  0.3736  0.1224
13210TIP3   OH239572   3.220   6.770   6.758 -0.1332  0.0487 -0.0685
13210TIP3    H139573   3.288   6.738   6.817 -0.8525  0.5229  1.0520
13210TIP3    H239574   3.205   6.698   6.698  2.6545  0.5864 -1.5659
13211TIP3   OH239575   6.652   6.375   0.785 -0.5536 -0.5303 -0.3670
13211TIP3    H139576   6.648   6.465   0.752 -0.3080 -0.2282  0.4058
13211TIP3    H239577   6.743   6.362   0.808 -1.0700  0.1067  2.3937
13212TIP3   OH239578   8.112   0.732   1.585 -0.1228  0.3292 -0.4792
13212TIP3    H139579   8.125   0.646   1.545 -1.1156 -0.4985  0.8807
13212TIP3    H239580   8.044   0.772   1.532 -0.7877 -0.3948 -0.2052
13213TIP3   OH239581   5.648   7.611   1.347  0.3878 -0.3151  0.0922
13213TIP3    H139582   5.706   7.686   1.361  0.9580 -1.0274  1.8604
13213TIP3    H239583   5.569   7.632   1.398 -0.3835  0.0338 -1.1964
13214TIP3   OH239584   3.019   5.079   4.759 -0.3568  0.3842  0.5724
13214TIP3    H139585   3.041   5.116   4.845 -0.5495 -0.0116  0.7970
13214TIP3    H239586   3.012   4.985   4.775  1.8672  0.0169 -0.3511
13215TIP3   OH239587   3.877   3.841   3.367  0.2421 -0.1329  0.2570
13215TIP3    H139588   3.857   3.760   3.320 -1.1848 -0.0544  0.6766
13215TIP3    H239589   3.906   3.902   3.299  0.4544 -0.7144 -0.1817
13216TIP3   OH239590   5.970   5.412   0.481 -0.4014  0.0785  0.0549
13216TIP3    H139591   6.018   5.391   0.401  1.0992 -0.4757  1.0502
13216TIP3    H239592   5.928   5.330   0.505  0.9454 -0.3842  0.9710
13217TIP3   OH239593   1.929   5.170   1.023 -0.5907  0.2511  0.6985
13217TIP3    H139594   2.022   5.157   1.005 -0.7224  1.5453 -1.3179
13217TIP3    H239595   1.889   5.086   1.003 -0.0225  0.1397 -0.0429
13218TIP3   OH239596   6.428   2.208   6.651 -0.1853 -0.3456 -0.4506
13218TIP3    H139597   6.518   2.238   6.663 -0.0606 -1.4300  1.8467
13218TIP3    H239598   6.435   2.114   6.636 -0.9483 -1.3854  4.1716
13219TIP3   OH239599   1.991   0.096   6.028 -0.1123  0.5158 -0.0461
13219TIP3    H139600   1.959   0.011   6.000 -0.5971 -0.1504  2.2507
13219TIP3    H239601   1.975   0.097   6.123  0.9150  2.7112  0.1707
13220TIP3   OH239602   4.369   0.291   1.956 -0.4060 -0.0707  0.4736
13220TIP3    H139603   4.463   0.297   1.969 -0.4849  0.9974  0.6546
13220TIP3    H239604   4.356   0.320   1.865 -0.6784  1.2887  0.9168
13221TIP3   OH239605   6.182   4.516   4.317 -0.4166 -0.0815 -0.3428
13221TIP3    H139606   6.130   4.444   4.353 -1.4313  0.1956 -1.2106
13221TIP3    H239607   6.119   4.573   4.274  0.2213  1.9413  1.2649
13222TIP3   OH239608   6.232   7.814   4.407  0.6293  0.4712  0.3152
13222TIP3    H139609   6.313   7.763   4.397  1.1225  1.0214  1.3429
13222TIP3    H239610   6.178   7.762   4.466 -0.0523 -0.2000 -0.8641
13223TIP3   OH239611   3.368   1.245   6.536 -0.1178  0.0432 -0.1741
13223TIP3    H139612   3.416   1.197   6.469 -1.7574 -0.0466 -1.3533
13223TIP3    H239613   3.376   1.337   6.509 -1.4371 -0.0496 -1.0254
13224TIP3   OH239614   6.328   5.711   1.108 -0.0900  0.7435  0.3940
13224TIP3    H139615   6.403   5.720   1.048  0.9488 -0.9743  1.3634
13224TIP3    H239616   6.267   5.780   1.080  0.4595  0.2020 -2.4492
13225TIP3   OH239617   6.077   6.850   6.692  0.2587 -0.2019  0.3943
13225TIP3    H139618   6.074   6.940   6.661 -0.7377 -0.5578 -0.6110
13225TIP3    H239619   6.160   6.843   6.740  1.1722  0.7685 -0.9988
13226TIP3   OH239620   4.614   6.005   3.773  0.5666 -0.2913 -0.0521
13226TIP3    H139621   4.614   6.094   3.810 -0.8252 -1.0202  1.8455
13226TIP3    H239622   4.665   5.954   3.836  0.7109 -1.0050 -0.7431
13227TIP3   OH239623   7.538   0.829   1.481  0.7564 -0.5144 -0.0464
13227TIP3    H139624   7.605   0.819   1.548  0.6188  0.5115  0.2532
13227TIP3    H239625   7.469   0.767   1.506  0.3751  0.3747  1.1834
13228TIP3   OH239626   1.636   1.736   2.195  0.1458 -0.4946 -0.5143
13228TIP3    H139627   1.684   1.819   2.192 -0.0418 -0.3889 -0.6146
13228TIP3    H239628   1.609   1.721   2.104  0.6414 -0.9371 -0.5895
13229TIP3   OH239629   4.658   6.447   5.401 -0.0286  0.5257 -1.0094
13229TIP3    H139630   4.729   6.398   5.358  0.8140  1.9612 -1.2997
13229TIP3    H239631   4.700   6.487   5.477 -1.1148 -0.5630  0.2233
13230TIP3   OH239632   5.034   2.596   0.807 -0.0972  0.1023  0.2207
13230TIP3    H139633   5.038   2.689   0.832  0.8550  0.4258 -1.0092
13230TIP3    H239634   5.114   2.558   0.843  0.8964  0.4023 -1.5341
13231TIP3   OH239635   4.267   4.746   6.640  0.1680  0.0119 -0.4584
13231TIP3    H139636   4.317   4.756   6.559 -1.4987 -0.5426 -1.6228
13231TIP3    H239637   4.175   4.742   6.611 -0.4056 -1.4548  1.3365
13232TIP3   OH239638   7.904   1.498   1.390  0.2828 -0.3773 -0.1669
13232TIP3    H139639   7.948   1.564   1.337 -0.5863  1.9047  1.7963
13232TIP3    H239640   7.967   1.478   1.460 -1.0802  1.8282  1.8225
13233TIP3   OH239641   5.049   4.548   4.724 -0.3794 -0.0422  0.2148
13233TIP3    H139642   5.049   4.612   4.795 -0.2726  1.2215 -0.8857
13233TIP3    H239643   4.983   4.484   4.750  1.7049 -1.3182  2.8657
13234TIP3   OH239644   8.130   6.933   1.322  0.4020  0.8250  0.4122
13234TIP3    H139645   8.210   6.892   1.292  1.0551  1.2033  1.5752
13234TIP3    H239646   8.133   6.926   1.417 -0.7492  1.2103  0.4980
13235TIP3   OH239647   5.402   2.518   5.492  0.1832  0.3167  0.3347
13235TIP3    H139648   5.363   2.431   5.488  0.4015  0.2448 -0.4328
13235TIP3    H239649   5.341   2.574   5.445  0.9425  0.2155 -0.8242
13236TIP3   OH239650   6.355   0.502   3.022 -0.5574  1.0887 -0.4598
13236TIP3    H139651   6.375   0.409   3.012 -0.0839  0.5835  3.6415
13236TIP3    H239652   6.265   0.511   2.988 -0.1417 -0.4902 -2.1561
13237TIP3   OH239653   3.317   4.427   3.812  0.5034 -0.3848  0.1414
13237TIP3    H139654   3.409   4.425   3.837  0.1334  2.1906  2.0888
13237TIP3    H239655   3.270   4.447   3.893 -1.6628 -0.4481 -1.0215
13238TIP3   OH239656   7.810   3.980   1.882  0.3829  0.0734 -0.2483
13238TIP3    H139657   7.865   3.990   1.960 -0.4508  1.3920  0.2006
13238TIP3    H239658   7.870   3.985   1.809  0.9052  1.3009  0.2400
13239TIP3   OH239659   1.096   0.633   4.384  0.2779 -0.0501 -0.2849
13239TIP3    H139660   1.190   0.630   4.400  0.3656 -1.5577 -0.9093
13239TIP3    H239661   1.084   0.706   4.324  1.2288 -0.6060 -1.1777
13240TIP3   OH239662   8.074   2.090   4.386 -0.1500 -0.6841 -0.0376
13240TIP3    H139663   8.144   2.155   4.382 -0.4688 -0.3889 -0.9328
13240TIP3    H239664   8.108   2.016   4.336  0.2996 -1.3206  1.1497
13241TIP3   OH239665   1.959   7.488   5.483 -0.3236 -0.4405 -0.2685
13241TIP3    H139666   1.882   7.461   5.433  0.2985 -2.4332 -0.2352
13241TIP3    H239667   1.936   7.473   5.574 -0.0721 -0.5933 -0.2281
13242TIP3   OH239668   1.249   4.642   6.345 -0.0540 -0.0867 -0.3042
13242TIP3    H139669   1.241   4.547   6.347 -0.8836 -0.0397 -0.9835
13242TIP3    H239670   1.256   4.667   6.438  1.6554 -0.8928 -0.1654
13243TIP3   OH239671   3.929   0.506   4.446 -0.0368  0.2363 -0.0755
13243TIP3    H139672   3.938   0.587   4.395  0.9623 -0.9470 -1.9268
13243TIP3    H239673   4.007   0.455   4.423 -1.1196 -1.6668  0.2396
13244TIP3   OH239674   2.254   2.330   2.634  0.5716  0.2536 -0.3185
13244TIP3    H139675   2.237   2.326   2.728  0.9885  1.7544 -0.1535
13244TIP3    H239676   2.173   2.362   2.596 -0.2960 -2.2744 -0.7496
13245TIP3   OH239677   4.514   2.664   3.614  0.1801 -0.5045 -0.6065
13245TIP3    H139678   4.518   2.579   3.570 -0.3790 -1.2904  0.7878
13245TIP3    H239679   4.605   2.686   3.634  0.2984 -0.9784 -0.6190
13246TIP3   OH239680   3.203   0.237   3.833  0.0025  0.8169  0.4622
13246TIP3    H139681   3.136   0.271   3.775  1.0518 -0.8875 -1.9109
13246TIP3    H239682   3.158   0.174   3.889 -0.5690  0.4991 -0.3487
13247TIP3   OH239683   2.793   6.157   6.102  0.1335 -0.4354  0.0334
13247TIP3    H139684   2.703   6.180   6.123  0.0743 -0.5283 -0.1148
13247TIP3    H239685   2.799   6.170   6.007  1.3686  3.3939  0.4844
13248TIP3   OH239686   6.170   4.746   6.062  0.0774 -0.0771  0.0635
13248TIP3    H139687   6.205   4.683   5.998 -1.7956 -0.2408 -0.8560
13248TIP3    H239688   6.150   4.824   6.010  0.0220  0.3802  0.7578
13249TIP3   OH239689   1.508   2.432   6.463 -0.4443  0.3473  0.0628
13249TIP3    H139690   1.564   2.477   6.400 -1.0579 -0.1607 -0.8712
13249TIP3    H239691   1.425   2.480   6.461 -0.0350  1.1893  1.5540
13250TIP3   OH239692   6.628   2.885   0.380 -0.7376  0.5502 -0.6409
13250TIP3    H139693   6.600   2.796   0.358 -0.9846  0.8278 -1.5026
13250TIP3    H239694   6.707   2.873   0.432 -0.2071 -0.1582 -1.5812
13251TIP3   OH239695   4.217   2.456   0.502  0.0185  0.7679 -0.3924
13251TIP3    H139696   4.146   2.413   0.549  0.3949  0.9945  0.3943
13251TIP3    H239697   4.264   2.385   0.459 -0.1600  0.5295 -0.1930
13252TIP3   OH239698   8.102   2.789   4.662  0.1237  0.7456 -0.3425
13252TIP3    H139699   8.146   2.709   4.690 -0.0775  1.3389  1.8334
13252TIP3    H239700   8.143   2.859   4.713 -0.8893  1.7967 -0.9129
13253TIP3   OH239701   0.969   3.388   5.919  0.4446 -0.0900 -0.1123
13253TIP3    H139702   1.027   3.435   5.859 -0.4456 -1.1465 -1.8814
13253TIP3    H239703   0.993   3.296   5.908 -0.3671 -0.3850  0.4777
13254TIP3   OH239704   5.143   1.759   0.800 -0.4426  0.0562 -0.0989
13254TIP3    H139705   5.090   1.749   0.721 -0.1749 -1.0153 -0.1581
13254TIP3    H239706   5.111   1.690   0.859 -0.6078  0.8080  0.7202
13255TIP3   OH239707   7.040   0.015   5.813 -0.1621  0.1780 -0.0396
13255TIP3    H139708   7.095   0.069   5.756  0.6523 -1.2010 -0.6266
13255TIP3    H239709   6.965  -0.009   5.759  0.4017 -0.7825 -0.4234
13256TIP3   OH239710   7.561   7.215   4.388 -0.5735 -0.4541 -0.4103
13256TIP3    H139711   7.531   7.130   4.354 -0.0419 -0.6144 -0.4788
13256TIP3    H239712   7.538   7.212   4.481 -0.7191 -0.5999 -0.4491
13257TIP3   OH239713   7.327   1.035   1.497 -0.0214  0.3329 -0.2225
13257TIP3    H139714   7.390   0.966   1.519 -1.6926 -1.6071 -1.2775
13257TIP3    H239715   7.302   1.072   1.582  2.7892  1.5166  0.2205
13258TIP3   OH239716   3.992   0.483   1.832 -0.1240  0.1759 -0.2990
13258TIP3    H139717   4.063   0.546   1.840 -0.8549  1.0435 -0.4529
13258TIP3    H239718   4.018   0.410   1.888  1.4850 -0.1027 -1.3618
13259TIP3   OH239719   2.269   3.978   2.956  0.5731  0.3029 -0.1559
13259TIP3    H139720   2.292   3.917   3.026 -0.0698  0.2486  0.0192
13259TIP3    H239721   2.337   4.045   2.959  1.0859 -0.2171 -0.1151
13260TIP3   OH239722   8.008   2.629   6.176 -0.3580  0.6032 -0.3207
13260TIP3    H139723   7.924   2.675   6.183 -0.5513  0.1346  0.6253
13260TIP3    H239724   8.027   2.627   6.082 -1.5713  0.4269 -0.5741
13261TIP3   OH239725   3.105   7.700   2.270  0.0748 -0.9471  0.2109
13261TIP3    H139726   3.187   7.652   2.268 -0.0301 -1.1590  0.7939
13261TIP3    H239727   3.060   7.668   2.348 -0.3683 -0.5167  0.1399
13262TIP3   OH239728   4.693   5.768   0.982  0.1499 -0.7725  0.1213
13262TIP3    H139729   4.687   5.752   1.076 -1.9754 -1.3538 -0.0515
13262TIP3    H239730   4.730   5.856   0.975  0.1121 -0.6244  1.5056
13263TIP3   OH239731   1.163   4.898   3.389 -0.4293  0.0335  0.1519
13263TIP3    H139732   1.237   4.916   3.448 -0.8470  1.7124  0.1891
13263TIP3    H239733   1.139   4.807   3.409  0.7252 -0.0878  1.1270
13264TIP3   OH239734   6.021   3.886   6.592  0.5461 -0.1882  0.3308
13264TIP3    H139735   6.107   3.845   6.581 -0.5986 -2.1404 -3.0850
13264TIP3    H239736   5.984   3.846   6.670  1.4231 -2.0454 -0.1506
13265TIP3   OH239737   6.864   7.337   4.530 -0.4382  0.1178  0.7349
13265TIP3    H139738   6.802   7.279   4.486  0.3456 -1.3265  1.4803
13265TIP3    H239739   6.826   7.425   4.518 -2.0823 -0.5990  0.2932
13266TIP3   OH239740   1.647   4.273   1.572  0.6454 -0.2575 -0.3288
13266TIP3    H139741   1.737   4.243   1.585  0.2852 -1.3857 -0.3413
13266TIP3    H239742   1.656   4.362   1.539  1.8528 -1.1795 -2.7281
13267TIP3   OH239743   0.755   0.125   3.666 -0.1017 -0.0238 -0.2160
13267TIP3    H139744   0.710   0.067   3.728 -0.7758 -0.6948 -1.2980
13267TIP3    H239745   0.818   0.068   3.622  0.1815  0.3872 -0.3503
13268TIP3   OH239746   4.346   2.343   0.243  0.9460 -0.1652 -0.2344
13268TIP3    H139747   4.412   2.283   0.278  0.5679  0.6042  1.9915
13268TIP3    H239748   4.385   2.430   0.255 -0.8989  0.4290  2.4732
13269TIP3   OH239749   4.415   4.311   1.556  0.3387 -0.9831 -0.0646
13269TIP3    H139750   4.404   4.399   1.521 -1.4197 -0.5960  1.2922
13269TIP3    H239751   4.509   4.297   1.559  0.7138  1.3347  0.7708
13270TIP3   OH239752   0.391   4.740   0.521  0.7064 -0.1369  0.0495
13270TIP3    H139753   0.370   4.817   0.574  0.3952  0.7608 -1.3085
13270TIP3    H239754   0.312   4.685   0.526  0.0051  0.7482 -0.8162
13271TIP3   OH239755   3.649   5.778   0.130 -0.1860  0.3730 -0.2552
13271TIP3    H139756   3.586   5.847   0.151 -0.3290  0.1463  0.0497
13271TIP3    H239757   3.703   5.816   0.060  0.4806  1.2449  0.6985
13272TIP3   OH239758   5.273   3.450   4.392  0.2906  0.2213  0.3211
13272TIP3    H139759   5.327   3.442   4.471 -1.2338  1.4807  1.5681
13272TIP3    H239760   5.207   3.381   4.401 -1.2564  1.7606  1.3587
13273TIP3   OH239761   6.101   5.470   3.748 -0.6070 -0.7937  0.0478
13273TIP3    H139762   6.048   5.410   3.800 -1.9511 -0.4370 -0.8672
13273TIP3    H239763   6.116   5.424   3.665 -0.8198 -0.2596 -0.2912
13274TIP3   OH239764   0.634   4.685   1.827 -0.3108  0.2328 -0.4305
13274TIP3    H139765   0.627   4.765   1.775  0.1438  0.9339  0.5438
13274TIP3    H239766   0.678   4.713   1.908  0.7991 -1.2084 -0.5039
13275TIP3   OH239767   5.521   2.396   4.375  0.0073  0.1368 -0.1348
13275TIP3    H139768   5.469   2.445   4.311  2.8110  2.5594 -0.7621
13275TIP3    H239769   5.572   2.335   4.323 -1.3663 -1.5510  0.3936
13276TIP3   OH239770   7.984   6.090   3.960  0.1681 -0.8020  0.4532
13276TIP3    H139771   7.994   6.044   3.877  1.1795 -1.0224  0.6775
13276TIP3    H239772   8.055   6.155   3.959 -1.5447  1.1797 -0.1134
13277TIP3   OH239773   5.983   2.086   2.652  0.6971 -0.1830  0.8703
13277TIP3    H139774   5.939   2.131   2.725  0.4346 -0.2595  0.7604
13277TIP3    H239775   6.063   2.051   2.691  0.5951 -0.1599  1.1067
13278TIP3   OH239776   1.233   4.918   6.620  0.2184 -0.2513 -0.1606
13278TIP3    H139777   1.202   4.835   6.658  0.5390 -0.3501 -0.1098
13278TIP3    H239778   1.219   4.983   6.689  1.0583 -0.4819  0.2384
13279TIP3   OH239779   8.240   6.260   3.883 -0.2001  0.3140  0.0736
13279TIP3    H139780   8.266   6.285   3.972 -0.9675 -0.6351  0.5765
13279TIP3    H239781   8.245   6.342   3.833 -1.8842  1.3518  1.4919
13280TIP3   OH239782   8.108   7.247   5.630 -0.7089 -0.2014  0.6399
13280TIP3    H139783   8.199   7.268   5.650 -0.5484 -1.5818  1.4467
13280TIP3    H239784   8.100   7.260   5.536  0.5902 -1.0233  0.4027
13281TIP3   OH239785   0.360   1.199   6.460 -0.4242 -0.3251 -0.0348
13281TIP3    H139786   0.315   1.183   6.543 -1.5353 -1.5131 -0.8187
13281TIP3    H239787   0.447   1.231   6.485 -0.8982 -0.2147  1.5686
13282TIP3   OH239788   3.185   5.128   3.281  0.0045 -0.4157  0.7051
13282TIP3    H139789   3.277   5.120   3.255  0.3985 -0.5291  2.0600
13282TIP3    H239790   3.141   5.162   3.203  0.8664 -2.0154 -0.5365
13283TIP3   OH239791   6.531   3.811   5.665 -0.2092  0.3965  0.3271
13283TIP3    H139792   6.602   3.875   5.655  2.0228 -1.6315  2.1853
13283TIP3    H239793   6.499   3.825   5.754 -0.2192 -0.5449  0.4814
13284TIP3   OH239794   2.217   4.310   6.137  0.1542 -0.2499 -0.2581
13284TIP3    H139795   2.223   4.319   6.233 -1.4984 -2.7173  0.1677
13284TIP3    H239796   2.123   4.316   6.119  0.4237 -0.1890 -1.6791
13285TIP3   OH239797   1.373   0.467   4.005  0.6923  0.1847 -0.1532
13285TIP3    H139798   1.448   0.446   3.949  1.1566 -1.5130  1.0055
13285TIP3    H239799   1.411   0.515   4.079  0.9897 -2.0064  1.2217
13286TIP3   OH239800   1.320   6.205   4.123  0.1272  0.1649  0.0844
13286TIP3    H139801   1.296   6.129   4.177 -1.2296 -0.9586 -1.9470
13286TIP3    H239802   1.411   6.222   4.145  0.0735 -1.1777  1.6000
13287TIP3   OH239803   4.022   6.099   3.729  0.2899 -0.6017 -0.3527
13287TIP3    H139804   3.940   6.133   3.694  1.4870  1.5427 -1.3090
13287TIP3    H239805   4.044   6.158   3.802  0.8098 -1.3652  0.1295
13288TIP3   OH239806   2.432   3.405   2.482 -0.1342 -0.8120 -0.1862
13288TIP3    H139807   2.386   3.350   2.418  2.1080 -2.2445 -0.6866
13288TIP3    H239808   2.393   3.491   2.471 -2.7428 -1.9166 -0.4553
13289TIP3   OH239809   8.102   5.609   0.633  0.1957 -0.0865  0.4005
13289TIP3    H139810   8.155   5.668   0.579  1.1138  0.7502  2.1676
13289TIP3    H239811   8.069   5.545   0.570  2.0902  0.2036 -1.0066
13290TIP3   OH239812   1.966   4.132   6.649  0.1452  0.2532  0.1154
13290TIP3    H139813   2.024   4.187   6.702 -1.4763  1.5360  0.6595
13290TIP3    H239814   1.940   4.061   6.708  0.4812  0.1533  0.1459
13291TIP3   OH239815   2.572   5.929   5.279 -0.1078  0.1858 -0.0996
13291TIP3    H139816   2.537   5.999   5.225 -1.2788 -1.3030 -1.3790
13291TIP3    H239817   2.532   5.942   5.365 -0.9341  0.6172 -0.5424
13292TIP3   OH239818   0.559   7.806   5.615  0.2353 -0.4448 -0.1619
13292TIP3    H139819   0.566   7.712   5.628 -0.7438 -0.5003 -0.0063
13292TIP3    H239820   0.468   7.821   5.591  0.4114  0.4497 -0.3191
13293TIP3   OH239821   2.663   3.500   2.334  0.7609 -0.3105  0.0849
13293TIP3    H139822   2.569   3.491   2.350  0.6252  0.3750 -0.2562
13293TIP3    H239823   2.681   3.593   2.352  1.5293 -0.6037  0.9070
13294TIP3   OH239824   3.407   5.273   1.519 -0.1195  0.1463 -0.9166
13294TIP3    H139825   3.390   5.367   1.524 -2.2430 -0.2345  0.1642
13294TIP3    H239826   3.339   5.239   1.460 -1.6988 -1.1123  1.4366
13295TIP3   OH239827   5.148   2.986   0.639  0.0984  0.2653  0.2168
13295TIP3    H139828   5.158   3.077   0.667 -2.4219  0.7990 -0.3307
13295TIP3    H239829   5.140   2.991   0.544 -0.6647 -0.4322  0.2313
13296TIP3   OH239830   1.913   2.857   5.119 -0.1821  0.0014  0.0874
13296TIP3    H139831   1.992   2.806   5.138  0.2111  0.8998  0.9234
13296TIP3    H239832   1.842   2.793   5.120  0.7462 -1.2837 -3.0221
13297TIP3   OH239833   5.355   2.681   5.909 -0.2495 -0.8709  0.5025
13297TIP3    H139834   5.347   2.605   5.966  0.2123 -1.6185 -0.3950
13297TIP3    H239835   5.397   2.647   5.830  0.1556  0.3610  0.1631
13298TIP3   OH239836   5.113   3.545   2.117 -0.4882 -0.3351  0.3273
13298TIP3    H139837   5.200   3.505   2.119  0.4471  1.3385 -2.3495
13298TIP3    H239838   5.062   3.492   2.179  2.6234 -0.7575  2.8090
13299TIP3   OH239839   5.507   0.696   3.084  0.1073  0.1236 -0.3631
13299TIP3    H139840   5.507   0.700   3.180  3.3657  0.9446 -0.2938
13299TIP3    H239841   5.504   0.603   3.064  1.4711 -0.1692  0.6495
13300TIP3   OH239842   0.965   4.627   5.636 -0.2288 -0.0466 -0.6696
13300TIP3    H139843   1.054   4.661   5.640  0.2000 -1.2217  0.3112
13300TIP3    H239844   0.945   4.621   5.542  0.8194 -0.0276 -0.8998
13301TIP3   OH239845   7.932   3.931   3.844  0.1459 -0.5488  0.6159
13301TIP3    H139846   7.919   3.971   3.758  3.8627 -0.0084  0.1522
13301TIP3    H239847   7.861   3.966   3.897 -1.6625 -0.0684 -1.9270
13302TIP3   OH239848   0.948   0.378   4.619  0.4047 -0.3046 -0.1115
13302TIP3    H139849   0.914   0.458   4.578 -0.1765  0.0504  1.0134
13302TIP3    H239850   0.895   0.307   4.583  1.2658 -0.2733 -1.5140
13303TIP3   OH239851   2.079   0.829   6.500  0.2777 -0.5001  0.0771
13303TIP3    H139852   2.097   0.736   6.485  1.7756 -0.6091  2.1362
13303TIP3    H239853   2.140   0.855   6.570 -0.7687  1.7952  0.2446
13304TIP3   OH239854   5.822   5.557   0.786  0.0308 -0.5759 -0.4936
13304TIP3    H139855   5.893   5.502   0.820  1.6779  0.6011 -1.8406
13304TIP3    H239856   5.742   5.514   0.816  1.2928 -1.9854  1.0592
13305TIP3   OH239857   0.056   0.829   4.680  0.7389  0.0522  0.0279
13305TIP3    H139858   0.147   0.838   4.709  1.5081 -0.6226 -1.9736
13305TIP3    H239859   0.046   0.895   4.611 -0.6265  0.7971  0.9020
13306TIP3   OH239860   3.032   2.283   4.634  0.3745  0.2529  0.2856
13306TIP3    H139861   3.099   2.235   4.682  2.1398  1.8534 -0.4373
13306TIP3    H239862   3.031   2.244   4.547  1.1218  0.8637 -0.0086
13307TIP3   OH239863   6.231   4.029   3.560 -0.0290  0.0696  0.8272
13307TIP3    H139864   6.213   4.122   3.549 -1.0990 -0.3161 -1.0481
13307TIP3    H239865   6.151   3.994   3.601 -0.2465 -0.2545  0.1428
13308TIP3   OH239866   6.794   6.643   4.000  0.0321  0.1169  0.1152
13308TIP3    H139867   6.700   6.641   3.982  0.3526 -0.1835 -1.6945
13308TIP3    H239868   6.819   6.734   3.985  0.3708 -0.2136 -1.4498
13309TIP3   OH239869   2.503   7.696   3.593 -0.8818 -0.4622 -0.1078
13309TIP3    H139870   2.501   7.694   3.688  1.7328  0.6864  0.0538
13309TIP3    H239871   2.494   7.788   3.570 -1.7228 -0.7496 -1.0145
13310TIP3   OH239872   8.055   3.094   0.956  0.0241  0.4504  0.3691
13310TIP3    H139873   8.022   3.107   1.045 -0.4989  0.4560  0.1783
13310TIP3    H239874   8.150   3.101   0.964  0.0930 -1.0447  1.1898
13311TIP3   OH239875   0.263   0.350   0.286 -0.0616 -0.4095 -0.3123
13311TIP3    H139876   0.204   0.283   0.321  1.0947 -0.4205  1.8333
13311TIP3    H239877   0.343   0.301   0.265  0.6962  0.2044  1.0173
13312TIP3   OH239878   1.211   5.710   6.605 -0.1759  0.4933  0.2909
13312TIP3    H139879   1.248   5.627   6.635 -1.0482 -0.8230 -2.0220
13312TIP3    H239880   1.180   5.692   6.516 -1.5480  2.9664  0.1772
13313TIP3   OH239881   1.171   2.320   5.624  0.5077  0.0401  0.0252
13313TIP3    H139882   1.219   2.249   5.668  1.6426  0.4081 -0.5900
13313TIP3    H239883   1.106   2.275   5.571  1.3028 -0.5747 -0.4573
13314TIP3   OH239884   1.090   6.080   0.702  0.2080  0.5866 -0.0729
13314TIP3    H139885   1.097   6.046   0.791  1.2591  2.9906  0.8516
13314TIP3    H239886   1.032   6.156   0.709  0.5782  1.0201 -1.3597
13315TIP3   OH239887   1.596   3.274   4.994 -0.1194 -0.2653  0.0732
13315TIP3    H139888   1.532   3.312   5.054 -2.8401 -2.0818 -1.3961
13315TIP3    H239889   1.598   3.181   5.017  2.6171 -0.1761  0.5000
13316TIP3   OH239890   4.792   7.451   2.560  0.3738 -0.1993 -0.6612
13316TIP3    H139891   4.838   7.518   2.609  1.2082 -0.9304 -0.4121
13316TIP3    H239892   4.737   7.499   2.499 -1.4190  0.7786  1.5728
13317TIP3   OH239893   4.600   2.822   4.867 -0.4299 -0.0823  0.0266
13317TIP3    H139894   4.663   2.755   4.894  0.4972  0.5997 -0.4176
13317TIP3    H239895   4.558   2.849   4.949 -0.5549 -0.9305  0.2584
13318TIP3   OH239896   7.186   5.745   4.877 -0.3028  0.1322  0.1174
13318TIP3    H139897   7.278   5.756   4.900 -0.7728  1.0466  1.6746
13318TIP3    H239898   7.188   5.704   4.790  1.5642  0.9512 -0.2762
13319TIP3   OH239899   5.882   7.449   2.615 -0.5709 -0.3196  0.6969
13319TIP3    H139900   5.931   7.370   2.638 -1.1471 -0.7918  0.3275
13319TIP3    H239901   5.809   7.418   2.562 -1.0574  0.4152  0.9171
13320TIP3   OH239902   0.725   0.161   1.750 -0.4196  0.0490 -0.3656
13320TIP3    H139903   0.704   0.148   1.843 -1.1304  3.5521  0.0997
13320TIP3    H239904   0.819   0.180   1.749 -0.5889  0.9455 -0.1964
13321TIP3   OH239905   4.712   2.398   1.939  0.0432  0.5491  0.2516
13321TIP3    H139906   4.654   2.448   1.882 -0.2445  1.3343  1.2080
13321TIP3    H239907   4.798   2.403   1.896 -0.1479  1.1977 -0.0736
13322TIP3   OH239908   2.066   3.108   5.298  0.0338  0.0153 -0.3515
13322TIP3    H139909   2.004   3.165   5.343  0.3879  1.3197 -1.4180
13322TIP3    H239910   2.066   3.140   5.207  0.5026 -1.4898 -0.9217
13323TIP3   OH239911   6.218   1.966   5.479  0.2335 -0.2157 -0.2076
13323TIP3    H139912   6.263   1.982   5.561 -1.7379  2.2674  0.5292
13323TIP3    H239913   6.197   1.873   5.480 -1.5106  0.0752  3.1313
13324TIP3   OH239914   0.943   1.104   4.657 -0.3699  0.0519  0.2931
13324TIP3    H139915   1.004   1.053   4.603 -0.0009  1.5107 -0.7585
13324TIP3    H239916   0.980   1.193   4.656 -1.7766  0.6710  0.7997
13325TIP3   OH239917   0.244   1.135   6.704  0.0449  0.0345  0.3200
13325TIP3    H139918   0.211   1.048   6.726  2.6219 -1.0647  0.2178
13325TIP3    H239919   0.322   1.146   6.760  1.6900  0.8488 -1.9924
13326TIP3   OH239920   6.514   3.869   6.468 -0.1334  0.0401  0.4224
13326TIP3    H139921   6.477   3.825   6.391  1.0141 -0.1068 -0.0632
13326TIP3    H239922   6.608   3.866   6.454  0.1064 -0.2052  1.9801
13327TIP3   OH239923   6.190   5.423   6.728 -0.0138 -0.3488  0.1210
13327TIP3    H139924   6.210   5.414   6.635 -0.1369  1.9349 -0.1797
13327TIP3    H239925   6.169   5.516   6.739 -4.0801 -1.2365  1.6455
13328TIP3   OH239926   4.881   5.865   5.371 -0.4401  0.0519  0.0685
13328TIP3    H139927   4.908   5.790   5.424  0.9418 -1.9381 -3.1118
13328TIP3    H239928   4.933   5.938   5.404  1.0868 -1.3083  0.8387
13329TIP3   OH239929   2.689   1.618   6.314 -0.0287  0.6535 -0.1974
13329TIP3    H139930   2.669   1.524   6.315  0.2847  0.5878 -0.0920
13329TIP3    H239931   2.714   1.637   6.405  0.7419  0.6608 -0.4052
13330TIP3   OH239932   0.056   4.201   6.636  0.3444  0.8738 -0.4287
13330TIP3    H139933  -0.027   4.249   6.634 -0.8031 -0.9873 -0.5181
13330TIP3    H239934   0.072   4.184   6.729 -0.1944 -0.0483 -0.4913
13331TIP3   OH239935   3.441   0.399   3.821 -0.4623  0.2493  0.2474
13331TIP3    H139936   3.447   0.406   3.917  1.6259 -0.5873  0.2287
13331TIP3    H239937   3.356   0.356   3.806 -1.7360  2.1306  1.5726
13332TIP3   OH239938   0.180   1.813   4.539 -0.0722 -0.3249 -0.0396
13332TIP3    H139939   0.170   1.900   4.499  1.4390 -0.8781 -1.8099
13332TIP3    H239940   0.232   1.829   4.618  0.0331  0.4165 -0.2475
13333TIP3   OH239941   7.155   6.385   1.895 -0.2636 -0.0541  0.3116
13333TIP3    H139942   7.230   6.328   1.912  0.2711  0.7272  0.5973
13333TIP3    H239943   7.181   6.470   1.930 -0.9351  0.4451 -0.3869
13334TIP3   OH239944   4.028   2.364   3.591 -0.0469 -0.2843 -0.3227
13334TIP3    H139945   4.090   2.392   3.658 -1.4524 -0.8784  1.3025
13334TIP3    H239946   3.943   2.359   3.637 -0.9530 -1.2962 -1.9902
13335TIP3   OH239947   6.887   3.373   1.949  0.7113  0.0847 -0.2911
13335TIP3    H139948   6.821   3.329   2.003 -0.0372 -1.0396 -2.0169
13335TIP3    H239949   6.942   3.420   2.011 -0.1649 -1.0596  1.4239
13336TIP3   OH239950   3.927   0.794   0.147 -0.2138 -0.3197 -0.3048
13336TIP3    H139951   3.843   0.828   0.177 -0.9684 -0.3583 -2.2681
13336TIP3    H239952   3.992   0.852   0.187 -1.3092  1.2863 -0.7842
13337TIP3   OH239953   2.193   2.035   0.199  0.0314 -0.4750  0.1451
13337TIP3    H139954   2.216   2.118   0.158 -0.5738  0.1137  0.9585
13337TIP3    H239955   2.210   1.969   0.132 -1.4855  0.4933 -1.2469
13338TIP3   OH239956   4.624   1.633   2.122 -0.7067  0.3205  0.3633
13338TIP3    H139957   4.649   1.633   2.030 -2.8011 -1.6021 -0.3098
13338TIP3    H239958   4.570   1.712   2.133 -0.5232  0.5090 -0.0847
13339TIP3   OH239959   0.172   5.312   2.106 -0.2962  0.1242 -0.5847
13339TIP3    H139960   0.196   5.401   2.082 -0.1217  0.1660 -0.2609
13339TIP3    H239961   0.161   5.315   2.201 -0.3116 -0.1951 -0.5757
13340TIP3   OH239962   0.852   3.383   2.658 -0.3834  0.0832  0.6988
13340TIP3    H139963   0.812   3.444   2.596 -1.2062  1.9911  2.9807
13340TIP3    H239964   0.815   3.298   2.635  2.3649 -0.2206 -3.9469
13341TIP3   OH239965   1.517   2.732   4.037  0.0965  0.2240  0.7487
13341TIP3    H139966   1.522   2.801   4.103 -0.3825  1.4512 -0.4388
13341TIP3    H239967   1.426   2.703   4.039 -0.1458  0.8903  0.0549
13342TIP3   OH239968   6.525   6.589   2.645  0.5929 -0.2935  0.0677
13342TIP3    H139969   6.512   6.494   2.644  0.2204 -0.2647  1.1037
13342TIP3    H239970   6.549   6.609   2.736  1.3014  0.5274 -0.2813
13343TIP3   OH239971   8.078   6.178   6.360 -0.2248 -0.5583 -0.4983
13343TIP3    H139972   8.166   6.167   6.324 -0.5284  1.0851 -1.8731
13343TIP3    H239973   8.022   6.125   6.304 -0.2085 -1.1046 -0.0080
13344TIP3   OH239974   6.686   0.606   5.001 -0.6407  0.9946 -0.3477
13344TIP3    H139975   6.781   0.615   5.003 -0.7190  2.6893 -1.7764
13344TIP3    H239976   6.653   0.695   4.995 -2.3689  0.4666  0.5330
13345TIP3   OH239977   2.130   0.163   5.186 -0.0542 -0.3330  0.2804
13345TIP3    H139978   2.142   0.207   5.270 -2.1484  2.9499 -0.9456
13345TIP3    H239979   2.068   0.093   5.203 -0.2061  0.0848  1.5230
13346TIP3   OH239980   1.855   0.823   0.246  1.1008 -0.1023  0.3857
13346TIP3    H139981   1.846   0.899   0.303 -2.6727 -0.2179  0.2052
13346TIP3    H239982   1.807   0.847   0.166  2.5636 -1.5393 -1.0124
13347TIP3   OH239983   7.128   1.814   3.701 -0.3972  0.4655 -0.1422
13347TIP3    H139984   7.039   1.785   3.721 -0.3387  0.4208  0.0529
13347TIP3    H239985   7.116   1.891   3.644 -0.5467 -0.3108 -1.1974
13348TIP3   OH239986   6.447   3.337   1.870 -0.7820  0.0517  0.8057
13348TIP3    H139987   6.450   3.366   1.779  1.5945 -2.0080  0.1251
13348TIP3    H239988   6.376   3.388   1.909 -1.0737  1.8800 -1.8651
13349TIP3   OH239989   7.007   6.132   0.098  0.2465  0.4482 -0.8730
13349TIP3    H139990   6.957   6.051   0.088  1.4654 -0.3594 -0.6973
13349TIP3    H239991   6.968   6.175   0.174  2.3096 -2.1584  1.9207
13350TIP3   OH239992   7.905   3.009   3.156  0.4144  0.0087  0.4010
13350TIP3    H139993   7.975   3.037   3.215  0.3364  1.5641 -0.2002
13350TIP3    H239994   7.854   3.089   3.140 -0.1268 -0.5889 -1.0023
13351TIP3   OH239995   6.859   3.202   1.701  0.1262  0.2418 -0.4018
13351TIP3    H139996   6.860   3.254   1.781 -1.1696 -3.0149  1.9393
13351TIP3    H239997   6.825   3.262   1.634 -1.4778  2.3527  2.0982
13352TIP3   OH239998   2.078   3.659   2.879 -0.1258  0.5130 -0.0007
13352TIP3    H139999   2.108   3.750   2.871  1.3600 -0.0240 -0.9706
13352TIP3    H240000   2.143   3.617   2.934 -1.8133  0.4128  2.0600
13353TIP3   OH240001   4.289   5.541   1.744  0.2577  0.1172 -0.4936
13353TIP3    H140002   4.373   5.509   1.777  0.8424  1.2661 -0.8382
13353TIP3    H240003   4.298   5.539   1.649 -0.3374 -0.3144 -0.5540
13354TIP3   OH240004   0.393   5.425   0.684 -0.0123 -0.6102  0.2327
13354TIP3    H140005   0.462   5.465   0.631  0.5796 -2.3221 -0.3608
13354TIP3    H240006   0.385   5.483   0.760  0.0363  1.1905 -1.0673
13355TIP3   OH240007   1.309   4.566   6.011  0.4139 -0.2139  0.0783
13355TIP3    H140008   1.226   4.613   6.005  0.6538  0.0641 -1.5180
13355TIP3    H240009   1.349   4.597   6.092 -0.5801  0.3966  0.3515
13356TIP3   OH240010   5.235   6.604   3.668  0.7572 -0.0694  0.3150
13356TIP3    H140011   5.195   6.522   3.639  2.0210 -0.7720  0.4544
13356TIP3    H240012   5.256   6.651   3.588  3.2607 -1.5207  0.0083
13357TIP3   OH240013   0.804   4.211   3.880  0.2227 -0.1265 -0.1633
13357TIP3    H140014   0.880   4.255   3.841  1.6346 -1.8010  0.5565
13357TIP3    H240015   0.749   4.188   3.806 -0.5830  2.7273 -0.5805
13358TIP3   OH240016   5.820   6.541   3.794  0.2240 -0.4562 -0.2291
13358TIP3    H140017   5.787   6.534   3.883 -1.8152 -0.9008 -0.9827
13358TIP3    H240018   5.847   6.452   3.772  0.9010 -0.3119 -0.0208
13359TIP3   OH240019   5.539   5.301   2.414 -0.3111 -0.2231 -0.1827
13359TIP3    H140020   5.461   5.246   2.412 -2.3722  2.3550 -4.1100
13359TIP3    H240021   5.523   5.363   2.486 -1.1810 -0.6214 -0.0239
13360TIP3   OH240022   6.967   1.204   4.105 -0.5566  0.2088 -0.1201
13360TIP3    H140023   6.953   1.207   4.200 -1.1008  2.7769 -0.1996
13360TIP3    H240024   6.880   1.186   4.069 -0.1510 -1.9317 -0.1624
13361TIP3   OH240025   3.916   0.216   3.726 -0.2575 -0.7203  0.1948
13361TIP3    H140026   3.955   0.207   3.639  1.1027  0.3439  0.6697
13361TIP3    H240027   3.824   0.236   3.709  0.0075 -0.4526 -1.0079
13362TIP3   OH240028   6.027   6.271   4.980  0.3277  1.0039  0.4176
13362TIP3    H140029   6.010   6.342   4.919  1.0963 -0.5781 -1.7608
13362TIP3    H240030   5.945   6.263   5.030 -0.0669  2.8122  0.1281
13363TIP3   OH240031   5.132   6.436   1.300 -0.4244  0.2140 -0.2691
13363TIP3    H140032   5.190   6.482   1.360 -0.4139  0.0093 -0.1231
13363TIP3    H240033   5.086   6.372   1.355 -2.0849  1.5480 -0.0115
13364TIP3   OH240034   3.680   6.234   4.628  0.0517  0.2373  0.1959
13364TIP3    H140035   3.762   6.250   4.582  0.1792  0.4986  0.5094
13364TIP3    H240036   3.649   6.321   4.654 -0.3268  0.1405  0.0722
13365TIP3   OH240037   6.796   6.557   5.983 -0.2675 -0.5506 -0.5443
13365TIP3    H140038   6.759   6.542   6.070 -1.4715  1.3185 -0.6859
13365TIP3    H240039   6.823   6.649   5.983 -0.1419 -0.5534 -2.0902
13366TIP3   OH240040   1.541   2.992   4.947 -0.5791 -0.3518  0.4288
13366TIP3    H140041   1.496   2.968   4.866 -3.3024  0.4763  1.5897
13366TIP3    H240042   1.494   2.945   5.016 -0.0958  1.0570  1.7980
13367TIP3   OH240043   6.231   0.643   1.212 -0.3164  0.1294  0.1031
13367TIP3    H140044   6.190   0.708   1.268  1.2067  1.1868  0.0514
13367TIP3    H240045   6.172   0.635   1.137 -1.1917  0.4309  0.7459
13368TIP3   OH240046   7.592   0.922   4.251  0.2302  0.6547 -0.6246
13368TIP3    H140047   7.636   0.958   4.174 -1.4649  0.4552 -1.7218
13368TIP3    H240048   7.532   0.857   4.217  1.0115 -1.0688  1.0744
13369TIP3   OH240049   8.312   3.321   2.369  1.0950 -0.4496 -0.2833
13369TIP3    H140050   8.237   3.334   2.310  2.1073  0.0646 -1.4981
13369TIP3    H240051   8.315   3.227   2.384 -0.2790 -0.4006  0.4628
13370TIP3   OH240052   1.737   3.745   4.595  0.1938 -0.3663  0.5653
13370TIP3    H140053   1.809   3.682   4.595 -0.2492 -0.8905  1.1577
13370TIP3    H240054   1.760   3.808   4.664  1.0383  0.6186 -0.5764
13371TIP3   OH240055   4.534   7.292   6.538  0.7562 -0.5338  0.6271
13371TIP3    H140056   4.570   7.275   6.451  0.3122 -0.7687  0.4864
13371TIP3    H240057   4.529   7.205   6.579 -1.8960 -0.8805 -0.2344
13372TIP3   OH240058   3.684   0.610   0.473 -0.0746 -0.2470  0.0333
13372TIP3    H140059   3.720   0.531   0.434 -0.4242 -0.0218 -0.7721
13372TIP3    H240060   3.618   0.640   0.410  0.0587  0.6837  0.3218
13373TIP3   OH240061   7.174   2.226   0.441  0.3757 -0.0009  0.3056
13373TIP3    H140062   7.191   2.320   0.434  1.2795 -0.0333  1.5432
13373TIP3    H240063   7.158   2.212   0.535 -2.4066 -0.6898 -0.2093
13374TIP3   OH240064   2.299   1.452   4.289  0.7457  0.3536  0.1723
13374TIP3    H140065   2.233   1.482   4.226 -1.4069 -1.1434  1.5644
13374TIP3    H240066   2.305   1.358   4.273  0.7815  0.0868  1.6103
13375TIP3   OH240067   3.014   6.039   0.370  0.0636 -0.0128  0.5991
13375TIP3    H140068   3.033   5.947   0.387  0.1887 -0.4662 -1.6878
13375TIP3    H240069   2.924   6.050   0.402 -0.7793 -1.5582 -1.0038
13376TIP3   OH240070   2.174   0.974  -0.012  0.2868 -0.0466  0.0332
13376TIP3    H140071   2.269   0.986  -0.020  0.4244 -0.8208  0.3517
13376TIP3    H240072   2.144   1.052   0.034  1.3338 -1.3471  3.2490
13377TIP3   OH240073   0.246   6.868   1.853 -0.3511  0.1557 -0.5410
13377TIP3    H140074   0.338   6.854   1.875 -0.5702  0.8204  0.9241
13377TIP3    H240075   0.237   6.837   1.762  0.9869 -1.2408 -0.2325
13378TIP3   OH240076   4.247   0.359   1.413 -0.1892  0.0892 -0.1613
13378TIP3    H140077   4.255   0.413   1.335  0.0716 -0.6880 -0.6788
13378TIP3    H240078   4.152   0.351   1.427 -0.2489 -0.2116 -0.7134
13379TIP3   OH240079   2.482   5.987   3.730 -0.2452  0.3330  0.4160
13379TIP3    H140080   2.541   5.993   3.806  0.3084  1.0452 -0.0529
13379TIP3    H240081   2.421   5.917   3.753  1.0636 -0.7552  0.7235
13380TIP3   OH240082   8.219   6.240   4.553 -0.3067 -0.3105 -1.0930
13380TIP3    H140083   8.147   6.207   4.608 -0.5986 -1.3201 -2.0613
13380TIP3    H240084   8.175   6.275   4.475  0.0977  1.2320 -0.6684
13381TIP3   OH240085   0.034   4.293   4.944  0.0012  0.6148 -0.2481
13381TIP3    H140086   0.069   4.274   5.031  0.3366  0.2788 -0.4527
13381TIP3    H240087   0.108   4.281   4.885 -0.5227 -0.4064 -0.7261
13382TIP3   OH240088   6.822   4.157   4.985  0.2309 -0.5366 -0.3589
13382TIP3    H140089   6.836   4.189   4.895 -1.5143 -0.0782 -0.4995
13382TIP3    H240090   6.863   4.224   5.040  1.2506 -0.7803 -0.7830
13383TIP3   OH240091   5.230   4.918   1.263  0.0622 -0.6927 -0.3108
13383TIP3    H140092   5.169   4.844   1.265  0.3721 -0.9478 -0.3022
13383TIP3    H240093   5.299   4.894   1.324 -0.6916  0.3526  1.0306
13384TIP3   OH240094   6.145   7.522   3.271 -0.3969  0.1474 -0.2281
13384TIP3    H140095   6.081   7.511   3.341 -0.0577 -0.5963 -0.0279
13384TIP3    H240096   6.118   7.603   3.227 -0.3833  0.8586  0.9972
13385TIP3   OH240097   6.450   4.786   2.048 -0.3069  0.2995 -0.0522
13385TIP3    H140098   6.425   4.836   2.125 -1.7497 -0.3902 -0.0451
13385TIP3    H240099   6.398   4.822   1.976 -0.2881 -0.2162 -0.3363
13386TIP3   OH240100   7.389   7.849   2.929  0.2536  0.1666 -0.6459
13386TIP3    H140101   7.408   7.757   2.915 -2.1215 -0.2223 -1.7652
13386TIP3    H240102   7.309   7.850   2.982  1.1581  1.6321  0.8246
13387TIP3   OH240103   2.779   4.253   2.605 -0.0543 -0.4435  0.0516
13387TIP3    H140104   2.732   4.305   2.540  0.4743  0.3275  0.2609
13387TIP3    H240105   2.839   4.198   2.554 -0.8389 -1.0923 -0.1889
13388TIP3   OH240106   6.676   5.198   0.993  0.2138  0.1177 -0.7668
13388TIP3    H140107   6.587   5.201   0.957  0.7055  0.2396 -2.0083
13388TIP3    H240108   6.721   5.273   0.954  0.8976  0.0008 -0.2249
13389TIP3   OH240109   2.805   6.684   1.207  0.1381  0.1281  0.0497
13389TIP3    H140110   2.865   6.656   1.137  0.9308 -1.8883  1.4469
13389TIP3    H240111   2.857   6.742   1.262 -0.3703  1.4049 -0.7839
13390TIP3   OH240112   8.177   6.117   1.559 -0.2276  0.0010  0.0162
13390TIP3    H140113   8.117   6.173   1.609 -0.8128  0.1450 -0.8147
13390TIP3    H240114   8.209   6.174   1.488 -0.1950 -0.4754 -0.3561
13391TIP3   OH240115   2.928   2.907   4.777 -0.0008 -0.1856  0.0326
13391TIP3    H140116   2.909   2.847   4.849  0.5505 -1.5827 -0.9398
13391TIP3    H240117   3.023   2.911   4.772 -0.0251  0.7706  0.0585
13392TIP3   OH240118   6.954   6.314   1.478 -0.0570 -0.3038  0.2465
13392TIP3    H140119   6.982   6.222   1.477  0.5256 -0.1545  1.2697
13392TIP3    H240120   6.916   6.329   1.392  2.1778 -0.8007 -0.8839
13393TIP3   OH240121   6.270   6.048   1.542  0.3740 -0.4394  0.0107
13393TIP3    H140122   6.228   5.983   1.485  2.3031 -1.9141  0.1749
13393TIP3    H240123   6.322   6.101   1.482  1.1377 -0.9653  0.1974
13394TIP3   OH240124   5.139   7.636   1.027  0.3827 -0.2944 -0.1129
13394TIP3    H140125   5.084   7.703   0.986  0.8989 -0.1042 -0.5055
13394TIP3    H240126   5.078   7.584   1.079  0.0856  0.9695  0.8484
13395TIP3   OH240127   0.994   0.666   1.055  0.6938 -0.0712  0.2470
13395TIP3    H140128   0.933   0.596   1.031 -0.2695  0.7525  0.2282
13395TIP3    H240129   0.945   0.721   1.116  1.6831  0.2014  0.8237
13396TIP3   OH240130   0.429   1.407   6.021  0.1577  0.3288  0.2819
13396TIP3    H140131   0.461   1.396   5.932 -0.0980 -0.9792  0.3297
13396TIP3    H240132   0.489   1.470   6.061  2.8127 -2.0972  0.4242
13397TIP3   OH240133   5.775   6.620   3.223 -0.1354  0.1581  0.2265
13397TIP3    H140134   5.725   6.580   3.295  1.0992 -0.8000  0.5963
13397TIP3    H240135   5.781   6.551   3.157  0.2844  0.4235 -0.0174
13398TIP3   OH240136   0.725   2.551   4.736 -0.3603  0.3138 -0.1225
13398TIP3    H140137   0.720   2.607   4.813  0.4516  0.8045 -0.4181
13398TIP3    H240138   0.767   2.471   4.768  1.5413  1.1532 -0.3756
13399TIP3   OH240139   5.351   1.224   0.270 -0.4272  0.4457 -0.0575
13399TIP3    H140140   5.417   1.201   0.335 -0.5705 -0.3060 -0.1673
13399TIP3    H240141   5.378   1.310   0.238 -0.2300  0.7238  0.8254
13400TIP3   OH240142   2.139   1.737   3.906  0.2379  0.1147 -0.6767
13400TIP3    H140143   2.113   1.784   3.827  0.5683  1.7569  0.1314
13400TIP3    H240144   2.219   1.691   3.881 -0.2251 -0.2422 -1.5604
13401TIP3   OH240145   8.256   3.059   4.110  0.0130  0.4563  0.2809
13401TIP3    H140146   8.196   2.994   4.146 -2.5653  2.0268 -0.9189
13401TIP3    H240147   8.240   3.058   4.016  0.6570  2.0484  0.1111
13402TIP3   OH240148   0.279   2.215   5.029  0.2475 -0.1390 -0.8980
13402TIP3    H140149   0.295   2.284   4.964  0.3578 -0.3145 -1.0590
13402TIP3    H240150   0.331   2.242   5.105 -1.0870  0.8679 -0.3079
13403TIP3   OH240151   3.702   4.639   4.230 -0.3243  0.2912 -0.3685
13403TIP3    H140152   3.756   4.572   4.187 -0.3245  0.6538 -0.9456
13403TIP3    H240153   3.639   4.590   4.282  0.7648 -0.1448  0.5814
13404TIP3   OH240154   3.573   3.852   3.204  0.0661  0.0289  0.4950
13404TIP3    H140155   3.489   3.826   3.166  0.2685  1.5375 -1.1331
13404TIP3    H240156   3.554   3.936   3.247  0.4705 -0.2914  1.3221
13405TIP3   OH240157   7.970   5.120   0.105  0.3264 -0.2293  0.0790
13405TIP3    H140158   7.881   5.153   0.091  0.7897 -0.0369 -3.3778
13405TIP3    H240159   7.959   5.026   0.119 -0.4127 -0.2552 -0.6187
13406TIP3   OH240160   5.992   4.794   5.415  0.1565 -0.1293  0.5938
13406TIP3    H140161   6.031   4.729   5.356 -2.3710 -1.0308 -0.2345
13406TIP3    H240162   6.058   4.807   5.484  1.5908 -2.0053 -0.3339
13407TIP3   OH240163   3.857   1.853   1.736  0.1217 -0.4176  0.1068
13407TIP3    H140164   3.831   1.853   1.829  0.8529 -4.1622  0.4734
13407TIP3    H240165   3.775   1.868   1.689 -0.3294  1.1547  1.2791
13408TIP3   OH240166   6.711   1.024   6.739  0.3579 -0.2841  0.4089
13408TIP3    H140167   6.632   0.981   6.772 -0.4392  0.7287 -0.1212
13408TIP3    H240168   6.751   0.959   6.681 -0.6396 -0.4442 -0.1224
13409TIP3   OH240169   0.547   6.451   2.818 -0.3614  0.1855  0.4343
13409TIP3    H140170   0.522   6.374   2.766 -0.8527  0.5331  0.1534
13409TIP3    H240171   0.517   6.431   2.907 -1.2005  0.3823  0.2038
13410TIP3   OH240172   7.545   3.390   3.348  0.0965  0.3811 -0.6512
13410TIP3    H140173   7.473   3.331   3.323  0.0772  0.1627 -0.0935
13410TIP3    H240174   7.593   3.342   3.415  1.2125  0.2150 -1.5399
13411TIP3   OH240175   5.237   3.631   5.938 -0.9604  0.1094  0.0697
13411TIP3    H140176   5.248   3.544   5.977  1.5245  0.3291  0.0102
13411TIP3    H240177   5.216   3.613   5.846  0.1899 -0.4753 -0.1038
13412TIP3   OH240178   0.174   0.686   3.912  0.2382  0.2841 -0.2893
13412TIP3    H140179   0.157   0.656   4.002  0.7863 -0.6053 -0.4652
13412TIP3    H240180   0.209   0.608   3.868 -2.7433 -0.1921 -2.0785
13413TIP3   OH240181   5.316   4.184   5.209 -0.2720 -0.1892 -0.1050
13413TIP3    H140182   5.341   4.095   5.184 -1.5416  0.0730 -2.6329
13413TIP3    H240183   5.231   4.174   5.251 -1.8509 -0.0614 -2.9757
13414TIP3   OH240184   2.452   3.510   3.286 -0.3151 -0.3180  0.4954
13414TIP3    H140185   2.453   3.418   3.262  0.8095 -0.7905  2.1322
13414TIP3    H240186   2.377   3.519   3.344  0.0664 -0.4162  1.0131
13415TIP3   OH240187   0.109   5.901   2.681 -0.3928 -0.0871 -0.1804
13415TIP3    H140188   0.045   5.967   2.708  0.1692 -0.3772  2.0199
13415TIP3    H240189   0.123   5.848   2.759  2.3703 -0.1612 -0.6443
13416TIP3   OH240190   6.483   6.050   2.580 -0.3137  0.2326  0.1442
13416TIP3    H140191   6.433   6.067   2.660 -1.6877  1.3725 -0.9203
13416TIP3    H240192   6.423   5.999   2.525  1.3764 -2.4802  0.6302
13417TIP3   OH240193   6.461   3.055   6.510  0.2012 -0.3693 -0.3980
13417TIP3    H140194   6.487   3.011   6.429  0.4530 -2.2229  0.6443
13417TIP3    H240195   6.382   3.104   6.487  0.4309 -0.6464 -1.8304
13418TIP3   OH240196   1.645   3.181   0.791 -0.0735 -0.3182  0.4494
13418TIP3    H140197   1.550   3.183   0.800 -0.1120 -0.3092  0.0678
13418TIP3    H240198   1.661   3.117   0.721  0.2662 -1.2561  1.3546
13419TIP3   OH240199   2.392   2.592   2.809 -0.1334  0.2721 -0.2068
13419TIP3    H140200   2.430   2.624   2.727 -0.0916  0.6367 -0.0490
13419TIP3    H240201   2.454   2.528   2.842 -0.4327 -0.3085 -0.7563
13420TIP3   OH240202   1.826   1.038   0.532 -0.4745 -0.1300 -0.5389
13420TIP3    H140203   1.864   1.109   0.584 -0.5985 -1.5134  1.5568
13420TIP3    H240204   1.824   0.963   0.592  0.5114 -2.2055 -2.9230
13421TIP3   OH240205   1.559   7.804   2.916  0.4412  0.3373 -0.4738
13421TIP3    H140206   1.620   7.743   2.875  0.9705  0.4509  0.1280
13421TIP3    H240207   1.613   7.855   2.976 -0.7281 -1.5971  2.3845
13422TIP3   OH240208   1.880   1.947   1.548  0.0010 -0.4339 -0.4274
13422TIP3    H140209   1.790   1.917   1.542  0.4463 -2.1182  0.7159
13422TIP3    H240210   1.894   1.997   1.467 -1.7615 -0.5883 -0.8744
13423TIP3   OH240211   4.948   3.035   1.214  0.2899 -0.3185 -0.0024
13423TIP3    H140212   5.017   2.977   1.249 -1.4028 -0.6868  3.1228
13423TIP3    H240213   4.869   2.982   1.217 -0.9955  1.5661  1.3162
13424TIP3   OH240214   6.502   1.854   4.266 -0.6187 -0.3664  0.4017
13424TIP3    H140215   6.424   1.799   4.275 -1.1166  0.3798  0.8511
13424TIP3    H240216   6.555   1.833   4.343 -1.8620  1.3549  1.8333
13425TIP3   OH240217   1.317   2.676   0.861 -0.1601  0.0699 -0.2368
13425TIP3    H140218   1.310   2.588   0.898 -0.8276  0.0148 -0.4877
13425TIP3    H240219   1.346   2.730   0.934  0.6163 -0.4200 -0.1692
13426TIP3   OH240220   5.761   6.665   4.513  0.2075  0.0047 -0.3477
13426TIP3    H140221   5.821   6.739   4.503  1.0036 -0.8612 -2.8081
13426TIP3    H240222   5.685   6.689   4.460  0.7240 -1.1273 -1.6567
13427TIP3   OH240223   5.390   5.690   4.484 -0.7429 -0.0599 -0.0963
13427TIP3    H140224   5.384   5.671   4.391 -0.3170 -0.4608 -0.0431
13427TIP3    H240225   5.370   5.784   4.491  0.8953  0.3818 -0.7845
13428TIP3   OH240226   4.869   7.487   6.661 -0.1832  0.3614  0.4770
13428TIP3    H140227   4.796   7.500   6.721  0.0312  0.5005  0.7084
13428TIP3    H240228   4.888   7.393   6.666 -1.8566 -0.1502 -1.3374
13429TIP3   OH240229   6.790   5.961   6.491 -0.1018  0.5894  0.4847
13429TIP3    H140230   6.762   5.882   6.536  1.3491  0.0512  0.4968
13429TIP3    H240231   6.791   5.936   6.398 -0.1433  0.7551  0.4394
13430TIP3   OH240232   5.772   0.130   1.452 -0.3793  0.2148 -0.1468
13430TIP3    H140233   5.779   0.221   1.479 -2.4384  0.9212 -1.7152
13430TIP3    H240234   5.709   0.131   1.380  1.0606 -2.1918 -1.5788
13431TIP3   OH240235   8.230   5.812   0.500 -0.5052  0.5816  0.8069
13431TIP3    H140236   8.237   5.896   0.455  0.6130 -0.2453 -0.6471
13431TIP3    H240237   8.319   5.794   0.531 -0.3715 -0.7489 -0.2510
13432TIP3   OH240238   4.330   0.773   1.049 -0.0770  0.0883 -0.2651
13432TIP3    H140239   4.354   0.717   0.975  1.4071 -1.4862  1.3022
13432TIP3    H240240   4.236   0.759   1.060 -0.0631 -0.6934 -1.0223
13433TIP3   OH240241   4.597   7.382   3.598  0.2867 -0.0805  1.0403
13433TIP3    H140242   4.611   7.402   3.691  0.6399 -1.1763  1.2357
13433TIP3    H240243   4.533   7.311   3.598  0.1253  0.0606  0.4242
13434TIP3   OH240244  -0.013   7.806   2.020 -0.0209  0.1894 -0.3069
13434TIP3    H140245   0.053   7.775   1.958  2.6160  1.9479  1.3966
13434TIP3    H240246   0.020   7.891   2.049 -3.4546  1.5001  0.1954
13435TIP3   OH240247   3.789   0.585   3.044  0.2311  0.1725  0.4335
13435TIP3    H140248   3.884   0.593   3.030  0.2943 -1.0211  0.0831
13435TIP3    H240249   3.751   0.631   2.969  0.5404 -0.2381  0.0188
13436TIP3   OH240250   5.091   5.733   2.910  0.1921  0.2912  0.1870
13436TIP3    H140251   4.998   5.723   2.928 -0.3095  1.6506 -1.4046
13436TIP3    H240252   5.134   5.727   2.996 -1.5495  1.7899  1.2108
13437TIP3   OH240253   6.312   4.295   4.138 -0.4422 -0.0626  0.0848
13437TIP3    H140254   6.253   4.348   4.084 -0.8616 -0.3284  0.2740
13437TIP3    H240255   6.307   4.334   4.225  0.7557  0.7875 -0.1965
13438TIP3   OH240256   7.265   3.998   2.413  0.0639 -0.4711 -0.4695
13438TIP3    H140257   7.272   3.960   2.501  4.1697  0.6837 -0.0964
13438TIP3    H240258   7.225   4.084   2.427 -1.4086 -1.1844 -0.1208
13439TIP3   OH240259   7.781   2.338   6.427 -0.2825 -0.1299  0.1657
13439TIP3    H140260   7.746   2.268   6.371  1.6572 -0.6529 -0.4701
13439TIP3    H240261   7.745   2.418   6.389 -0.7550 -0.6321 -0.4833
13440TIP3   OH240262   0.142   7.637   3.936 -0.3560  0.0981  0.1926
13440TIP3    H140263   0.155   7.683   3.853  1.3508 -0.0655  0.3392
13440TIP3    H240264   0.056   7.666   3.966 -1.2677 -0.2547 -1.8744
13441TIP3   OH240265   0.247   4.864   4.720  0.3678 -0.6232 -0.4510
13441TIP3    H140266   0.165   4.886   4.764  0.3843 -0.8922 -0.2805
13441TIP3    H240267   0.245   4.914   4.639 -0.1354 -0.9085 -0.6201
13442TIP3   OH240268   7.213   7.294   0.607  0.2900  0.1022 -0.1138
13442TIP3    H140269   7.218   7.360   0.538 -3.1231  1.1094  0.4040
13442TIP3    H240270   7.243   7.339   0.685  3.4022 -0.8096 -0.6283
13443TIP3   OH240271   2.862   7.523   5.976  0.3465  0.0975 -0.6623
13443TIP3    H140272   2.779   7.542   5.933 -0.6126 -1.2320  0.5185
13443TIP3    H240273   2.893   7.607   6.008 -0.1643  0.7165 -1.7530
13444TIP3   OH240274   1.793   4.441   2.215  0.4597 -0.0034 -0.2973
13444TIP3    H140275   1.835   4.521   2.182  0.4311  0.2070  0.1603
13444TIP3    H240276   1.738   4.411   2.142  0.0526  0.6984 -0.2963
13445TIP3   OH240277   1.960   6.128   6.102 -0.7053  0.4185  0.4580
13445TIP3    H140278   1.930   6.108   6.191 -0.2584 -1.9101  0.1527
13445TIP3    H240279   1.960   6.044   6.057  1.0627  1.1936 -1.1563
13446TIP3   OH240280   0.574   5.701   5.768 -0.2750  0.5095  0.0525
13446TIP3    H140281   0.547   5.629   5.825  1.9154 -0.0449  0.4702
13446TIP3    H240282   0.502   5.710   5.706 -0.4409 -2.3312 -0.3033
13447TIP3   OH240283   7.514   0.578   2.944 -0.4952 -0.1255  0.1658
13447TIP3    H140284   7.429   0.619   2.964 -1.5163 -0.2662 -3.2401
13447TIP3    H240285   7.493   0.487   2.925  0.5250 -0.3160 -0.0869
13448TIP3   OH240286   3.859   2.104   3.136 -0.1157 -0.2112  0.1106
13448TIP3    H140287   3.899   2.092   3.222  1.8916 -0.9139 -0.8268
13448TIP3    H240288   3.844   2.015   3.105  0.3633 -0.0117 -0.7360
13449TIP3   OH240289   0.696   0.468   1.640  0.4930 -0.4237  0.1222
13449TIP3    H140290   0.658   0.419   1.713 -0.3991  1.6286  1.1178
13449TIP3    H240291   0.623   0.516   1.602  1.3001  0.0541 -0.8968
13450TIP3   OH240292   4.714   5.099   4.364 -0.4590  0.2851 -0.2219
13450TIP3    H140293   4.666   5.146   4.296 -0.3785 -0.3101 -0.7034
13450TIP3    H240294   4.743   5.167   4.425 -1.5927  0.6970 -0.1144
13451TIP3   OH240295   0.919   6.021   5.695  0.0272 -0.1659  0.0437
13451TIP3    H140296   0.846   6.035   5.635 -0.1221  1.0827  0.4820
13451TIP3    H240297   0.922   5.926   5.708 -1.5666 -0.2380  0.0836
13452TIP3   OH240298   4.812   1.694   5.872 -0.0189 -0.3395 -0.3000
13452TIP3    H140299   4.749   1.744   5.923 -1.5258 -2.0230 -0.4107
13452TIP3    H240300   4.758   1.640   5.814  1.5429 -1.5970 -0.6449
13453TIP3   OH240301   6.546   3.225   2.441 -0.1094  0.6092  0.0304
13453TIP3    H140302   6.519   3.209   2.351  2.4341  1.6693 -1.0318
13453TIP3    H240303   6.593   3.308   2.437  0.6777  0.3238  2.2048
13454TIP3   OH240304   0.841   2.315   5.714 -0.4628  0.3918  0.4435
13454TIP3    H140305   0.751   2.328   5.685 -1.0199  1.4796  2.4541
13454TIP3    H240306   0.894   2.335   5.637 -1.9003  0.0114 -0.7047
13455TIP3   OH240307   7.624   5.379   5.042  0.0063  0.0681 -0.2741
13455TIP3    H140308   7.545   5.342   5.004 -0.0569 -0.0719 -0.0103
13455TIP3    H240309   7.617   5.473   5.024 -0.7341  0.2043  0.6524
13456TIP3   OH240310   1.344   6.117   0.854  0.1582 -0.0020 -0.1695
13456TIP3    H140311   1.287   6.164   0.793 -0.3944 -0.3533  0.0754
13456TIP3    H240312   1.289   6.050   0.893  0.4087  0.4459  0.9907
13457TIP3   OH240313   2.756   0.529   1.591  0.0776 -0.1173  0.8363
13457TIP3    H140314   2.673   0.534   1.638  0.2204  1.5129  0.9694
13457TIP3    H240315   2.745   0.455   1.532 -1.9619  0.7631 -0.0056
13458TIP3   OH240316   5.759   6.935   2.481  0.3407  0.0930  0.4589
13458TIP3    H140317   5.719   7.021   2.468 -0.1915 -0.3257 -0.8368
13458TIP3    H240318   5.751   6.919   2.575  0.4383  1.4381  0.7227
13459TIP3   OH240319   0.141   3.647   4.316 -0.1453 -0.1309 -0.2830
13459TIP3    H140320   0.061   3.630   4.266 -0.3804 -4.0804  1.0121
13459TIP3    H240321   0.112   3.703   4.389 -0.2707  3.6482 -2.9758
13460TIP3   OH240322   6.190   6.919   4.289 -0.0172 -0.4960  0.0005
13460TIP3    H140323   6.260   6.862   4.323  0.1573 -0.4288 -0.2427
13460TIP3    H240324   6.236   6.998   4.260  0.3806 -1.8828 -3.6915
13461TIP3   OH240325   2.293   4.988   3.027 -0.3203  0.0221 -0.0287
13461TIP3    H140326   2.237   4.912   3.043 -0.7553  0.9398  3.8934
13461TIP3    H240327   2.231   5.062   3.020  0.2219  0.4813 -0.0442
13462TIP3   OH240328   4.367   2.045   0.391  0.3891  0.2212 -0.2151
13462TIP3    H140329   4.295   2.108   0.401  1.0462  0.5840  3.5092
13462TIP3    H240330   4.344   1.973   0.449  1.3285 -1.4320 -1.7979
13463TIP3   OH240331   5.743   1.575   5.012  0.3223 -0.2091  0.2892
13463TIP3    H140332   5.818   1.616   4.969 -0.1395 -1.3221 -1.7077
13463TIP3    H240333   5.776   1.493   5.047  0.4310  0.1487  1.0378
13464TIP3   OH240334   7.959   1.156   0.522 -0.7864 -0.7319  0.4122
13464TIP3    H140335   7.936   1.227   0.583 -0.7521 -0.4126  0.0602
13464TIP3    H240336   7.904   1.083   0.548 -1.3305 -0.3515  0.3378
13465TIP3   OH240337   1.373   2.234   5.070  0.0186 -0.2462  0.0280
13465TIP3    H140338   1.429   2.296   5.023  0.0158 -1.2298 -1.3210
13465TIP3    H240339   1.396   2.245   5.162  2.8796 -1.0121 -0.5179
13466TIP3   OH240340   1.451   4.959   6.058 -0.5951  0.2221 -0.0457
13466TIP3    H140341   1.466   4.884   6.116  0.7257 -1.1513 -2.0515
13466TIP3    H240342   1.493   5.032   6.104  0.3006 -0.7847  0.8141
13467TIP3   OH240343   0.513   7.857   6.413 -0.8803 -0.0414  0.0741
13467TIP3    H140344   0.465   7.808   6.480  1.5201 -2.0375  0.4987
13467TIP3    H240345   0.493   7.810   6.331 -0.1632 -0.5295  0.1669
13468TIP3   OH240346   5.411   1.378   2.253 -0.6407 -0.6801  0.0282
13468TIP3    H140347   5.400   1.335   2.337 -1.4287 -2.5341 -0.9591
13468TIP3    H240348   5.323   1.403   2.227 -0.1637  2.1198  0.7949
13469TIP3   OH240349   5.502   2.824   3.249  0.3422 -0.3434 -0.7692
13469TIP3    H140350   5.450   2.750   3.280  0.6710 -0.5732 -0.7492
13469TIP3    H240351   5.590   2.806   3.282  0.3862  0.1518 -0.6139
13470TIP3   OH240352   2.762   0.242   4.158  0.0439  0.2817 -0.1230
13470TIP3    H140353   2.848   0.273   4.185 -0.2586 -0.0328  1.2740
13470TIP3    H240354   2.707   0.253   4.235 -0.1284 -3.5505  0.5183
13471TIP3   OH240355   0.058   1.148   5.735 -0.1542 -0.3916  0.1139
13471TIP3    H140356   0.114   1.121   5.808  0.1611  0.5651  0.2409
13471TIP3    H240357  -0.020   1.183   5.778  0.3293  0.8279  0.0324
13472TIP3   OH240358   5.911   3.096   5.573  0.5181  0.3923 -0.3836
13472TIP3    H140359   5.928   3.010   5.536 -1.1171  0.2205 -0.8138
13472TIP3    H240360   5.842   3.082   5.637  1.6022  1.0969  1.0185
13473TIP3   OH240361   3.293   1.278   3.081 -0.4861  0.3016 -0.1854
13473TIP3    H140362   3.326   1.259   3.169 -2.2715  0.1694  0.4996
13473TIP3    H240363   3.340   1.217   3.024  1.2333  0.8909  0.5468
13474TIP3   OH240364   0.094   0.289   3.008  0.6137  0.4750 -0.3321
13474TIP3    H140365   0.078   0.359   3.071 -0.9621  0.1552 -0.3485
13474TIP3    H240366   0.055   0.211   3.048  1.1853 -0.1209 -0.9072
13475TIP3   OH240367   3.498   5.965   1.427 -0.1969  0.0587 -0.1024
13475TIP3    H140368   3.585   5.998   1.449 -0.4772  1.7507 -1.2567
13475TIP3    H240369   3.443   5.991   1.501 -0.0876  0.7593 -0.2600
13476TIP3   OH240370   4.835   6.079   1.690  0.0108  0.4116 -0.4984
13476TIP3    H140371   4.911   6.055   1.742 -0.8164 -0.2851  0.4306
13476TIP3    H240372   4.821   6.004   1.632  1.5002  1.5752 -2.4658
13477TIP3   OH240373   7.817   5.459   4.656 -0.1929 -0.2824  0.1289
13477TIP3    H140374   7.876   5.527   4.689 -0.3592 -0.6894  1.3142
13477TIP3    H240375   7.738   5.506   4.630  0.4677  0.2130 -1.0637
13478TIP3   OH240376   5.160   3.483   5.376  0.2800  0.5116  0.7534
13478TIP3    H140377   5.229   3.445   5.430 -1.4924 -2.0616  1.4394
13478TIP3    H240378   5.087   3.498   5.437  0.0526  2.8823  0.0170
13479TIP3   OH240379   2.294   1.169   5.114  0.0164 -0.1467  0.6921
13479TIP3    H140380   2.248   1.105   5.169 -1.5530  0.2335 -0.1195
13479TIP3    H240381   2.329   1.118   5.042  1.1456 -0.4828  1.4586
13480TIP3   OH240382   1.066   4.626   0.962  0.2677 -0.2516 -0.2806
13480TIP3    H140383   1.016   4.545   0.966  3.8522 -2.6417  0.1766
13480TIP3    H240384   1.131   4.611   0.894  1.3736  2.0943  0.1454
13481TIP3   OH240385   6.603   6.290   3.811 -0.7180  0.0565  0.8298
13481TIP3    H140386   6.522   6.241   3.803 -2.0003  1.7938  2.3626
13481TIP3    H240387   6.665   6.245   3.753 -3.4781  0.2099 -2.5296
13482TIP3   OH240388   4.729   4.575   0.376  0.4271 -0.1233  0.3226
13482TIP3    H140389   4.765   4.664   0.382 -0.0052  0.0997 -0.2950
13482TIP3    H240390   4.732   4.542   0.466  0.9592  0.3673  0.4950
13483TIP3   OH240391   2.412   5.262   6.591 -0.1012  0.2748  0.1111
13483TIP3    H140392   2.418   5.351   6.555  0.2831 -0.2970 -1.3056
13483TIP3    H240393   2.503   5.232   6.597 -0.2904 -0.4932 -0.6764
13484TIP3   OH240394   4.809   1.823   2.847  0.1351  0.6363 -0.3744
13484TIP3    H140395   4.893   1.862   2.820 -0.5756  0.9718 -2.2304
13484TIP3    H240396   4.747   1.895   2.843 -0.5154  0.0818 -0.3570
13485TIP3   OH240397   6.176   5.150   2.147  0.0079 -0.3099 -0.4004
13485TIP3    H140398   6.190   5.238   2.183 -1.1250  0.1016 -0.9454
13485TIP3    H240399   6.174   5.094   2.224  0.8341  0.1064 -0.0493
13486TIP3   OH240400   3.011   0.193   1.679  0.0297  1.0765 -0.0973
13486TIP3    H140401   3.019   0.119   1.739  1.8579  2.1370  1.0270
13486TIP3    H240402   2.992   0.152   1.594  0.6036 -0.6431  0.5670
13487TIP3   OH240403   0.094   3.452   2.607  0.2271 -0.0325  0.1360
13487TIP3    H140404   0.072   3.460   2.514 -3.2352  2.2587  0.9492
13487TIP3    H240405   0.017   3.486   2.652  2.6633  1.1227  3.8287
13488TIP3   OH240406   1.825   6.884   4.319  0.2014 -0.6012  0.0573
13488TIP3    H140407   1.914   6.904   4.349 -0.0372 -0.3545  0.6086
13488TIP3    H240408   1.806   6.953   4.255  0.8338 -1.3164 -0.9261
13489TIP3   OH240409   0.540   1.881   2.598  0.0374 -0.2542  0.2048
13489TIP3    H140410   0.525   1.965   2.642  0.2108 -0.2053  0.1700
13489TIP3    H240411   0.581   1.826   2.664 -0.5472 -0.4792  0.3852
13490TIP3   OH240412   4.052   3.697   6.149  0.6421  0.1686 -0.6502
13490TIP3    H140413   4.133   3.726   6.189  0.1418  1.5762 -0.6118
13490TIP3    H240414   3.985   3.715   6.214  0.3149 -1.1964 -0.5909
13491TIP3   OH240415   7.206   6.077   4.824 -0.1984  0.9197  0.4307
13491TIP3    H140416   7.151   6.125   4.886  0.3631  0.8650  0.9767
13491TIP3    H240417   7.144   6.026   4.772 -0.5655 -0.8613  2.4813
13492TIP3   OH240418   5.638   2.285   5.921  0.1973 -0.0175 -0.1618
13492TIP3    H140419   5.653   2.373   5.888 -0.7051  0.2213  0.0329
13492TIP3    H240420   5.559   2.292   5.975 -0.6705 -1.1803 -1.1990
13493TIP3   OH240421   5.328   2.366   5.951 -0.1316  0.0070 -0.3628
13493TIP3    H140422   5.253   2.401   5.998  0.7683  2.8772 -0.8660
13493TIP3    H240423   5.351   2.286   5.998 -0.6286  1.5276  2.7485
13494TIP3   OH240424   0.867   6.080   5.952  0.8829 -0.5704 -0.0442
13494TIP3    H140425   0.914   6.081   5.869  1.3738  2.6394  0.1167
13494TIP3    H240426   0.776   6.064   5.928  1.3354 -2.0813 -0.8878
13495TIP3   OH240427   7.999   5.411   3.686  0.5990 -0.5922 -0.3012
13495TIP3    H140428   8.039   5.407   3.599 -0.3117 -0.1793 -0.7525
13495TIP3    H240429   7.905   5.403   3.670  0.4112 -0.4019  0.6375
13496TIP3   OH240430   7.343   5.358   6.189  0.0035  0.1826  0.2622
13496TIP3    H140431   7.284   5.307   6.244 -1.0156 -0.4180 -1.3107
13496TIP3    H240432   7.298   5.365   6.105  2.4384 -0.8924 -1.2506
13497TIP3   OH240433   4.129   4.275   5.833  0.1354  0.2124  0.0694
13497TIP3    H140434   4.094   4.256   5.746  1.2943 -0.3313 -0.2904
13497TIP3    H240435   4.099   4.365   5.851 -1.8730 -0.3932  0.0175
13498TIP3   OH240436   8.238   1.124   0.875  0.1003  0.2776  0.2053
13498TIP3    H140437   8.227   1.219   0.885 -0.3538  0.2589 -0.0797
13498TIP3    H240438   8.170   1.086   0.931  0.0692  0.1226  0.0632
13499TIP3   OH240439   2.579   1.233   0.170  0.1761 -0.3245  0.4399
13499TIP3    H140440   2.647   1.275   0.224  1.1682  2.0250 -2.3322
13499TIP3    H240441   2.498   1.248   0.217  1.2635 -1.1106  2.7096
13500TIP3   OH240442   7.137   6.666   5.024  0.5362 -0.0510  0.0304
13500TIP3    H140443   7.154   6.615   4.945 -2.3173 -0.8241 -0.2006
13500TIP3    H240444   7.169   6.754   5.004 -0.4759 -0.1313 -2.1637
13501TIP3   OH240445   7.220   0.219   2.993 -0.0349 -0.3183 -0.1333
13501TIP3    H140446   7.246   0.215   3.085  0.1372 -0.0413 -0.1671
13501TIP3    H240447   7.139   0.270   2.993  0.4602  0.4966 -0.2268
13502TIP3   OH240448   7.042   1.172   1.321  0.4924 -0.5044 -0.2549
13502TIP3    H140449   7.076   1.083   1.317  0.4935 -0.6425  1.7196
13502TIP3    H240450   7.114   1.223   1.358 -0.4804 -0.3026  1.4952
13503TIP3   OH240451   6.487   4.944   1.623  0.3060  0.1410  0.0172
13503TIP3    H140452   6.399   4.980   1.606  0.4766  0.7086  0.3112
13503TIP3    H240453   6.470   4.856   1.657 -0.1293  0.0376 -0.4495
13504TIP3   OH240454   6.102   3.184   2.119 -0.0059 -0.1440 -1.1546
13504TIP3    H140455   6.088   3.119   2.187  0.5583 -0.6699 -1.5274
13504TIP3    H240456   6.110   3.132   2.038  0.3739  0.3901 -1.4660
13505TIP3   OH240457   6.995   5.619   1.426  0.2212 -0.5519 -0.5475
13505TIP3    H140458   7.050   5.574   1.490  0.9834 -1.8046 -2.0173
13505TIP3    H240459   6.910   5.629   1.470  0.3746 -2.3972  0.2755
13506TIP3   OH240460   5.039   0.052   0.834  0.1096  0.2106 -0.2059
13506TIP3    H140461   5.036  -0.042   0.852  1.2151 -0.0759 -1.4375
13506TIP3    H240462   4.972   0.088   0.892  1.2378 -1.0314  2.0307
13507TIP3   OH240463   1.847   1.256   6.569  0.4654  0.4541  0.3730
13507TIP3    H140464   1.759   1.249   6.607  0.5288  0.3952  0.5074
13507TIP3    H240465   1.847   1.341   6.526 -0.1401 -0.1265 -0.8447
13508TIP3   OH240466   5.799   5.976   5.937  0.5441  0.0986 -0.1469
13508TIP3    H140467   5.802   5.952   6.030 -1.3606  0.4443  0.0406
13508TIP3    H240468   5.877   6.030   5.925 -0.4844  2.2938  1.9803
13509TIP3   OH240469   7.523   5.607   3.503  0.3380 -0.3135 -0.2881
13509TIP3    H140470   7.456   5.576   3.564  0.0931 -0.3057 -0.5478
13509TIP3    H240471   7.598   5.630   3.558  0.5027 -1.3026 -0.0805
13510TIP3   OH240472   5.953   6.499   4.840  0.5331 -0.0789  0.0804
13510TIP3    H140473   5.862   6.479   4.818  0.5311 -0.5874  0.5495
13510TIP3    H240474   5.955   6.595   4.845  0.1300 -0.0409 -0.3652
13511TIP3   OH240475   0.566   6.895   5.635  0.1831 -0.3087 -0.2245
13511TIP3    H140476   0.598   6.978   5.600 -0.0247 -0.4557 -0.7797
13511TIP3    H240477   0.627   6.873   5.705  0.2671  0.2851 -0.1097
13512TIP3   OH240478   7.351   2.582   5.384  0.1293  0.0515  0.3044
13512TIP3    H140479   7.310   2.663   5.413  0.0141 -0.2020  0.8673
13512TIP3    H240480   7.426   2.571   5.443  0.0040 -0.3715  0.3904
13513TIP3   OH240481   0.914   5.859   6.471 -0.1083  0.0292  0.4213
13513TIP3    H140482   0.856   5.935   6.478 -0.1090 -0.0194  1.0295
13513TIP3    H240483   1.002   5.898   6.467 -0.2104  0.1465 -1.5049
13514TIP3   OH240484   0.555   3.371   4.809 -0.3368  0.1360 -0.0876
13514TIP3    H140485   0.551   3.280   4.837  1.4432  0.4236  1.2312
13514TIP3    H240486   0.490   3.416   4.864 -0.3722 -0.1353  0.0935
13515TIP3   OH240487   0.069   5.260   6.586 -0.0092 -0.2120  0.3155
13515TIP3    H140488   0.000   5.194   6.595  1.0202 -1.5986 -1.3654
13515TIP3    H240489   0.022   5.343   6.575 -1.5400 -1.2936 -2.2783
13516TIP3   OH240490   7.312   5.339   4.626  0.4178 -0.3421 -0.1357
13516TIP3    H140491   7.335   5.247   4.611  1.4620 -0.5485  2.2586
13516TIP3    H240492   7.224   5.348   4.589 -0.2921 -2.7055  0.7822
13517TIP3   OH240493   8.121   7.669   4.430  0.2429  0.3691 -0.6899
13517TIP3    H140494   8.063   7.593   4.427  0.9961 -0.1979 -1.2101
13517TIP3    H240495   8.177   7.659   4.353  1.2567  0.7320 -0.0146
13518TIP3   OH240496   1.677   3.915   2.118  0.2657  0.3011 -0.1834
13518TIP3    H140497   1.770   3.892   2.123  0.2579  0.6099  2.7625
13518TIP3    H240498   1.675   4.010   2.112  0.0885  0.2339 -2.0601
13519TIP3   OH240499   5.560   4.646   1.658  0.8929  0.5746  0.0461
13519TIP3    H140500   5.601   4.633   1.572  1.2955  0.2514  0.2842
13519TIP3    H240501   5.477   4.598   1.652  1.5555 -0.6285  0.3039
13520TIP3   OH240502   6.742   6.936   2.592 -0.3559 -0.0612  0.5058
13520TIP3    H140503   6.693   7.001   2.642  0.4869  1.3970 -0.4596
13520TIP3    H240504   6.680   6.905   2.526  0.0720  2.2352 -1.1206
13521TIP3   OH240505   4.968   4.182   3.710  0.4096 -0.2619 -0.5077
13521TIP3    H140506   4.971   4.213   3.620 -0.9365  0.5379 -0.2928
13521TIP3    H240507   4.909   4.107   3.708 -1.5043  1.1617  0.0697
13522TIP3   OH240508   6.550   5.752   0.917  0.1760 -0.2323  0.1538
13522TIP3    H140509   6.645   5.755   0.929  0.2974 -0.1345 -0.7325
13522TIP3    H240510   6.537   5.766   0.823 -0.8500  3.0778  0.6514
13523TIP3   OH240511   5.975   0.341   5.561  0.4602 -0.0034 -0.2661
13523TIP3    H140512   5.959   0.354   5.655 -0.4322  1.9772 -0.6554
13523TIP3    H240513   6.011   0.252   5.556  1.6843  0.2552  2.0806
13524TIP3   OH240514   4.211   3.973   2.085  0.2097 -0.1459  0.2500
13524TIP3    H140515   4.268   4.016   2.148  0.9089  0.7444 -0.9324
13524TIP3    H240516   4.246   3.884   2.078 -0.3710 -0.5047  1.6761
13525TIP3   OH240517   1.130   3.599   0.855  0.3265  0.4040  0.2211
13525TIP3    H140518   1.155   3.638   0.772  0.2236 -2.0780 -1.0646
13525TIP3    H240519   1.211   3.560   0.888 -0.3493 -1.8817 -0.6534
13526TIP3   OH240520   5.301   1.425   5.502  0.2294 -0.0540 -0.0265
13526TIP3    H140521   5.240   1.392   5.436  1.1084  0.6081 -1.1976
13526TIP3    H240522   5.387   1.394   5.473  0.5401 -0.5077  1.3009
13527TIP3   OH240523   3.595   7.359   2.878 -0.0131 -0.2722 -0.1908
13527TIP3    H140524   3.656   7.333   2.947  0.2186 -1.5330 -0.8448
13527TIP3    H240525   3.645   7.422   2.826 -0.0352  0.3445  0.5185
13528TIP3   OH240526   4.548   3.487   3.075  0.3330 -0.3317  0.3760
13528TIP3    H140527   4.467   3.463   3.121 -1.0041  1.5609 -0.8558
13528TIP3    H240528   4.529   3.471   2.983  0.5664  2.0666 -0.1495
13529TIP3   OH240529   2.340   3.822   0.148 -0.3925 -0.7338 -0.3248
13529TIP3    H140530   2.393   3.878   0.206 -1.0482  0.5750 -0.9653
13529TIP3    H240531   2.370   3.733   0.168 -1.4110 -0.4662  2.8926
13530TIP3   OH240532   1.004   2.392   3.526  0.6981 -0.6365 -0.1876
13530TIP3    H140533   1.009   2.300   3.553 -0.4835 -0.9883 -1.0753
13530TIP3    H240534   0.922   2.424   3.564 -0.5740 -0.9115 -2.5071
13531TIP3   OH240535   2.356   3.205   1.837 -0.3076  0.6359 -0.4676
13531TIP3    H140536   2.333   3.115   1.816  0.3197  0.2976  0.2327
13531TIP3    H240537   2.446   3.215   1.806  1.7652 -0.7455  4.1081
13532TIP3   OH240538   5.090   6.895   2.498 -0.3209  0.1072  0.4160
13532TIP3    H140539   5.098   6.988   2.479  0.4903  0.5977  2.7774
13532TIP3    H240540   5.097   6.890   2.594 -0.9492 -2.3210  0.3918
13533TIP3   OH240541   4.204   2.856   6.320  0.0114 -0.2922  0.3318
13533TIP3    H140542   4.287   2.849   6.273  0.8986  1.1534  1.5797
13533TIP3    H240543   4.145   2.900   6.258  0.3281 -0.8525 -0.3768
13534TIP3   OH240544   5.166   1.683   3.871 -0.5417 -0.2374  0.5294
13534TIP3    H140545   5.228   1.612   3.884 -0.3711 -0.4352 -1.2053
13534TIP3    H240546   5.219   1.756   3.840 -0.9311  0.1583  0.7776
13535TIP3   OH240547   1.111   0.688   2.949 -0.1797 -0.8151 -0.3403
13535TIP3    H140548   1.040   0.624   2.948  0.6711 -1.9765  2.4904
13535TIP3    H240549   1.104   0.735   2.866 -3.8354 -1.2941 -0.4270
13536TIP3   OH240550   6.442   1.765   6.120  0.4527  0.0899 -0.0622
13536TIP3    H140551   6.410   1.778   6.210 -2.6567 -1.2137 -0.8212
13536TIP3    H240552   6.509   1.697   6.128 -0.2852 -0.5323  1.2188
13537TIP3   OH240553   4.442   0.149   3.105 -0.0662  0.6478 -0.0542
13537TIP3    H140554   4.526   0.135   3.148  1.0165  1.9355 -1.6471
13537TIP3    H240555   4.382   0.170   3.176  1.1137  0.4425  1.0351
13538TIP3   OH240556   4.842   7.407   3.435 -0.3425  0.5221  0.0494
13538TIP3    H140557   4.772   7.388   3.498  0.2553 -0.6924  0.3832
13538TIP3    H240558   4.920   7.367   3.473  1.0859  3.6800  0.7562
13539TIP3   OH240559   7.885   3.334   4.274  0.4695 -0.9611  0.3992
13539TIP3    H140560   7.952   3.311   4.339  0.5890 -0.5427  0.4225
13539TIP3    H240561   7.847   3.416   4.306  0.5838 -0.7107 -0.0985
13540TIP3   OH240562   6.726   1.748   4.952 -0.0114  0.1726  0.0236
13540TIP3    H140563   6.819   1.750   4.929 -0.4673 -0.9819 -2.2412
13540TIP3    H240564   6.724   1.761   5.047  2.3943  0.9232  0.0301
13541TIP3   OH240565   0.609   6.737   0.814  0.0475 -0.4314 -0.3074
13541TIP3    H140566   0.644   6.648   0.803  1.3670  0.1400 -0.8314
13541TIP3    H240567   0.530   6.737   0.759  1.3700 -0.5587 -2.3109
13542TIP3   OH240568   8.085   2.015   0.232  0.1815 -0.1123  0.1376
13542TIP3    H140569   8.097   2.093   0.177  1.6155 -0.8313 -0.6447
13542TIP3    H240570   7.996   1.986   0.212 -0.4823  1.4492  0.6470
13543TIP3   OH240571   5.704   7.572   2.808 -1.0214 -0.1383 -0.4470
13543TIP3    H140572   5.752   7.510   2.754 -1.5673  0.0246 -1.1353
13543TIP3    H240573   5.770   7.637   2.834 -0.7812 -0.1171 -1.0811
13544TIP3   OH240574   0.449   6.317   5.990  0.5057 -0.0810  0.1378
13544TIP3    H140575   0.440   6.293   5.898 -0.5718 -0.4782  0.3318
13544TIP3    H240576   0.501   6.397   5.988 -1.1977  1.0821 -1.0051
13545TIP3   OH240577   6.044   1.468   0.832 -0.4322  0.0496 -0.2887
13545TIP3    H140578   5.992   1.388   0.829  1.1524 -1.0037 -2.2062
13545TIP3    H240579   6.051   1.489   0.926 -1.1198 -1.8830  0.2313
13546TIP3   OH240580   2.863   1.033   5.342 -0.3304 -0.1286 -0.1474
13546TIP3    H140581   2.918   1.102   5.381 -1.0575  0.0659  0.5586
13546TIP3    H240582   2.865   0.962   5.406  0.7054 -0.9241 -1.0366
13547TIP3   OH240583   4.418   3.998   5.242  0.0902 -0.2958  0.7115
13547TIP3    H140584   4.341   4.015   5.295  0.2209 -0.3246  0.9086
13547TIP3    H240585   4.491   4.029   5.294  0.3028 -1.1554  0.9437
13548TIP3   OH240586   7.738   6.226   1.911 -0.2168  0.0442  0.6106
13548TIP3    H140587   7.748   6.180   1.995  1.4887 -0.4657  0.1488
13548TIP3    H240588   7.648   6.207   1.885  0.3066 -2.8436  0.5816
13549TIP3   OH240589   1.341   2.323   5.356 -0.1709 -0.2016  0.0455
13549TIP3    H140590   1.395   2.346   5.432 -0.5635 -0.9168  0.5535
13549TIP3    H240591   1.256   2.364   5.374  0.0844  0.6141 -0.5766
13550TIP3   OH240592   3.302   6.277   0.890  0.1255  0.3191  0.5484
13550TIP3    H140593   3.337   6.202   0.938  0.4415  0.5051  0.6130
13550TIP3    H240594   3.378   6.334   0.877 -0.2858  1.0556  1.2866
13551TIP3   OH240595   1.467   5.513   5.068  0.6343 -0.1746 -1.0437
13551TIP3    H140596   1.493   5.546   4.983  0.2181  0.7777 -0.8127
13551TIP3    H240597   1.402   5.445   5.048  0.1108  0.4392 -1.4741
13552TIP3   OH240598   1.125   0.078   6.298 -0.1561  0.8432  0.0502
13552TIP3    H140599   1.112   0.006   6.236  1.6193 -0.1367  0.7581
13552TIP3    H240600   1.036   0.103   6.324 -0.9004  0.4997 -1.9647
13553TIP3   OH240601   2.667   2.577   6.398  0.4004  0.1317  0.2329
13553TIP3    H140602   2.688   2.634   6.472 -1.3636  2.2578 -0.8056
13553TIP3    H240603   2.700   2.622   6.321 -0.0406 -0.7984 -0.5309
13554TIP3   OH240604   0.275   2.718   3.714 -0.6016 -0.3583 -0.1536
13554TIP3    H140605   0.293   2.683   3.801 -0.3239 -1.8244 -0.7621
13554TIP3    H240606   0.268   2.813   3.727  0.3099 -0.4558  1.3091
13555TIP3   OH240607   5.350   6.153   5.612  0.6792  0.2964  0.4127
13555TIP3    H140608   5.444   6.164   5.622  0.2897  2.3251  3.2176
13555TIP3    H240609   5.322   6.109   5.692 -0.8679  0.5030  0.0215
13556TIP3   OH240610   2.245   6.613   6.773  0.1347 -0.0075  0.0682
13556TIP3    H140611   2.172   6.558   6.802 -0.1189  0.0766 -0.3858
13556TIP3    H240612   2.204   6.697   6.751  0.1001 -0.4359 -1.6551
13557TIP3   OH240613   1.797   5.165   3.437 -0.5236  0.1338 -0.0793
13557TIP3    H140614   1.794   5.261   3.436 -0.9033  0.2304  2.9512
13557TIP3    H240615   1.883   5.144   3.472 -0.6417 -0.6527 -0.2401
13558TIP3   OH240616   1.552   3.144   1.429  0.2915 -0.3620  0.3476
13558TIP3    H140617   1.572   3.176   1.517 -0.5058  1.6483 -0.1469
13558TIP3    H240618   1.569   3.219   1.372 -2.4354 -0.5000 -0.7934
13559TIP3   OH240619   6.557   6.803   2.433 -0.3436 -0.0059 -0.3065
13559TIP3    H140620   6.564   6.763   2.519  1.2033 -0.7127 -0.7214
13559TIP3    H240621   6.619   6.755   2.379 -2.1919 -0.4380 -2.1708
13560TIP3   OH240622   3.526   4.306   6.777  0.3050 -0.2358  0.1443
13560TIP3    H140623   3.455   4.368   6.761  2.3355  2.2428  0.1182
13560TIP3    H240624   3.511   4.236   6.714 -2.3954 -0.0951  0.5335
13561TIP3   OH240625   2.527   0.876   1.296  0.2018 -0.0798  0.0847
13561TIP3    H140626   2.594   0.814   1.265 -0.9449 -0.6098 -1.4680
13561TIP3    H240627   2.455   0.865   1.234 -1.5015  0.1954  1.9414
13562TIP3   OH240628   2.602   1.158   1.355  0.0416 -0.1586  0.2349
13562TIP3    H140629   2.562   1.201   1.279  1.5371  1.1090  0.1241
13562TIP3    H240630   2.611   1.066   1.329  0.3518  0.2201 -1.0566
13563TIP3   OH240631   8.069   2.333   0.407 -0.2035 -0.2480 -0.1628
13563TIP3    H140632   8.003   2.288   0.352 -0.1256  0.5491 -0.9377
13563TIP3    H240633   8.143   2.348   0.348 -0.2994  1.0504  0.0149
13564TIP3   OH240634   3.655   0.932   0.944  0.4855  0.2352 -0.0560
13564TIP3    H140635   3.568   0.892   0.953  0.3672  0.7234  1.3515
13564TIP3    H240636   3.686   0.905   0.858 -1.0604  0.0421 -0.5869
13565TIP3   OH240637   7.568   7.761   1.384  0.3284  0.4980 -0.7605
13565TIP3    H140638   7.513   7.683   1.376  0.8208  0.1711 -0.9232
13565TIP3    H240639   7.564   7.802   1.298  2.3130 -0.8369 -1.5310
13566TIP3   OH240640   5.271   1.082   1.735  0.0186  0.1927 -0.4365
13566TIP3    H140641   5.231   1.160   1.696 -0.5788 -0.3933 -1.0288
13566TIP3    H240642   5.348   1.065   1.680 -0.2040  0.0025 -0.6897
13567TIP3   OH240643   4.940   7.247   1.325 -0.4359  0.3215  0.0277
13567TIP3    H140644   4.855   7.244   1.370 -0.5917  0.8773 -0.2194
13567TIP3    H240645   4.994   7.183   1.371 -0.8245  0.3506  0.5323
13568TIP3   OH240646   4.231   6.634   0.576  0.1227  0.1525 -0.3607
13568TIP3    H140647   4.211   6.667   0.663 -1.8106  0.6626 -0.9504
13568TIP3    H240648   4.304   6.573   0.589 -0.1256  0.2168  1.5876
13569TIP3   OH240649   7.248   4.923   2.624  0.1190 -0.3739  0.1925
13569TIP3    H140650   7.255   4.837   2.664 -0.4144 -1.2755 -1.5376
13569TIP3    H240651   7.307   4.978   2.675 -0.9643 -1.2456  2.5665
13570TIP3   OH240652   5.449   0.360   5.577  0.2329 -0.3431  0.1088
13570TIP3    H140653   5.543   0.347   5.592  0.0310 -1.5227  0.4386
13570TIP3    H240654   5.407   0.296   5.634 -0.7300 -1.0323 -1.3206
13571TIP3   OH240655   4.966   6.439   4.204 -0.6993 -0.3476 -0.0573
13571TIP3    H140656   5.014   6.455   4.123  1.9578 -4.1265  0.4914
13571TIP3    H240657   5.003   6.501   4.267  0.5726 -0.4592 -0.6586
13572TIP3   OH240658   5.461   5.490   6.453  0.3384 -0.1066  0.4586
13572TIP3    H140659   5.399   5.488   6.525  1.8669 -0.1533  1.8191
13572TIP3    H240660   5.464   5.400   6.421 -0.3140 -0.0903  0.3392
13573TIP3   OH240661   0.486   6.914   5.359 -0.7380 -0.0815 -0.1356
13573TIP3    H140662   0.572   6.936   5.322 -1.6607  0.1767 -2.2695
13573TIP3    H240663   0.504   6.894   5.451  1.9559 -2.2282 -0.9830
13574TIP3   OH240664   3.548   0.258   2.928 -0.7094 -0.9702 -0.1763
13574TIP3    H140665   3.485   0.307   2.981  0.7527 -0.0578  0.7900
13574TIP3    H240666   3.508   0.253   2.841 -1.1950  1.4654 -0.1556
13575TIP3   OH240667   3.441   4.843   4.433  0.2281  0.0335  0.1419
13575TIP3    H140668   3.442   4.836   4.338  2.7548 -0.3802  0.1197
13575TIP3    H240669   3.354   4.877   4.454 -1.6182 -2.8894 -2.0254
13576TIP3   OH240670   6.445   2.330   5.668  0.0781 -0.2252  0.1477
13576TIP3    H140671   6.363   2.289   5.639 -0.0050  0.6627 -0.9262
13576TIP3    H240672   6.489   2.262   5.719 -0.5989 -1.2530 -0.6019
13577TIP3   OH240673   3.218   7.596   1.503 -0.0328 -0.5221 -0.1224
13577TIP3    H140674   3.253   7.679   1.471  1.1157 -1.4313 -1.3177
13577TIP3    H240675   3.126   7.596   1.474 -0.2638  0.6542  0.5779
13578TIP3   OH240676   6.749   2.211   5.319  0.0505  0.3984 -0.1184
13578TIP3    H140677   6.688   2.274   5.359 -0.5436 -0.0227 -0.3597
13578TIP3    H240678   6.712   2.194   5.232  0.3986 -0.0239 -0.1822
13579TIP3   OH240679   7.380   4.894   1.582 -0.2583 -0.1921  0.2850
13579TIP3    H140680   7.461   4.944   1.589  0.6269 -1.2444 -1.7650
13579TIP3    H240681   7.379   4.839   1.661  1.2569 -0.4806  0.1322
13580TIP3   OH240682   0.679   0.742   4.276 -0.2490 -0.0239  0.2112
13580TIP3    H140683   0.736   0.776   4.207  0.6267  1.1510  1.4645
13580TIP3    H240684   0.592   0.777   4.254 -0.5386 -1.7086 -1.6290
13581TIP3   OH240685   2.248   6.555   3.579  0.0083 -0.6130 -0.5297
13581TIP3    H140686   2.325   6.599   3.544 -1.6333  1.9904 -1.1501
13581TIP3    H240687   2.215   6.502   3.506 -1.4780  2.1388 -2.0017
13582TIP3   OH240688   6.361   6.426   0.123 -0.1194  0.1440  0.4019
13582TIP3    H140689   6.322   6.365   0.186 -0.9987  1.9752  1.7364
13582TIP3    H240690   6.414   6.371   0.066 -1.3465 -1.9255  1.1458
13583TIP3   OH240691   5.913   1.433   0.294 -0.7499  0.1163 -0.0871
13583TIP3    H140692   5.983   1.373   0.267 -0.5692 -0.0417  0.7131
13583TIP3    H240693   5.836   1.403   0.245 -1.2970 -2.3618  2.0707
13584TIP3   OH240694   7.548   3.686   6.541 -0.1382  0.3464  0.3594
13584TIP3    H140695   7.480   3.750   6.520  0.4775  0.2347 -2.3458
13584TIP3    H240696   7.531   3.662   6.632 -2.3012  1.9909  0.4748
13585TIP3   OH240697   2.800   2.727   3.082 -0.7612  0.4847  0.1043
13585TIP3    H140698   2.716   2.772   3.093 -0.5531  0.9215 -0.0735
13585TIP3    H240699   2.781   2.636   3.104 -1.0296  0.7863  1.2069
13586TIP3   OH240700   4.165   3.226   6.705  0.2166  0.1864  0.0125
13586TIP3    H140701   4.183   3.164   6.776  0.0498  0.3653  0.2132
13586TIP3    H240702   4.217   3.303   6.728  1.2847 -0.2728 -0.8056
13587TIP3   OH240703   0.469   1.547   0.908 -0.3650 -0.7580 -0.5802
13587TIP3    H140704   0.529   1.564   0.981 -2.0885  0.5465  0.6380
13587TIP3    H240705   0.486   1.617   0.846  0.2362 -1.1324 -0.8413
13588TIP3   OH240706   0.061   5.855   1.973  0.2315 -0.4295  0.6106
13588TIP3    H140707   0.115   5.852   1.894 -1.9658 -0.0678 -1.0251
13588TIP3    H240708   0.032   5.946   1.979  1.5292 -0.0855  2.7552
13589TIP3   OH240709   3.889   2.133   6.587 -0.9327  0.9508  0.4377
13589TIP3    H140710   3.918   2.072   6.520 -0.5551  2.0817 -0.4554
13589TIP3    H240711   3.951   2.121   6.659 -0.1944  1.0502 -0.1691
13590TIP3   OH240712   2.087   4.635   4.387 -0.2465  0.5896  0.3579
13590TIP3    H140713   2.124   4.552   4.357 -2.3672 -0.2422 -0.1756
13590TIP3    H240714   2.120   4.646   4.476  0.6094 -0.4763  0.1846
13591TIP3   OH240715   2.377   5.668   6.319 -0.5675 -0.4964 -0.3190
13591TIP3    H140716   2.293   5.714   6.307 -1.3480 -1.3349  1.4465
13591TIP3    H240717   2.443   5.733   6.298 -1.6598  0.3117 -1.3893
13592TIP3   OH240718   6.929   3.299   3.249  0.1355  0.5091  0.0692
13592TIP3    H140719   6.858   3.364   3.240 -1.8138 -1.5419 -0.3662
13592TIP3    H240720   6.923   3.247   3.169  1.6283 -0.2278  0.4118
13593TIP3   OH240721   1.981   7.272   4.157  0.3133  0.0257 -0.0519
13593TIP3    H140722   2.026   7.188   4.150 -2.1179 -1.3527 -0.0979
13593TIP3    H240723   2.048   7.332   4.191  1.6438 -2.3415  1.8490
13594TIP3   OH240724   4.621   4.896   5.137 -0.3124 -0.6611  0.1929
13594TIP3    H140725   4.642   4.933   5.051  2.1644 -1.2965  0.4655
13594TIP3    H240726   4.540   4.848   5.123 -1.0118  0.8411 -1.3031
13595TIP3   OH240727   6.760  -0.007   5.680 -0.2683  0.2264 -0.4665
13595TIP3    H140728   6.764   0.076   5.728 -0.0965  0.2943 -0.5960
13595TIP3    H240729   6.675  -0.006   5.637  0.0125  0.6506 -1.0291
13596TIP3   OH240730   3.676   7.744   6.087 -0.9974 -0.2503 -0.1342
13596TIP3    H140731   3.629   7.709   6.011 -2.8010 -0.7053  1.1178
13596TIP3    H240732   3.651   7.686   6.159  0.6986  0.1368  0.8129
13597TIP3   OH240733   2.198   2.487   5.655 -0.1139 -0.0664  0.0656
13597TIP3    H140734   2.189   2.580   5.674  0.6155 -0.0053  0.1679
13597TIP3    H240735   2.290   2.467   5.676 -0.2784 -0.8222  0.1099
13598TIP3   OH240736   4.367   3.081   4.403  0.0939 -0.0360 -0.0423
13598TIP3    H140737   4.369   3.104   4.311  0.5417 -0.3355 -0.1099
13598TIP3    H240738   4.447   3.031   4.417 -0.1136 -0.2386  0.4436
13599TIP3   OH240739   7.533   4.441   4.458 -0.7778 -0.1941 -0.3983
13599TIP3    H140740   7.452   4.392   4.472  0.0605 -1.1244  1.7415
13599TIP3    H240741   7.557   4.473   4.545  0.8758  0.5033 -1.0711
13600TIP3   OH240742   0.917   7.124   6.028  0.2662  0.5686  0.0947
13600TIP3    H140743   1.002   7.152   5.995  0.1806  0.5739 -0.1261
13600TIP3    H240744   0.927   7.123   6.123  0.4921  0.6331  0.0725
13601TIP3   OH240745   5.954   4.898   5.076  0.0304 -0.2386 -0.0963
13601TIP3    H140746   5.961   4.953   5.153 -0.8763  0.6027 -0.5971
13601TIP3    H240747   5.981   4.954   5.003  0.7606 -0.9823 -0.4285
13602TIP3   OH240748   7.346   5.296   5.218 -0.3001 -0.1115  0.2865
13602TIP3    H140749   7.348   5.274   5.124  1.6703 -0.5555  0.3737
13602TIP3    H240750   7.347   5.391   5.221 -1.2180 -0.0819 -0.1342
13603TIP3   OH240751   3.007   0.460   3.907 -0.4819  0.6304  0.4579
13603TIP3    H140752   2.974   0.456   3.997  0.3281  0.6028  0.7666
13603TIP3    H240753   2.948   0.404   3.857 -1.9605  1.9569  0.6296
13604TIP3   OH240754   2.612   5.698   3.867  0.2831 -0.3403  0.0241
13604TIP3    H140755   2.698   5.663   3.845  0.5303 -0.8400  1.7228
13604TIP3    H240756   2.630   5.785   3.904  0.1216 -0.7554  1.0861
13605TIP3   OH240757   0.995   7.008   4.928 -0.2174 -0.4768 -0.4113
13605TIP3    H140758   1.037   7.068   4.865 -1.6140  1.8910  0.7645
13605TIP3    H240759   1.067   6.977   4.982  0.3764  2.0362  0.4002
13606TIP3   OH240760   2.281   0.810   6.724  0.8230  0.0878  0.3087
13606TIP3    H140761   2.351   0.788   6.662  0.9968 -1.2429  0.9512
13606TIP3    H240762   2.322   0.804   6.810 -0.1031 -0.8715  0.7058
13607TIP3   OH240763   1.946   5.799   0.511  0.6622 -0.1056 -0.3099
13607TIP3    H140764   1.947   5.716   0.559  1.0297 -0.7556 -1.3987
13607TIP3    H240765   2.011   5.787   0.442  0.4266  0.9504 -0.7273
13608TIP3   OH240766   0.624   2.547   5.039  0.0214 -0.1898  0.9180
13608TIP3    H140767   0.680   2.624   5.027  0.3877 -0.7061 -0.9216
13608TIP3    H240768   0.684   2.474   5.044 -0.4019 -0.5369  0.9931
13609TIP3   OH240769   2.861   5.184   3.452  0.1309  0.4739  1.4990
13609TIP3    H140770   2.887   5.098   3.421 -0.3702  0.7132  0.3774
13609TIP3    H240771   2.886   5.185   3.545 -0.6366 -1.1887  1.7493
13610TIP3   OH240772   0.214   4.824   1.681  0.0148 -0.3943 -0.2515
13610TIP3    H140773   0.269   4.878   1.623  1.4390 -2.8810 -1.3848
13610TIP3    H240774   0.273   4.799   1.752 -0.5734 -0.6300  0.1542
13611TIP3   OH240775   0.855   5.678   5.783  0.1266  0.1965  0.4451
13611TIP3    H140776   0.875   5.621   5.857 -1.0393 -0.9895 -0.1218
13611TIP3    H240777   0.762   5.700   5.794 -0.6751 -1.7069 -1.7263
13612TIP3   OH240778   7.370   6.489   5.872 -0.2574  0.0348  0.3875
13612TIP3    H140779   7.449   6.530   5.908 -0.2905  1.5012 -1.1079
13612TIP3    H240780   7.365   6.522   5.783 -1.7219 -1.2815 -0.0433
13613TIP3   OH240781   0.316   0.594   4.860 -0.4126  0.3235  0.7415
13613TIP3    H140782   0.340   0.631   4.946  0.3330  1.6244  0.0150
13613TIP3    H240783   0.379   0.524   4.846 -0.8468 -0.2203  1.4695
13614TIP3   OH240784   3.113   3.806   3.795  0.0706 -0.0630 -0.2428
13614TIP3    H140785   3.105   3.728   3.739 -0.2038 -0.5116  0.4055
13614TIP3    H240786   3.112   3.771   3.884 -0.3462  0.7102  0.0603
13615TIP3   OH240787   7.633   6.543   4.059 -0.0721  0.3990  0.4896
13615TIP3    H140788   7.644   6.564   3.966  0.3845  2.8418  1.0286
13615TIP3    H240789   7.583   6.462   4.059 -0.4137  0.5317 -1.8889
13616TIP3   OH240790   2.425   7.348   1.457  0.4178  0.0061 -0.1302
13616TIP3    H140791   2.400   7.417   1.518  0.5364  0.4523 -0.5744
13616TIP3    H240792   2.520   7.343   1.463  0.4949  0.4987 -0.7288
13617TIP3   OH240793   1.316   3.188   4.922  0.7652 -0.1170  0.4443
13617TIP3    H140794   1.387   3.139   4.881  1.5787  0.1641  1.4436
13617TIP3    H240795   1.337   3.280   4.904  0.4299 -0.0460  0.4061
13618TIP3   OH240796   7.112   0.636   3.814  0.4960  0.2270 -0.2697
13618TIP3    H140797   7.094   0.688   3.736 -1.3999  4.0847  2.4049
13618TIP3    H240798   7.194   0.671   3.849  0.5684 -0.4199  0.2460
13619TIP3   OH240799   6.209   5.048   0.815  0.1184  0.9676  0.4078
13619TIP3    H140800   6.178   5.006   0.895  0.2215  2.0423  1.0257
13619TIP3    H240801   6.286   4.997   0.790 -0.2720  0.2476  0.6369
13620TIP3   OH240802   2.950   2.733   3.311  0.7080  0.0996 -0.2175
13620TIP3    H140803   2.920   2.774   3.230 -0.0672 -1.5506 -0.8053
13620TIP3    H240804   2.895   2.771   3.379 -0.6388 -0.6145 -0.8751
13621TIP3   OH240805   4.573   1.836   6.474 -0.0363  0.2928 -0.0252
13621TIP3    H140806   4.648   1.804   6.423  0.2345 -0.1518  0.6394
13621TIP3    H240807   4.612   1.873   6.554 -0.5521 -0.4287  0.5770
13622TIP3   OH240808   4.275   2.636   3.766  0.1280 -0.2614  0.4119
13622TIP3    H140809   4.238   2.709   3.717 -0.3894 -0.2646  0.7928
13622TIP3    H240810   4.368   2.635   3.741 -0.1619 -0.3883 -0.7147
13623TIP3   OH240811   4.275   5.677   0.950  0.0133 -0.0545  0.4720
13623TIP3    H140812   4.315   5.758   0.919 -1.4546  0.6800  0.4317
13623TIP3    H240813   4.318   5.661   1.034  1.0516  0.1934  0.0025
13624TIP3   OH240814   4.290   4.590   1.791  0.2357  0.3099  0.1219
13624TIP3    H140815   4.284   4.681   1.820 -0.6928  0.1558  0.4536
13624TIP3    H240816   4.320   4.595   1.701  0.9962  0.9071  0.3962
13625TIP3   OH240817   2.008   3.758   3.877 -0.1239  0.5115 -0.3342
13625TIP3    H140818   1.926   3.806   3.873  0.0662  0.8001 -0.7571
13625TIP3    H240819   1.988   3.682   3.933 -0.9154  0.1148 -1.1325
13626TIP3   OH240820   2.834   4.941   1.220 -0.3860  0.3011 -0.2477
13626TIP3    H140821   2.872   5.027   1.237 -1.8968  1.4483 -2.2338
13626TIP3    H240822   2.741   4.957   1.207 -0.6448 -1.5654 -1.1414
13627TIP3   OH240823   8.245   7.222   3.837 -0.4907  0.1808  1.2067
13627TIP3    H140824   8.337   7.238   3.859 -0.4278  4.2707 -1.0564
13627TIP3    H240825   8.198   7.234   3.919  0.9299 -2.8062  2.5886
13628TIP3   OH240826   7.684   5.205   2.036  0.3765  0.1383 -0.7084
13628TIP3    H140827   7.701   5.290   1.996 -0.3838  0.1439 -1.0405
13628TIP3    H240828   7.588   5.197   2.036  0.4438 -2.0025 -3.4326
13629TIP3   OH240829   1.681   5.801   2.665 -0.1944  0.0465  0.3860
13629TIP3    H140830   1.730   5.842   2.736 -1.9034  0.3389  1.4756
13629TIP3    H240831   1.661   5.872   2.604 -0.0388  0.1052  0.4048
13630TIP3   OH240832   5.669   5.186   6.142 -0.6498 -0.1568 -0.0424
13630TIP3    H140833   5.659   5.109   6.198  0.3518  1.3267  2.3263
13630TIP3    H240834   5.756   5.220   6.164 -1.1300  1.7492 -0.8902
13631TIP3   OH240835   1.097   7.542   3.601 -0.1162 -0.0062 -0.0498
13631TIP3    H140836   1.077   7.570   3.512 -1.3498 -0.2131  0.1419
13631TIP3    H240837   1.099   7.624   3.651  1.3545  0.1880 -0.3844
13632TIP3   OH240838   7.950   4.797   4.165 -0.1816  0.3273  0.2317
13632TIP3    H140839   7.913   4.872   4.211 -3.0563 -1.1536  0.5889
13632TIP3    H240840   7.937   4.723   4.225  1.8793 -0.6017 -0.4008
13633TIP3   OH240841   5.847   0.950   5.097 -0.2403  0.5218  0.4959
13633TIP3    H140842   5.924   0.952   5.040  0.5005 -1.7695  1.3150
13633TIP3    H240843   5.867   0.883   5.162 -2.9740 -0.1749  0.7161
13634TIP3   OH240844   0.832   0.577   4.476 -0.0450  0.3555  0.1401
13634TIP3    H140845   0.782   0.618   4.406 -0.1751  0.8522  0.5202
13634TIP3    H240846   0.922   0.609   4.462 -0.4603  2.3428  1.5455
13635TIP3   OH240847   7.954   7.168   4.573  0.3272 -0.5729  0.0012
13635TIP3    H140848   7.899   7.090   4.569  0.3216 -0.6310  0.9555
13635TIP3    H240849   8.036   7.137   4.611 -0.4107  0.2331  2.4825
13636TIP3   OH240850   0.565   3.348   3.418 -0.6814  0.1724 -0.5873
13636TIP3    H140851   0.555   3.256   3.443 -2.3749  0.7457  1.0665
13636TIP3    H240852   0.528   3.353   3.330 -3.1102 -0.3111  0.3194
13637TIP3   OH240853   6.832   4.424   6.572 -0.2638  0.3386 -0.0403
13637TIP3    H140854   6.747   4.403   6.610 -0.0755  0.4811  0.4709
13637TIP3    H240855   6.872   4.339   6.554 -0.7857  0.2633 -0.9255
13638TIP3   OH240856   5.900   2.190   6.092  0.0945  0.0396 -0.4420
13638TIP3    H140857   5.965   2.249   6.129  1.6982 -2.4608  1.0920
13638TIP3    H240858   5.817   2.237   6.099  1.3979  2.4155 -0.2288
13639TIP3   OH240859   4.233   0.448   2.853  0.2510  0.1110  0.1572
13639TIP3    H140860   4.259   0.515   2.790 -0.7054  0.0204 -0.3527
13639TIP3    H240861   4.246   0.365   2.807  0.4092  0.0044  0.3966
13640TIP3   OH240862   3.153   6.170   0.164 -0.5788 -0.1839 -0.3496
13640TIP3    H140863   3.104   6.148   0.242 -0.6802 -0.5512 -0.5177
13640TIP3    H240864   3.089   6.213   0.107 -0.6399 -0.4207 -0.4592
13641TIP3   OH240865   6.807   3.029   4.038 -0.1631 -0.3831  0.0640
13641TIP3    H140866   6.848   3.000   3.956  1.4311  0.1847  0.6203
13641TIP3    H240867   6.878   3.025   4.102 -1.2383 -0.2338  1.2901
13642TIP3   OH240868   2.237   0.244   5.430 -0.2628 -0.1190  0.3240
13642TIP3    H140869   2.263   0.152   5.430  1.0092  0.1825 -1.7574
13642TIP3    H240870   2.315   0.291   5.458 -0.4364  0.4126 -0.0712
13643TIP3   OH240871   7.517   4.144   5.009  0.1780 -0.5385  0.3866
13643TIP3    H140872   7.428   4.173   4.991  0.9496  0.6992 -1.7739
13643TIP3    H240873   7.569   4.225   5.012  1.6762 -1.3675 -1.3798
13644TIP3   OH240874   3.506   7.004   0.802 -0.0751  0.2144 -0.4567
13644TIP3    H140875   3.557   7.032   0.726  1.4960 -0.2842  0.3703
13644TIP3    H240876   3.527   6.911   0.811  0.8909  0.5834  1.4136
13645TIP3   OH240877   0.157   4.001   4.132  0.2331  0.6815  0.2093
13645TIP3    H140878   0.074   3.954   4.131 -0.2348  1.4355 -1.8116
13645TIP3    H240879   0.213   3.951   4.072  1.4046 -0.0084  1.7981
13646TIP3   OH240880   1.359   5.779   0.626  0.3033  0.2796 -0.0841
13646TIP3    H140881   1.306   5.841   0.576  0.1124  0.9462  0.9166
13646TIP3    H240882   1.400   5.724   0.559 -0.5369  0.6502 -0.9388
13647TIP3   OH240883   4.278   6.854   0.034  0.0635  0.6284  0.2106
13647TIP3    H140884   4.291   6.778  -0.022 -0.5778  1.4823 -1.1543
13647TIP3    H240885   4.205   6.831   0.091  0.2124  0.0330  0.1636
13648TIP3   OH240886   0.084   4.202   4.278 -0.3753  0.1487 -0.5657
13648TIP3    H140887   0.096   4.117   4.237 -0.0795  0.4052 -1.0161
13648TIP3    H240888   0.134   4.263   4.223 -1.4092  0.7737 -0.8434
13649TIP3   OH240889   4.694   3.842   4.113  0.1529  0.1407  0.4631
13649TIP3    H140890   4.681   3.769   4.053  1.0099  1.4866 -1.4781
13649TIP3    H240891   4.788   3.848   4.124  0.0108 -0.0541  1.9700
13650TIP3   OH240892   8.318   6.405   2.915  0.3068 -0.3820 -0.2468
13650TIP3    H140893   8.239   6.358   2.942 -0.9803  1.0149 -1.3578
13650TIP3    H240894   8.342   6.365   2.831 -0.8053  0.8457 -1.2066
13651TIP3   OH240895   4.513   6.342  -0.031  0.1766  0.0109  0.0086
13651TIP3    H140896   4.443   6.297   0.016 -1.2190  0.9079 -1.1590
13651TIP3    H240897   4.591   6.327   0.023 -0.6238 -2.0542  0.7022
13652TIP3   OH240898   5.410   3.353   4.938  0.4958 -0.1139 -0.4983
13652TIP3    H140899   5.436   3.421   5.000 -0.9934  3.3633 -3.3414
13652TIP3    H240900   5.368   3.286   4.993  1.2480  1.6229  2.4288
13653TIP3   OH240901   2.940   0.514   1.352 -0.1631  0.1440 -0.4221
13653TIP3    H140902   2.933   0.530   1.446 -1.0284 -0.2064 -0.4200
13653TIP3    H240903   2.920   0.598   1.312  1.2486  0.5706 -0.2829
13654TIP3   OH240904   7.246   5.383   2.517 -0.7328 -0.2815 -0.4015
13654TIP3    H140905   7.299   5.404   2.594  0.2391  0.7723 -1.3161
13654TIP3    H240906   7.156   5.394   2.546 -0.3870 -0.0542  0.6260
13655TIP3   OH240907   7.907   2.867   1.646 -0.3957 -0.1418 -0.4995
13655TIP3    H140908   7.880   2.944   1.697 -0.1952  0.4232 -1.2280
13655TIP3    H240909   7.874   2.793   1.696 -2.0712  0.4742 -0.6209
13656TIP3   OH240910   1.012   0.996   0.960 -0.2439 -0.0713 -0.1401
13656TIP3    H140911   0.969   1.062   0.906 -1.3567  0.3749  1.2141
13656TIP3    H240912   0.947   0.926   0.969  0.3977 -0.7135 -0.4034
13657TIP3   OH240913   0.519   1.870   0.122  0.1678 -0.3940  0.1118
13657TIP3    H140914   0.596   1.893   0.173  0.2757 -1.7705  0.6129
13657TIP3    H240915   0.542   1.788   0.078 -0.5749 -0.1822 -0.7192
13658TIP3   OH240916   6.715   3.689   4.144 -0.6868 -0.1308  0.7420
13658TIP3    H140917   6.668   3.650   4.071 -2.3991 -0.1172  1.7960
13658TIP3    H240918   6.686   3.640   4.221  0.9658 -0.0590  1.4684
13659TIP3   OH240919   3.226   1.724   4.581 -0.4493  0.4223 -0.3939
13659TIP3    H140920   3.159   1.776   4.626 -1.8724 -1.3484 -0.3578
13659TIP3    H240921   3.296   1.713   4.646 -1.3373  0.0221  0.5126
13660TIP3   OH240922   3.212   2.232   2.614 -0.5217 -0.7705  0.1228
13660TIP3    H140923   3.272   2.160   2.630 -0.4328 -0.6345  0.4016
13660TIP3    H240924   3.157   2.202   2.542 -0.3476 -1.0325  0.0995
13661TIP3   OH240925   7.800   5.920   5.939  0.1589 -0.0398 -0.3346
13661TIP3    H140926   7.839   6.003   5.912  1.5887 -0.3332  0.7286
13661TIP3    H240927   7.718   5.945   5.983 -0.0767  0.6930 -1.1592
13662TIP3   OH240928   4.948   0.470   0.024  0.0616  0.4123  0.7265
13662TIP3    H140929   5.009   0.457   0.096  1.1555  0.9070 -0.0732
13662TIP3    H240930   4.936   0.383  -0.014  1.0068  0.4383  0.3374
13663TIP3   OH240931   1.863   4.314   2.744 -0.0455  0.1325  0.5163
13663TIP3    H140932   1.944   4.363   2.758 -0.0437  0.0953  0.6393
13663TIP3    H240933   1.892   4.224   2.728 -0.0512  0.1615  0.3459
13664TIP3   OH240934   2.039   2.291   5.736 -0.2131  0.4107  0.1919
13664TIP3    H140935   2.092   2.265   5.811 -2.5939  1.1589  2.2370
13664TIP3    H240936   2.095   2.353   5.688  1.3426 -0.0543  1.3276
13665TIP3   OH240937   5.595   3.007   0.343 -0.7277  0.1330  1.0268
13665TIP3    H140938   5.509   3.033   0.376 -0.6475 -0.9121  2.1481
13665TIP3    H240939   5.576   2.934   0.283 -0.7038  0.6380  0.3999
13666TIP3   OH240940   4.518   1.736   4.566 -0.2085  0.4461  0.0478
13666TIP3    H140941   4.559   1.649   4.565  0.2147  0.6107  1.1327
13666TIP3    H240942   4.537   1.772   4.480 -0.4615 -0.5636 -0.4544
13667TIP3   OH240943   2.424   3.739   5.664  0.0856  0.4270 -0.2234
13667TIP3    H140944   2.465   3.735   5.578 -0.9335 -0.4762 -0.6856
13667TIP3    H240945   2.460   3.665   5.712 -0.2665  0.2069 -0.2965
13668TIP3   OH240946   7.416   5.290   4.903  0.4623 -0.0905 -0.4319
13668TIP3    H140947   7.348   5.225   4.884  0.8879 -0.0345 -2.3647
13668TIP3    H240948   7.400   5.360   4.839  0.8734  1.0721  0.6873
13669TIP3   OH240949   3.161   3.361   4.081  0.2782 -0.1666 -0.2613
13669TIP3    H140950   3.232   3.348   4.018 -0.2016 -0.3336 -0.7728
13669TIP3    H240951   3.205   3.374   4.165  0.8638 -2.4896 -0.1593
13670TIP3   OH240952   6.873   2.562   4.456 -0.5931  0.3072 -0.5120
13670TIP3    H140953   6.878   2.530   4.546 -1.8893  0.6990 -0.2785
13670TIP3    H240954   6.964   2.566   4.427 -0.1288  0.4804  0.8889
13671TIP3   OH240955   0.197   5.103   6.384  0.3805  0.6298 -1.0543
13671TIP3    H140956   0.289   5.126   6.373  0.2592  1.1007 -1.1249
13671TIP3    H240957   0.171   5.148   6.464  0.6469 -0.8779 -0.0741
13672TIP3   OH240958   4.446   7.711   5.376  0.6251  0.1255  0.3560
13672TIP3    H140959   4.391   7.654   5.322  0.3113 -0.7452  1.5483
13672TIP3    H240960   4.509   7.652   5.417  0.9916  0.7955  0.7764
13673TIP3   OH240961   2.289   6.530   6.015 -0.0192 -0.4851 -0.2855
13673TIP3    H140962   2.222   6.467   5.991  1.0144 -2.0159  0.6604
13673TIP3    H240963   2.269   6.554   6.106  1.0184 -1.4644  0.2402
13674TIP3   OH240964   0.497   3.872   2.412  0.0432  0.6642 -0.0553
13674TIP3    H140965   0.571   3.897   2.357  0.9050 -0.4045  0.5974
13674TIP3    H240966   0.523   3.896   2.501 -0.1626 -0.1895  0.2456
13675TIP3   OH240967   1.420   4.975   1.057  0.2143 -0.2700 -0.6125
13675TIP3    H140968   1.430   5.059   1.102 -0.7850 -0.9723  1.0085
13675TIP3    H240969   1.480   4.980   0.982  0.4841  1.7035 -0.3018
13676TIP3   OH240970   8.235   6.076   2.047 -0.4919 -0.3963  0.2183
13676TIP3    H140971   8.180   6.096   1.972  0.5607 -0.1693 -0.5256
13676TIP3    H240972   8.271   6.161   2.074 -2.8006 -0.0424  2.6278
13677TIP3   OH240973   5.403   5.496   2.909 -0.5657  0.3150 -0.2274
13677TIP3    H140974   5.409   5.549   2.988  0.1944  0.5363 -0.4217
13677TIP3    H240975   5.313   5.464   2.907 -0.4485 -0.1387  1.0214
13678TIP3   OH240976   1.075   3.314   0.758  0.5288 -0.3627 -0.1401
13678TIP3    H140977   1.068   3.243   0.695  1.8334 -1.8832  1.3451
13678TIP3    H240978   1.128   3.380   0.713  0.4163 -0.8817 -1.0639
13679TIP3   OH240979   7.899   4.153   1.370 -0.0589  0.6041 -0.1871
13679TIP3    H140980   7.804   4.147   1.380  0.0492 -0.5275  0.3745
13679TIP3    H240981   7.928   4.198   1.449  0.0624 -1.2590  0.9063
13680TIP3   OH240982   2.777   6.574   0.810 -0.6848 -0.3445 -0.1401
13680TIP3    H140983   2.683   6.587   0.825 -0.8922 -0.0401 -1.5461
13680TIP3    H240984   2.789   6.589   0.716  0.2659 -3.3769 -0.6065
13681TIP3   OH240985   4.115   4.133   0.628 -0.2867  0.3129  0.5178
13681TIP3    H140986   4.035   4.170   0.591  0.2131  0.3974 -0.5250
13681TIP3    H240987   4.111   4.040   0.605 -0.6279  0.0823  1.4726
13682TIP3   OH240988   2.708   7.001   4.350  0.0198 -0.0332  0.0784
13682TIP3    H140989   2.715   6.905   4.356 -0.6183 -0.0597  0.4930
13682TIP3    H240990   2.661   7.026   4.430 -0.9787  0.4915 -0.6639
13683TIP3   OH240991   5.165   2.063   6.372 -0.1011  0.0180 -0.0480
13683TIP3    H140992   5.177   1.971   6.396  0.3417  0.0379 -0.1868
13683TIP3    H240993   5.095   2.094   6.430 -0.3254 -0.4308 -0.0689
13684TIP3   OH240994   4.998   5.875   3.718  0.2169 -0.1585 -0.1546
13684TIP3    H140995   5.065   5.830   3.666 -0.8798 -2.6915  0.4873
13684TIP3    H240996   5.026   5.862   3.808  0.3241  1.2643  0.0324
13685TIP3   OH240997   4.164   1.432   5.942  0.2289  0.2817 -0.5575
13685TIP3    H140998   4.213   1.473   5.871 -0.1044  0.3432 -0.7497
13685TIP3    H240999   4.225   1.368   5.979 -0.0572 -0.6937 -1.7452
13686TIP3   OH241000   6.519   6.946   4.915 -0.1470 -0.2484 -0.0795
13686TIP3    H141001   6.539   6.890   4.990 -0.0627  1.3028  1.1016
13686TIP3    H241002   6.424   6.952   4.914 -0.1230  0.1777  0.2413
13687TIP3   OH241003   2.017   3.528   3.203 -0.0590  0.3611 -0.1229
13687TIP3    H141004   1.981   3.617   3.194 -3.2945 -0.8278 -0.2744
13687TIP3    H241005   1.941   3.474   3.223  1.5839 -2.6025 -1.3138
13688TIP3   OH241006   3.672   4.770   1.524 -0.1709 -0.0241 -0.2637
13688TIP3    H141007   3.635   4.838   1.580  1.0911  1.8956 -1.5866
13688TIP3    H241008   3.651   4.799   1.435  1.3227 -0.7599 -0.8974
13689TIP3   OH241009   7.687   0.475   2.058  0.6233 -0.0542  0.1760
13689TIP3    H141010   7.635   0.543   2.016 -0.2743 -0.0294  1.2983
13689TIP3    H241011   7.676   0.398   2.001  2.3397  0.8901 -1.5837
13690TIP3   OH241012   5.797   3.745   0.857 -0.3269  0.5495  0.0778
13690TIP3    H141013   5.702   3.733   0.866 -0.1146 -0.9737  0.4807
13690TIP3    H241014   5.813   3.734   0.763 -0.0678 -3.5433  0.4492
13691TIP3   OH241015   3.406   0.833   3.942  0.4227  0.1481 -0.2824
13691TIP3    H141016   3.391   0.745   3.907  0.6405 -0.8189  1.8795
13691TIP3    H241017   3.348   0.838   4.019  1.0113  1.5931  0.0960
13692TIP3   OH241018   2.351   0.724   2.788  0.5102  0.5582 -0.1800
13692TIP3    H141019   2.321   0.695   2.702  0.7407  1.3660 -0.5519
13692TIP3    H241020   2.429   0.777   2.769  0.6061  0.6841  0.5294
13693TIP3   OH241021   4.299   7.187   2.071  0.3334 -0.0697 -0.3443
13693TIP3    H141022   4.359   7.211   2.141  1.9627 -0.5153 -1.5211
13693TIP3    H241023   4.256   7.269   2.046  2.0694  0.6943 -0.9268
13694TIP3   OH241024   3.359   6.677   2.990  0.0371 -0.4039 -0.6145
13694TIP3    H141025   3.439   6.624   2.992 -0.1761 -0.7073  0.3228
13694TIP3    H241026   3.288   6.613   2.988 -0.1907 -0.1333 -2.1006
13695TIP3   OH241027   2.673   7.391   3.278  0.1052 -0.6925 -0.4047
13695TIP3    H141028   2.699   7.465   3.332 -0.9440 -1.1417  0.7670
13695TIP3    H241029   2.578   7.385   3.291  0.1037 -1.9041 -0.9066
13696TIP3   OH241030   2.127   1.122   4.365 -0.2983  0.3202  0.4177
13696TIP3    H141031   2.084   1.132   4.280  0.6036  1.0087  0.0310
13696TIP3    H241032   2.218   1.101   4.344  0.1128  1.2447  1.2075
13697TIP3   OH241033   0.052   7.256   2.164 -0.0514 -0.0080  0.1350
13697TIP3    H141034   0.077   7.338   2.122  0.2419 -0.6947 -1.0579
13697TIP3    H241035   0.118   7.193   2.136 -1.5727 -1.2205 -0.8782
13698TIP3   OH241036   6.215   5.020   0.505  0.2736 -0.4705 -0.1070
13698TIP3    H141037   6.207   5.097   0.561  1.1951 -0.6701  0.3283
13698TIP3    H241038   6.246   5.055   0.421 -2.8853  0.0610 -1.1768
13699TIP3   OH241039   2.994   5.338   6.434  0.6117 -0.0377  0.2628
13699TIP3    H141040   2.930   5.272   6.461 -0.0983  0.0952 -1.0074
13699TIP3    H241041   2.960   5.372   6.351  1.2108  1.5805  0.6395
13700TIP3   OH241042   1.943   0.365   1.121  0.4613 -0.0873  0.2465
13700TIP3    H141043   1.956   0.392   1.030  0.7105 -0.2339  0.2377
13700TIP3    H241044   1.961   0.271   1.121  0.2023 -0.1380  0.3965
13701TIP3   OH241045   4.728   0.656   0.596 -0.4566 -0.5755 -0.2008
13701TIP3    H141046   4.747   0.581   0.651 -0.4713 -0.2143  0.3044
13701TIP3    H241047   4.646   0.691   0.631 -0.4234 -0.2976 -0.3986
13702TIP3   OH241048   4.348   6.619   4.718  0.2170 -0.4239 -0.0299
13702TIP3    H141049   4.387   6.706   4.712  1.2893 -0.9151 -0.3051
13702TIP3    H241050   4.351   6.585   4.629 -0.2684 -0.7226  0.0645
13703TIP3   OH241051   8.108   2.573   0.557  0.2004  0.1969 -0.1265
13703TIP3    H141052   8.068   2.495   0.518 -0.6701  0.5401  0.0551
13703TIP3    H241053   8.053   2.593   0.633  0.5346  0.8699 -0.0499
13704TIP3   OH241054   4.177   4.965   1.344 -0.5091 -0.1610 -0.1805
13704TIP3    H141055   4.258   5.009   1.319  0.6874 -1.7844  0.6947
13704TIP3    H241056   4.115   4.989   1.274  0.8890  0.5743 -1.2273
13705TIP3   OH241057   5.849   3.037   1.693 -0.2725 -0.1969 -0.3441
13705TIP3    H141058   5.765   2.992   1.681 -0.7767  0.7813 -0.6075
13705TIP3    H241059   5.909   2.969   1.721 -1.5989 -0.6332  1.6736
13706TIP3   OH241060   8.002   4.288   3.204 -0.6207  0.1159 -0.5319
13706TIP3    H141061   7.969   4.212   3.156  0.2392 -0.5801 -0.0633
13706TIP3    H241062   8.097   4.288   3.187 -0.4503  0.4408  0.3479
13707TIP3   OH241063   0.420   2.807   3.035  0.0066  0.2337  0.4420
13707TIP3    H141064   0.475   2.750   2.981  2.4791  0.7621  2.2678
13707TIP3    H241065   0.417   2.890   2.988  1.5239  0.4604  0.6973
13708TIP3   OH241066   7.962   1.725   6.593 -0.2693  0.2873  0.0521
13708TIP3    H141067   7.971   1.670   6.671 -3.0425 -1.7255 -0.9244
13708TIP3    H241068   8.032   1.695   6.535 -0.5492 -0.8979  0.3004
13709TIP3   OH241069   7.984   3.915   2.809  0.3552 -0.0549  0.3167
13709TIP3    H141070   7.905   3.896   2.758 -0.2711  1.0860  0.8296
13709TIP3    H241071   8.054   3.920   2.744 -0.5739  2.2819 -0.6116
13710TIP3   OH241072   5.114   7.286   4.826 -0.6660 -0.2473 -0.1563
13710TIP3    H141073   5.181   7.354   4.813  1.3332 -1.8772  1.0978
13710TIP3    H241074   5.074   7.308   4.910 -1.1410  0.2173 -0.4894
13711TIP3   OH241075   5.181   6.134   6.091  0.1148  0.6363  0.5760
13711TIP3    H141076   5.235   6.062   6.122  2.3716  2.4265  1.0687
13711TIP3    H241077   5.116   6.147   6.161  1.5966  1.0021  1.9420
13712TIP3   OH241078   4.140   0.176   4.727  0.2175  0.2837 -0.1707
13712TIP3    H141079   4.211   0.111   4.728  0.6044  0.7054  0.0709
13712TIP3    H241080   4.175   0.249   4.677 -0.2126  0.3196 -0.4254
13713TIP3   OH241081   0.650   3.296   5.488  0.4050 -0.0903  0.4040
13713TIP3    H141082   0.657   3.286   5.583  0.9991 -0.4055  0.3368
13713TIP3    H241083   0.676   3.387   5.471  1.4029 -0.3490  0.4545
13714TIP3   OH241084   6.624   2.509   1.944 -0.0485 -0.0830 -1.0003
13714TIP3    H141085   6.695   2.546   1.996  0.0192 -0.1321 -1.0568
13714TIP3    H241086   6.628   2.556   1.861 -0.8107  0.7259 -0.5962
13715TIP3   OH241087   1.741   1.967   3.119 -0.1820  0.5278 -0.2060
13715TIP3    H141088   1.752   2.057   3.151 -3.7402  0.8193  0.5650
13715TIP3    H241089   1.700   1.977   3.033 -0.5032 -0.3591 -0.1661
13716TIP3   OH241090   7.688   7.099   3.573  0.2057  0.2917  0.6649
13716TIP3    H141091   7.752   7.168   3.590  1.2333 -0.1026 -1.3178
13716TIP3    H241092   7.723   7.022   3.618  0.6333  0.3147  0.3718
13717TIP3   OH241093   7.542   5.526   3.843  0.5128  0.0084 -0.2032
13717TIP3    H141094   7.497   5.557   3.765  0.4151  1.1707  0.3013
13717TIP3    H241095   7.567   5.605   3.890 -2.3788 -0.5489  2.6464
13718TIP3   OH241096   4.013   2.042   0.128  0.0630  0.1080  0.2904
13718TIP3    H141097   3.946   2.097   0.087 -0.7300 -0.8136  0.2953
13718TIP3    H241098   3.985   2.035   0.219  0.2385 -0.1759  0.3217
13719TIP3   OH241099   6.141   3.499   2.734 -0.2873 -0.8972 -0.5020
13719TIP3    H141100   6.233   3.510   2.713 -0.3240 -0.5574 -0.4929
13719TIP3    H241101   6.097   3.568   2.685 -0.7742 -2.3099 -2.1650
13720TIP3   OH241102   2.775   4.344   5.662 -0.1455  0.3232  0.3407
13720TIP3    H141103   2.740   4.406   5.597  0.0361 -0.8990 -0.9542
13720TIP3    H241104   2.860   4.381   5.686  0.0666  0.4668 -0.5919
13721TIP3   OH241105   4.105   6.994   1.915 -0.0980  0.2945  0.2894
13721TIP3    H141106   4.195   7.025   1.930 -0.0687  0.1645  0.3747
13721TIP3    H241107   4.063   7.067   1.870  0.5050 -0.2448 -1.2034
13722TIP3   OH241108   1.615   5.888   0.757  0.4716  0.3648 -0.2790
13722TIP3    H141109   1.616   5.980   0.728 -2.2411  0.5302 -0.0761
13722TIP3    H241110   1.560   5.844   0.693  1.7569 -1.1730 -0.3757
13723TIP3   OH241111   3.856   5.451   3.170  0.5803 -0.2070  0.3293
13723TIP3    H141112   3.939   5.482   3.207 -0.1292  1.7964  0.3339
13723TIP3    H241113   3.814   5.530   3.136 -0.8203 -1.3615 -0.7147
13724TIP3   OH241114   1.150   4.756   2.526  0.0480  0.1944 -0.6176
13724TIP3    H141115   1.055   4.763   2.516  0.0246  2.6451  0.5568
13724TIP3    H241116   1.162   4.722   2.614  0.2950 -1.4746 -1.2677
13725TIP3   OH241117   5.548   2.984   1.469  0.4195  0.5602 -0.3148
13725TIP3    H141118   5.566   2.984   1.563 -0.6349  2.5639 -0.0696
13725TIP3    H241119   5.516   3.072   1.450 -2.1337 -0.6042 -2.0002
13726TIP3   OH241120   1.241   1.284   2.031 -0.0434 -0.2540 -0.1125
13726TIP3    H141121   1.194   1.201   2.030 -0.2105 -0.2255  1.7880
13726TIP3    H241122   1.231   1.316   2.121  0.0354  1.8175 -0.7909
13727TIP3   OH241123   8.005   1.371   4.568  0.4134 -0.0339 -0.0534
13727TIP3    H141124   7.918   1.350   4.601  1.3054 -2.0852  1.1679
13727TIP3    H241125   7.993   1.384   4.474 -0.6798 -4.1069 -0.6465
13728TIP3   OH241126   5.330   5.101   3.409 -0.4430  0.2078  0.0336
13728TIP3    H141127   5.321   5.177   3.467 -1.0978  0.4042 -0.3184
13728TIP3    H241128   5.375   5.135   3.332  1.2638 -0.2495  0.7784
13729TIP3   OH241129   3.600   2.060   6.526 -0.0892  0.2054  0.2597
13729TIP3    H141130   3.572   1.971   6.507 -1.0732  0.3884  0.7934
13729TIP3    H241131   3.672   2.050   6.589  1.5143 -0.2913 -1.5740
13730TIP3   OH241132   7.421   6.993   3.585 -0.1908 -0.1944  0.7495
13730TIP3    H141133   7.499   7.043   3.611  0.7366 -1.3467  0.2869
13730TIP3    H241134   7.455   6.906   3.562 -1.4258 -0.2902 -0.8846
13731TIP3   OH241135   5.793   1.920   6.634 -0.0044 -0.1191  0.3032
13731TIP3    H141136   5.736   1.844   6.623  0.9853 -0.8668  0.1475
13731TIP3    H241137   5.755   1.987   6.578 -1.4283 -0.1745  1.1634
13732TIP3   OH241138   1.018   6.474   4.446  0.0371 -0.3048 -0.0436
13732TIP3    H141139   0.953   6.405   4.461 -1.4483  0.9318 -0.5904
13732TIP3    H241140   0.997   6.542   4.509 -0.0428  0.6749 -1.0936
13733TIP3   OH241141   6.930   0.433   4.153 -0.1143 -0.2393 -0.5077
13733TIP3    H141142   6.937   0.515   4.202 -1.7477 -0.6005  0.3752
13733TIP3    H241143   7.011   0.386   4.174 -1.6381 -1.3685  3.7250
13734TIP3   OH241144   0.675   2.960   4.658 -0.0471  0.3139  0.1357
13734TIP3    H141145   0.667   2.907   4.579  2.3377  0.0224  0.0145
13734TIP3    H241146   0.764   2.944   4.688 -0.5460  1.2712  2.2895
13735TIP3   OH241147   1.507   3.149   6.334 -0.0921  0.2240  0.2577
13735TIP3    H141148   1.594   3.147   6.293  0.8219  0.4524  2.0913
13735TIP3    H241149   1.476   3.238   6.319 -1.1536 -0.5066 -2.5373
13736TIP3   OH241150   6.695   3.843   5.433  0.1630 -0.1734  0.6800
13736TIP3    H141151   6.697   3.937   5.415  0.8319 -0.1447  0.8451
13736TIP3    H241152   6.619   3.811   5.385  0.2153  0.3735  0.2092
13737TIP3   OH241153   0.600   1.710   5.468  0.4074  0.4448  0.0180
13737TIP3    H141154   0.683   1.755   5.489  1.3225  0.1382 -2.6042
13737TIP3    H241155   0.614   1.620   5.495  0.6773  0.5422  0.2089
13738TIP3   OH241156   3.678   5.138   0.443 -0.0407  0.2866  0.0553
13738TIP3    H141157   3.685   5.189   0.363 -0.3940  0.0164 -0.1527
13738TIP3    H241158   3.732   5.061   0.427  1.0100  0.8861  0.6119
13739TIP3   OH241159   6.955   3.059   1.045  0.0228  0.1324  0.4385
13739TIP3    H141160   6.995   3.140   1.075 -0.2759  0.4803 -0.0952
13739TIP3    H241161   6.927   3.077   0.955 -0.7992 -0.2941  0.6022
13740TIP3   OH241162   4.881   6.049   4.580  0.2549 -0.0438 -0.1077
13740TIP3    H141163   4.929   6.124   4.544  2.5061 -1.2301  0.2200
13740TIP3    H241164   4.881   5.984   4.510 -0.5973 -0.1973  0.0224
13741TIP3   OH241165   7.652   2.895   2.101 -0.3651 -0.4712 -0.3173
13741TIP3    H141166   7.575   2.856   2.060  0.6271 -3.1309  0.1923
13741TIP3    H241167   7.692   2.824   2.150  1.4153  1.3053  0.9631
13742TIP3   OH241168   8.044   1.327   1.635 -0.1339 -0.8268  0.8475
13742TIP3    H141169   8.040   1.247   1.688  1.7319 -1.1939  0.4822
13742TIP3    H241170   8.110   1.309   1.568 -1.9401 -0.1407 -1.2686
13743TIP3   OH241171   0.328   4.362   5.838  0.0723  0.4020  0.0551
13743TIP3    H141172   0.246   4.358   5.788  0.7097  0.2646 -1.0256
13743TIP3    H241173   0.387   4.414   5.783  0.9238 -0.0909  0.4708
13744TIP3   OH241174   2.480   1.262   1.138 -0.8476 -0.2925 -0.6447
13744TIP3    H141175   2.463   1.177   1.097  0.9696 -0.6281 -0.7950
13744TIP3    H241176   2.528   1.312   1.072 -1.1421  0.5315 -0.2463
13745TIP3   OH241177   0.109   6.680   4.568 -0.8972  0.3947  0.2462
13745TIP3    H141178   0.174   6.619   4.535 -0.9474  0.5301 -0.1022
13745TIP3    H241179   0.027   6.652   4.528 -1.0967  0.0989  0.8447
13746TIP3   OH241180   1.675   3.210   3.986 -0.1368  0.3815  0.1259
13746TIP3    H141181   1.715   3.192   4.071 -0.3623  0.7223  0.3092
13746TIP3    H241182   1.667   3.306   3.983 -1.1320  0.3154  0.1919
13747TIP3   OH241183   0.551   0.434   3.320  0.4367  0.4548 -0.1516
13747TIP3    H141184   0.482   0.438   3.386  1.5243  1.5422  0.9835
13747TIP3    H241185   0.520   0.490   3.249  1.3985  3.6645  1.7093
13748TIP3   OH241186   7.974   6.610   1.005  0.0253  0.6657  0.2630
13748TIP3    H141187   7.985   6.675   0.935  1.4408  0.5107  0.3061
13748TIP3    H241188   8.050   6.553   0.996 -0.4466 -0.1307  1.1418
13749TIP3   OH241189   8.234   4.763   2.242 -0.3570 -0.0045 -0.2981
13749TIP3    H141190   8.321   4.770   2.203 -0.2049 -0.1931  0.0034
13749TIP3    H241191   8.240   4.688   2.300 -0.1040  1.1717  1.2801
13750TIP3   OH241192   7.261   5.059   2.203 -0.3928  0.1944 -0.4539
13750TIP3    H141193   7.311   5.096   2.129 -1.8777  1.7577 -0.7429
13750TIP3    H241194   7.287   5.113   2.278  0.1413 -0.5533 -0.0949
13751TIP3   OH241195   6.868   6.833   3.552 -0.2610 -0.2041 -0.3685
13751TIP3    H141196   6.877   6.782   3.633 -1.0583 -1.1984 -0.8890
13751TIP3    H241197   6.954   6.872   3.539 -0.6958  1.9102  2.2012
13752TIP3   OH241198   7.681   5.703   4.032  0.1882  0.4253 -0.2402
13752TIP3    H141199   7.651   5.664   4.115 -0.2106  0.5215 -0.3375
13752TIP3    H241200   7.685   5.797   4.050 -2.4883  0.7969 -1.0735
13753TIP3   OH241201   5.288   2.865   6.157 -0.2460 -0.2430 -0.1469
13753TIP3    H141202   5.319   2.811   6.085  0.9251 -1.3947  1.1556
13753TIP3    H241203   5.345   2.842   6.231 -1.2173  1.0862  1.0821
13754TIP3   OH241204   7.796   5.665   6.690  0.3084  0.1278 -0.4912
13754TIP3    H141205   7.759   5.697   6.772  1.0814 -0.2233  0.0007
13754TIP3    H241206   7.743   5.706   6.622 -1.2990 -0.7627  0.1932
13755TIP3   OH241207   7.257   5.231   0.144  0.1655  0.4268 -0.4187
13755TIP3    H141208   7.187   5.254   0.205 -0.6053  1.2811 -1.5841
13755TIP3    H241209   7.224   5.256   0.058  1.4491 -0.2265 -1.1414
13756TIP3   OH241210   1.384   0.673   6.602  0.4694 -0.1691 -0.1056
13756TIP3    H141211   1.460   0.618   6.581  1.4517  0.6024  1.2605
13756TIP3    H241212   1.336   0.622   6.667  0.9361  0.1998  0.5443
13757TIP3   OH241213   1.861   3.393   0.949  0.8885 -0.1549 -0.5189
13757TIP3    H141214   1.889   3.339   0.875  2.0067  0.4161 -0.5317
13757TIP3    H241215   1.847   3.480   0.911 -1.5167 -0.5265 -0.6223
13758TIP3   OH241216   7.430   6.297   2.005 -0.6722 -0.2157  0.1930
13758TIP3    H141217   7.445   6.212   1.962  0.3690 -0.4791  1.0341
13758TIP3    H241218   7.393   6.274   2.090 -2.4635  0.2915 -0.4276
13759TIP3   OH241219   7.501   6.746   3.509  0.8068 -0.1257 -0.4282
13759TIP3    H141220   7.564   6.679   3.483  0.6400  0.3073 -2.0800
13759TIP3    H241221   7.426   6.697   3.544  2.4290 -0.6289  2.7015
13760TIP3   OH241222   4.539   2.903   3.472 -0.1214 -0.2345  0.0898
13760TIP3    H141223   4.505   2.818   3.502  1.7561 -0.8654  0.5459
13760TIP3    H241224   4.628   2.884   3.442  0.3077  1.5735  0.1162
13761TIP3   OH241225   1.857   6.338   0.575 -0.3698 -0.0647  0.3130
13761TIP3    H141226   1.907   6.304   0.648  1.2434  0.4090 -0.5331
13761TIP3    H241227   1.775   6.369   0.615  0.8372  1.0402  2.0632
13762TIP3   OH241228   1.787   3.835   6.190  0.1356  0.2039 -0.0013
13762TIP3    H141229   1.793   3.828   6.285 -0.8875  1.3920  0.1797
13762TIP3    H241230   1.741   3.918   6.175  0.4654  0.1400 -1.5353
13763TIP3   OH241231   6.090   2.500   6.726  0.5158 -0.1072  0.3591
13763TIP3    H141232   6.074   2.562   6.798  2.1349 -0.5222  1.1143
13763TIP3    H241233   6.018   2.517   6.664  1.6267  3.5751 -0.2071
13764TIP3   OH241234   0.603   1.979   6.266 -0.1459 -0.1262  0.2092
13764TIP3    H141235   0.528   2.013   6.217 -0.4314  0.1167  0.8116
13764TIP3    H241236   0.588   2.006   6.356 -0.8852 -2.6880  0.9222
13765TIP3   OH241237   1.676   4.189   4.054 -0.3163  0.2038  0.4692
13765TIP3    H141238   1.670   4.280   4.081 -0.8380  0.0045  1.0558
13765TIP3    H241239   1.590   4.152   4.077  0.2174 -0.6672  1.1303
13766TIP3   OH241240   3.784   2.582  -0.015 -0.2169  0.8561  0.1159
13766TIP3    H141241   3.711   2.579   0.046  0.3024 -0.3736  0.7034
13766TIP3    H241242   3.835   2.658   0.013  0.0703  0.2530  1.2866
13767TIP3   OH241243   6.673   4.907   4.078 -0.0372 -0.3175  0.4396
13767TIP3    H141244   6.742   4.854   4.118  1.5181  1.3528  0.0812
13767TIP3    H241245   6.601   4.846   4.065  1.5542 -2.2667  0.3273
13768TIP3   OH241246   7.511   7.091   4.033 -0.2087 -0.7749 -0.1203
13768TIP3    H141247   7.517   7.062   4.124  0.3579 -3.2017 -0.8635
13768TIP3    H241248   7.598   7.076   3.997 -0.1557  1.0594 -0.8620
13769TIP3   OH241249   2.089   7.492   3.414 -0.1649  0.5246 -0.0962
13769TIP3    H141250   2.117   7.580   3.440  0.5269  0.5839 -0.9862
13769TIP3    H241251   2.068   7.448   3.496 -1.2752  1.7566  0.3324
13770TIP3   OH241252   7.547   7.111   5.414  0.1323  0.2831  0.5741
13770TIP3    H141253   7.613   7.163   5.368 -2.3359  2.6194 -0.6007
13770TIP3    H241254   7.543   7.151   5.502 -1.9595  2.5454 -0.4103
13771TIP3   OH241255   0.185   3.035   5.431 -0.6905  0.6822  0.0043
13771TIP3    H141256   0.206   2.946   5.459  0.9286  0.7735 -0.7809
13771TIP3    H241257   0.187   3.087   5.511  0.1936  0.3037  0.2473
13772TIP3   OH241258   4.594   4.964   6.540 -0.6829 -0.2899 -0.2115
13772TIP3    H141259   4.565   4.988   6.452  0.7436  0.8958 -0.3836
13772TIP3    H241260   4.546   5.025   6.597  0.7542  1.1134 -0.4361
13773TIP3   OH241261   7.715   1.594   3.521  0.5061 -0.1722 -0.2432
13773TIP3    H141262   7.646   1.584   3.456  0.8138 -0.1447 -0.5772
13773TIP3    H241263   7.672   1.636   3.595  0.3944  0.8405 -0.8562
13774TIP3   OH241264   1.882   6.741   5.104  0.6993  0.1505 -0.4481
13774TIP3    H141265   1.858   6.727   5.195 -0.6939 -1.5475 -1.0330
13774TIP3    H241266   1.974   6.713   5.099  0.2411 -1.5279  0.0690
13775TIP3   OH241267   2.497   4.169   5.156  0.0999 -0.1597 -0.2691
13775TIP3    H141268   2.564   4.231   5.183 -1.0605  1.6220 -1.2456
13775TIP3    H241269   2.541   4.113   5.092  1.5557 -1.3675  1.6707
13776TIP3   OH241270   8.066   3.172   0.353  0.3200  0.8374  0.4195
13776TIP3    H141271   8.029   3.086   0.369 -0.2818  1.2557  1.3586
13776TIP3    H241272   8.144   3.155   0.300  0.3190 -0.2925  0.7512
13777TIP3   OH241273   5.964   3.185   3.284  0.2366  0.0782  0.1849
13777TIP3    H141274   5.962   3.148   3.373  0.8782  1.1782  0.6798
13777TIP3    H241275   5.915   3.267   3.292 -0.3891 -0.2063 -0.6763
13778TIP3   OH241276   1.707   5.837   0.408 -0.4958  0.0572  0.4194
13778TIP3    H141277   1.666   5.765   0.455 -0.1335 -0.5574 -0.1860
13778TIP3    H241278   1.798   5.837   0.439 -0.5526  0.4021  0.5894
13779TIP3   OH241279   5.470   7.409   3.655 -0.3801  0.2231 -0.0549
13779TIP3    H141280   5.384   7.440   3.628 -0.4649 -0.7752 -1.0020
13779TIP3    H241281   5.530   7.479   3.629 -0.7656  0.3794 -0.5421
13780TIP3   OH241282   3.470   4.988   0.648  0.3337 -0.2609 -0.1882
13780TIP3    H141283   3.417   5.064   0.622  1.7693  0.1497 -2.1283
13780TIP3    H241284   3.411   4.913   0.636 -0.1196  0.2554 -1.4641
13781TIP3   OH241285   1.235   0.573   6.339 -0.2673 -0.2235  0.2773
13781TIP3    H141286   1.277   0.614   6.263 -1.2680  0.8904  0.2922
13781TIP3    H241287   1.299   0.580   6.409 -0.1592  0.7215  0.0898
13782TIP3   OH241288   0.809   1.209   3.658  0.1077  0.2527  0.0318
13782TIP3    H141289   0.858   1.243   3.583  2.4162 -0.3372  1.1615
13782TIP3    H241290   0.771   1.127   3.627  2.7186 -1.0418 -0.0591
13783TIP3   OH241291   8.066   7.343   1.593  0.2788  0.0915  0.4044
13783TIP3    H141292   8.054   7.349   1.499 -0.0533  0.7158  0.4812
13783TIP3    H241293   7.983   7.308   1.626 -0.0744  1.0490  0.5795
13784TIP3   OH241294   5.104   2.197   0.954 -0.2284 -0.1387  0.5488
13784TIP3    H141295   5.147   2.130   0.900  0.2799  0.2288  0.4869
13784TIP3    H241296   5.104   2.160   1.043  0.5895  0.0271  0.6226
13785TIP3   OH241297   2.876   5.224   1.050  0.1339 -0.0357 -0.0807
13785TIP3    H141298   2.900   5.285   0.981 -0.7180 -1.1958 -1.4452
13785TIP3    H241299   2.800   5.265   1.093  1.1105  1.0334  0.6867
13786TIP3   OH241300   4.948   2.834   3.197  0.0869 -0.4246  0.1844
13786TIP3    H141301   4.971   2.746   3.167 -0.0387 -0.1347 -0.7988
13786TIP3    H241302   5.022   2.889   3.172  0.0050 -0.1799  0.4643
13787TIP3   OH241303   2.549   0.075   2.190  0.2779  0.0177  0.2623
13787TIP3    H141304   2.610   0.014   2.148 -0.2864 -0.2670 -0.1616
13787TIP3    H241305   2.462   0.043   2.165 -0.1796 -1.1247  2.9411
13788TIP3   OH241306   5.657   6.343   2.484  0.6242 -0.2448 -0.2101
13788TIP3    H141307   5.659   6.398   2.562 -1.1720 -1.0751  0.4690
13788TIP3    H241308   5.620   6.399   2.416  0.0942 -0.1892  0.1212
13789TIP3   OH241309   2.055   6.775   3.508  0.1907 -0.0967 -0.1646
13789TIP3    H141310   2.033   6.683   3.494  0.5212 -0.1940 -0.0593
13789TIP3    H241311   2.150   6.775   3.524  0.1835  0.2538 -0.1052
13790TIP3   OH241312   4.324   2.576   5.938 -0.3905  0.1006 -0.2259
13790TIP3    H141313   4.418   2.562   5.925  0.0897  1.8488  0.9304
13790TIP3    H241314   4.283   2.543   5.858  1.2498 -0.1800 -0.9980
13791TIP3   OH241315   3.462   5.261   3.412  0.0199  0.7591 -0.2074
13791TIP3    H141316   3.547   5.247   3.452  0.9038 -0.6641 -2.4281
13791TIP3    H241317   3.469   5.222   3.325 -3.4554 -1.0248  0.1425
13792TIP3   OH241318   6.478   7.454   2.267  0.1350  0.3174  0.0532
13792TIP3    H141319   6.488   7.399   2.345 -0.6305  0.6941  0.4288
13792TIP3    H241320   6.410   7.410   2.215 -0.2951  0.7579  0.2332
13793TIP3   OH241321   1.355   1.617   4.178  0.6124  0.1681 -0.1989
13793TIP3    H141322   1.374   1.666   4.258  0.1563 -2.2768  1.5417
13793TIP3    H241323   1.405   1.536   4.188 -0.3305 -0.6717 -1.8626
13794TIP3   OH241324   7.735   5.244   4.808 -0.3979 -0.4320 -0.0168
13794TIP3    H141325   7.751   5.296   4.887  1.4893 -0.8482 -0.0672
13794TIP3    H241326   7.747   5.306   4.736  1.7146 -0.8074 -0.0714
13795TIP3   OH241327   1.290   1.435   6.236 -0.1267 -0.0741  0.6689
13795TIP3    H141328   1.245   1.437   6.320 -0.3344 -0.7888  0.5833
13795TIP3    H241329   1.220   1.444   6.171 -0.2690 -1.8621  0.5141
13796TIP3   OH241330   4.011   0.324   1.589  0.2562 -0.3397 -0.0391
13796TIP3    H141331   4.052   0.242   1.618 -0.8407 -0.6916  0.5706
13796TIP3    H241332   3.989   0.369   1.670 -1.9174 -0.8575 -0.2754
13797TIP3   OH241333   8.076   4.190   0.343 -0.0512 -0.9180  0.2133
13797TIP3    H141334   8.033   4.236   0.416 -2.1219 -0.7435 -1.0552
13797TIP3    H241335   8.125   4.120   0.386  0.0955  0.1477  1.8981
13798TIP3   OH241336   3.355   7.499   4.751  0.1886 -0.4039 -0.2586
13798TIP3    H141337   3.443   7.537   4.751  0.2906 -0.6321 -0.8895
13798TIP3    H241338   3.347   7.456   4.666 -0.6961 -0.0073 -0.3914
13799TIP3   OH241339   7.685   1.310   1.334 -0.2894 -0.0667 -0.0935
13799TIP3    H141340   7.727   1.391   1.361 -1.5637  0.3149  0.8376
13799TIP3    H241341   7.713   1.298   1.243  0.5164  1.0049 -0.0131
13800TIP3   OH241342   2.644   1.088   4.706  0.2414  0.5219  0.2483
13800TIP3    H141343   2.710   1.136   4.655 -1.3829  2.5778 -0.0443
13800TIP3    H241344   2.635   1.138   4.787  1.9102 -2.0430  2.1875
13801TIP3   OH241345   4.896   4.659   2.615 -0.2466 -0.4165 -0.1270
13801TIP3    H141346   4.862   4.573   2.593  0.3987 -0.1874 -2.2801
13801TIP3    H241347   4.989   4.655   2.592  0.3043  0.2136  1.7934
13802TIP3   OH241348   6.510   4.736   6.319 -0.2496  0.6944 -0.1560
13802TIP3    H141349   6.572   4.805   6.344  0.6418 -0.0361 -0.2659
13802TIP3    H241350   6.424   4.777   6.326  0.2177  1.6159  0.4210
13803TIP3   OH241351   2.421   6.460   2.086 -0.2143 -0.9737  0.5475
13803TIP3    H141352   2.403   6.375   2.047 -1.3461 -2.0703  3.2292
13803TIP3    H241353   2.462   6.440   2.170 -1.4997  1.0686  1.7511
13804TIP3   OH241354   7.895   0.770   6.690 -0.3204 -0.4168 -0.5162
13804TIP3    H141355   7.804   0.755   6.716 -1.0277  3.0059 -0.5889
13804TIP3    H241356   7.922   0.846   6.740  1.5945  0.3297 -2.5277
13805TIP3   OH241357   8.195   6.499   3.214  0.4348 -0.1193 -0.6052
13805TIP3    H141358   8.166   6.425   3.162  0.1171  0.7656 -1.7398
13805TIP3    H241359   8.197   6.573   3.152 -1.0567  1.2331  0.8681
13806TIP3   OH241360   7.930   4.416   3.973  0.4950  0.3018  0.4063
13806TIP3    H141361   8.004   4.392   4.029 -0.0454 -0.2065  0.9266
13806TIP3    H241362   7.932   4.511   3.971  1.8198  0.2803 -0.4951
13807TIP3   OH241363   2.706   4.629   1.706  0.0829  0.0272 -0.0056
13807TIP3    H141364   2.687   4.536   1.708 -0.3579  0.1231  1.1383
13807TIP3    H241365   2.802   4.634   1.702  0.2788 -0.5214  2.4414
13808TIP3   OH241366   7.010   4.207   1.413 -0.1656  0.1155  0.2994
13808TIP3    H141367   7.030   4.170   1.327 -0.6327  0.2177  0.1479
13808TIP3    H241368   6.980   4.296   1.395  0.2559  0.3264  0.6089
13809TIP3   OH241369   3.029   2.374   3.769 -0.1676 -0.5314  0.3030
13809TIP3    H141370   3.023   2.280   3.753  1.1335 -0.8731  1.6609
13809TIP3    H241371   3.065   2.410   3.687  0.7751 -1.4246  0.3061
13810TIP3   OH241372   5.344   7.308   2.380 -0.3015 -0.2731 -0.2266
13810TIP3    H141373   5.323   7.322   2.288 -0.8242 -0.0055 -0.0680
13810TIP3    H241374   5.335   7.394   2.421 -0.2513 -0.4250  0.1094
13811TIP3   OH241375   4.060   6.963   0.298  0.4429  0.4086  0.6496
13811TIP3    H141376   4.144   6.922   0.314  0.2733  0.8362  3.0635
13811TIP3    H241377   4.006   6.937   0.372 -0.7984  2.0140  0.3796
13812TIP3   OH241378   6.370   6.621   1.121  0.1451 -0.1672  0.2424
13812TIP3    H141379   6.376   6.655   1.210 -2.2000  0.6442  0.1653
13812TIP3    H241380   6.436   6.551   1.117 -0.9002 -1.4822  3.2026
13813TIP3   OH241381   5.997   4.194   1.315 -0.4320  0.0076 -0.3999
13813TIP3    H141382   6.073   4.242   1.282 -0.5588 -0.3633 -1.2595
13813TIP3    H241383   6.033   4.138   1.384 -0.0220  0.2421 -0.4197
13814TIP3   OH241384   6.970   4.501   0.604  0.0341 -0.2890 -0.2822
13814TIP3    H141385   6.898   4.454   0.645 -0.2633  0.2755 -0.1418
13814TIP3    H241386   6.928   4.557   0.539  0.2707  0.5552  0.2770
13815TIP3   OH241387   1.518   7.043   3.597  0.2477 -0.2690 -0.4014
13815TIP3    H141388   1.551   6.957   3.624  0.2966 -0.7837 -2.0310
13815TIP3    H241389   1.493   7.031   3.506  0.8778  1.6404 -0.8514
13816TIP3   OH241390   2.415   4.155   0.163 -0.0027  0.0602  0.0416
13816TIP3    H141391   2.492   4.134   0.110 -0.1906  0.1665 -0.2813
13816TIP3    H241392   2.419   4.096   0.238  1.5678  1.5244  1.1885
13817TIP3   OH241393   0.700   3.559   4.254 -0.2501  0.3567 -0.2574
13817TIP3    H141394   0.612   3.596   4.248 -0.7703 -0.2844  2.2207
13817TIP3    H241395   0.740   3.604   4.328  1.5025  0.5447 -1.2690
13818TIP3   OH241396   7.378   0.382   1.825  0.1922  0.2950 -0.5333
13818TIP3    H141397   7.349   0.364   1.915  1.1268  0.5704 -0.1537
13818TIP3    H241398   7.336   0.315   1.772 -0.7796  0.4355  0.0349
13819TIP3   OH241399   5.649   6.274   3.271 -0.0302 -0.9449 -0.0476
13819TIP3    H141400   5.617   6.356   3.234  0.2839 -0.1749  1.3150
13819TIP3    H241401   5.664   6.217   3.195 -3.4375 -0.9619 -0.8582
13820TIP3   OH241402   6.920   6.995   4.771 -0.0139  0.0738 -0.1249
13820TIP3    H141403   6.997   7.014   4.718  0.8532 -0.4381  0.9000
13820TIP3    H241404   6.906   6.901   4.762 -0.1821  0.0702  0.1301
13821TIP3   OH241405   5.880   5.778   0.641  0.2686 -0.2801  0.0981
13821TIP3    H141406   5.831   5.709   0.686  0.2290 -0.5070 -0.2855
13821TIP3    H241407   5.829   5.797   0.563  0.8394 -0.6052 -0.3694
13822TIP3   OH241408   5.984   1.998   0.121  0.6271  0.1138 -0.4797
13822TIP3    H141409   5.935   2.060   0.068 -0.4518  0.6019  1.0250
13822TIP3    H241410   6.057   2.048   0.155  0.5473  0.1737 -0.3966
13823TIP3   OH241411   6.452   1.980   3.786 -0.0723  0.5211 -0.3678
13823TIP3    H141412   6.499   1.980   3.870 -0.9412  2.5672  0.1748
13823TIP3    H241413   6.403   1.898   3.786  0.8447 -0.0590  0.5715
13824TIP3   OH241414   7.016   0.591   3.097  0.2670 -0.6285  0.2687
13824TIP3    H141415   7.049   0.634   3.018  0.9778 -2.9404 -0.7983
13824TIP3    H241416   6.926   0.567   3.076 -0.2792  0.6449  1.0286
13825TIP3   OH241417   3.989   0.834   2.418  0.0829  0.2056 -0.3468
13825TIP3    H141418   4.003   0.812   2.510 -0.5919 -1.5989 -0.6304
13825TIP3    H241419   3.894   0.822   2.406  0.0335  1.2395 -1.0902
13826TIP3   OH241420   2.842   4.337   4.506 -0.1462 -0.4648  0.0612
13826TIP3    H141421   2.813   4.325   4.596 -1.4123  0.6216 -0.1728
13826TIP3    H241422   2.763   4.366   4.459  0.5895 -0.5803 -1.3046
13827TIP3   OH241423   5.554   1.972   5.212  0.0440 -0.3315  0.2787
13827TIP3    H141424   5.495   2.032   5.165  0.2575  0.5955  1.1576
13827TIP3    H241425   5.523   1.885   5.188 -1.2733  0.1315  0.1997
13828TIP3   OH241426   2.382   7.009   2.463  0.6629 -0.3791 -0.2681
13828TIP3    H141427   2.299   7.054   2.481  0.8433 -0.5811  1.1834
13828TIP3    H241428   2.436   7.074   2.419  0.2192  0.1984  0.0308
13829TIP3   OH241429   0.042   0.678   6.338 -0.5233 -0.2535 -0.5449
13829TIP3    H141430   0.114   0.738   6.359 -0.7244 -0.2428  0.1284
13829TIP3    H241431   0.082   0.592   6.340 -0.5234 -0.2450 -0.2000
13830TIP3   OH241432   5.661   2.581   1.381 -1.1514 -0.0850 -0.4505
13830TIP3    H141433   5.689   2.549   1.296 -0.2042  0.1419 -0.2366
13830TIP3    H241434   5.683   2.674   1.381  1.2190 -0.5699  0.9438
13831TIP3   OH241435   1.492   0.433   0.426  0.6175 -0.1628  0.0317
13831TIP3    H141436   1.506   0.523   0.395 -1.4022  0.2089  0.0784
13831TIP3    H241437   1.453   0.388   0.351  0.2066 -0.5697  0.4817
13832TIP3   OH241438   6.719   5.731   0.411  0.2668 -0.1771 -0.1560
13832TIP3    H141439   6.706   5.659   0.350  0.0937  0.5333 -0.9792
13832TIP3    H241440   6.769   5.796   0.360 -1.1584  1.0555 -0.0399
13833TIP3   OH241441   2.790   5.205   6.199  0.4649  0.2331  0.0840
13833TIP3    H141442   2.706   5.179   6.160  0.6192  0.6067 -0.4951
13833TIP3    H241443   2.836   5.252   6.130  0.7909  0.8023  0.6763
13834TIP3   OH241444   5.517   5.164   5.249  0.4210 -0.3065  0.0264
13834TIP3    H141445   5.438   5.137   5.201 -0.4587  1.1937  0.5636
13834TIP3    H241446   5.499   5.254   5.275  1.5704 -0.5305  1.7344
13835TIP3   OH241447   3.196   0.026   2.806 -0.1061  0.1307 -0.1708
13835TIP3    H141448   3.237   0.055   2.888  1.3161 -0.4754 -0.6474
13835TIP3    H241449   3.218   0.094   2.742 -0.1803 -0.0082 -0.3452
13836TIP3   OH241450   4.117   1.482   0.033 -0.0765  0.0503  0.4958
13836TIP3    H141451   4.071   1.558   0.070  0.0474 -0.4210  1.6621
13836TIP3    H241452   4.068   1.461  -0.047 -1.5545 -0.0897  1.4016
13837TIP3   OH241453   5.531   2.619   0.975  0.3291  0.1975  0.5282
13837TIP3    H141454   5.447   2.662   0.993  0.0588  0.0656 -0.3642
13837TIP3    H241455   5.573   2.675   0.910 -0.0703 -0.9022 -0.7193
13838TIP3   OH241456   4.025   2.044   1.716 -0.1610 -0.5181 -0.4490
13838TIP3    H141457   4.088   2.012   1.780 -0.0265  0.0071 -0.3167
13838TIP3    H241458   3.956   1.978   1.715 -0.6394 -0.0642  0.9471
13839TIP3   OH241459   7.504   2.871   4.414 -0.0113  0.1873  0.5971
13839TIP3    H141460   7.421   2.892   4.457 -0.3623  1.9049 -0.8212
13839TIP3    H241461   7.536   2.793   4.460 -3.1614 -1.5180  0.1800
13840TIP3   OH241462   5.955   6.059   2.268 -0.3411 -0.2465  0.5191
13840TIP3    H141463   5.959   5.964   2.276  1.9804 -0.2947 -0.3277
13840TIP3    H241464   5.971   6.076   2.175 -0.5948  0.9667  0.6816
13841TIP3   OH241465   4.466   1.341   2.757 -0.7943  0.1986  0.1762
13841TIP3    H141466   4.525   1.384   2.695  1.2739  0.5077  2.2014
13841TIP3    H241467   4.473   1.394   2.837 -1.3815 -1.5603  1.4505
13842TIP3   OH241468   0.048   6.833   3.471  0.4937  0.4220 -0.2654
13842TIP3    H141469   0.124   6.830   3.413  0.6775  1.5072 -0.1140
13842TIP3    H241470   0.059   6.914   3.521 -1.0065  0.8799 -0.5965
13843TIP3   OH241471   3.698   4.915   0.758 -0.3462  0.1575 -0.4754
13843TIP3    H141472   3.635   4.953   0.698 -0.7914 -1.8908 -1.3539
13843TIP3    H241473   3.655   4.918   0.844 -0.9599  0.2841 -0.7878
13844TIP3   OH241474   5.011   0.468   1.158  0.7810  0.0261  0.6254
13844TIP3    H141475   4.944   0.445   1.223 -0.7488 -1.2010 -1.2845
13844TIP3    H241476   5.047   0.383   1.131  2.2595  0.6041  0.7336
13845TIP3   OH241477   3.219   3.525   0.461  0.3723  0.3273 -0.1903
13845TIP3    H141478   3.142   3.579   0.445 -0.2128 -0.2085  0.7207
13845TIP3    H241479   3.239   3.486   0.376 -1.3597 -0.7940 -0.1440
13846TIP3   OH241480   2.384   0.133   3.760 -0.1452 -0.2480 -0.0682
13846TIP3    H141481   2.450   0.078   3.803  0.3203 -0.4740 -1.0421
13846TIP3    H241482   2.435   0.199   3.712 -0.5059 -1.4887 -2.2830
13847TIP3   OH241483   2.801   4.634   5.273  0.0348  0.3305 -0.3072
13847TIP3    H141484   2.885   4.674   5.254  0.4757  0.1628  1.1695
13847TIP3    H241485   2.791   4.642   5.368 -0.8900 -1.0444 -0.2537
13848TIP3   OH241486   0.690   5.888   4.618 -0.0467  0.4843 -0.3138
13848TIP3    H141487   0.688   5.905   4.524 -1.6802 -0.8709 -0.5589
13848TIP3    H241488   0.599   5.868   4.641  0.7658 -2.1137  0.9876
13849TIP3   OH241489   5.484   0.916   4.865  0.4892  0.8156  0.4039
13849TIP3    H141490   5.558   0.858   4.848  0.9580  1.2172  1.0393
13849TIP3    H241491   5.514   0.974   4.934 -0.3715  1.0818  0.5701
13850TIP3   OH241492   4.471   4.803   4.488 -0.0101 -0.5579 -0.2482
13850TIP3    H141493   4.515   4.881   4.522  1.6632 -0.5352 -2.2489
13850TIP3    H241494   4.493   4.733   4.549  1.1940 -0.1136 -0.1468
13851TIP3   OH241495   4.734   6.285   0.185 -0.2159 -0.2998 -0.3795
13851TIP3    H141496   4.763   6.361   0.133  0.4447 -0.5562 -0.3879
13851TIP3    H241497   4.813   6.254   0.228 -0.1941 -1.8306 -1.4502
13852TIP3   OH241498   2.105   6.678   1.612 -0.3861 -0.6103  0.0753
13852TIP3    H141499   2.122   6.654   1.521  0.0387 -0.4603  0.1104
13852TIP3    H241500   2.187   6.657   1.657 -0.7121 -1.0179  0.4910
13853TIP3   OH241501   6.897   0.219   2.467  0.2258 -0.1244  0.2454
13853TIP3    H141502   6.870   0.300   2.424 -0.9014  0.0135  1.1712
13853TIP3    H241503   6.990   0.232   2.487  0.0974  0.8780  0.2205
13854TIP3   OH241504   2.913   2.397   6.303  0.1187 -0.2212  0.2584
13854TIP3    H141505   2.993   2.433   6.340  0.0769  2.0677 -1.6289
13854TIP3    H241506   2.843   2.446   6.343 -0.1994 -0.6272  0.2090
13855TIP3   OH241507   2.987   3.181   5.882  0.5097 -0.7465  0.3626
13855TIP3    H141508   3.036   3.171   5.801 -1.9095 -0.9687 -1.1855
13855TIP3    H241509   3.032   3.125   5.945  1.3291 -2.1362 -1.3923
13856TIP3   OH241510   3.210   5.742   5.214  0.0894 -0.0165 -0.0506
13856TIP3    H141511   3.217   5.835   5.193 -1.1736  0.4598  1.4624
13856TIP3    H241512   3.125   5.716   5.180 -0.0325 -0.3430  0.4954
13857TIP3   OH241513   2.323   4.685   6.223 -0.2689 -0.1000 -0.4673
13857TIP3    H141514   2.281   4.607   6.259  0.3194 -0.6636 -0.9787
13857TIP3    H241515   2.252   4.745   6.206 -0.5087  0.8034  3.0174
13858TIP3   OH241516   5.088   0.136   6.504 -0.1877 -0.1926  0.0930
13858TIP3    H141517   4.995   0.117   6.505 -0.5851  1.3641 -1.5437
13858TIP3    H241518   5.095   0.227   6.531  1.0049 -0.6121  1.3506
13859TIP3   OH241519   7.804   2.814   5.567 -0.0763  0.1656 -0.2927
13859TIP3    H141520   7.825   2.732   5.523 -0.9513 -0.5306  0.5468
13859TIP3    H241521   7.884   2.866   5.562  0.2547 -0.4396 -1.4787
13860TIP3   OH241522   3.215   5.977   1.597 -0.1492 -0.1783  0.1553
13860TIP3    H141523   3.229   5.928   1.516 -0.0293  1.8099 -1.1092
13860TIP3    H241524   3.160   5.921   1.651  1.6096 -2.5290 -0.3372
13861TIP3   OH241525   0.091   1.767   0.787  0.8501  0.4903 -0.0874
13861TIP3    H141526   0.102   1.794   0.879  0.7032  0.5550 -0.0889
13861TIP3    H241527   0.019   1.704   0.788 -0.3033  1.7478 -0.3816
13862TIP3   OH241528   0.565   6.679   0.066  0.5575  0.9017 -0.9003
13862TIP3    H141529   0.587   6.726  -0.014 -0.8598  0.6289 -1.4889
13862TIP3    H241530   0.492   6.728   0.104 -1.3776 -1.0695 -1.8508
13863TIP3   OH241531   3.824   4.314   2.703 -0.2945 -0.3122 -0.0152
13863TIP3    H141532   3.833   4.314   2.607  0.1030 -0.0167  0.0190
13863TIP3    H241533   3.729   4.316   2.718 -0.3482  0.6727 -0.4053
13864TIP3   OH241534   1.727   6.513   2.631 -0.1575  0.4678 -0.1404
13864TIP3    H141535   1.698   6.521   2.722 -1.4057  2.0943 -0.6438
13864TIP3    H241536   1.650   6.536   2.579  0.7140  0.1639 -1.6220
13865TIP3   OH241537   5.016   5.668   5.489 -0.0510 -0.2312  0.3414
13865TIP3    H141538   5.049   5.636   5.573 -0.6346 -1.5959  0.0683
13865TIP3    H241539   5.082   5.640   5.425 -1.4131 -2.5495 -0.1408
13866TIP3   OH241540   7.683   1.522   4.531  0.3836  0.2018  0.5731
13866TIP3    H141541   7.700   1.616   4.532 -0.2758  0.3338 -0.0211
13866TIP3    H241542   7.726   1.489   4.610  1.5927  0.8207  0.2041
13867TIP3   OH241543   5.074   2.242   4.076 -0.3182  0.2896  0.2603
13867TIP3    H141544   5.114   2.216   3.993 -0.8614 -0.6437  0.2693
13867TIP3    H241545   5.143   2.230   4.141 -0.2634 -0.1736  0.1175
13868TIP3   OH241546   3.199   4.581   0.349  0.7073  0.4208 -0.0352
13868TIP3    H141547   3.104   4.571   0.350  0.9168 -2.6081  2.2874
13868TIP3    H241548   3.214   4.662   0.399 -0.6048  1.1821 -0.8010
13869TIP3   OH241549   3.276   6.814   4.716  0.0265  0.4302  0.5197
13869TIP3    H141550   3.367   6.824   4.742 -0.5698  1.9308  2.2132
13869TIP3    H241551   3.227   6.815   4.798 -1.5293 -0.5054 -0.3341
13870TIP3   OH241552   1.351   6.065   2.089  0.2517  0.4637  0.3124
13870TIP3    H141553   1.382   5.989   2.039  2.0573  0.4973  1.3246
13870TIP3    H241554   1.355   6.138   2.027  0.3058  0.0799 -0.1388
13871TIP3   OH241555   3.411   4.582   5.325 -0.1968 -0.1405 -0.0438
13871TIP3    H141556   3.442   4.624   5.244  0.0870 -0.1955  0.0342
13871TIP3    H241557   3.437   4.643   5.394  2.6447 -1.6399  0.3462
13872TIP3   OH241558   2.799   2.144   0.641 -0.1666  0.1745 -0.7430
13872TIP3    H141559   2.720   2.166   0.690 -0.2304 -0.1757 -0.6848
13872TIP3    H241560   2.860   2.111   0.707  0.3845  1.3648 -0.6441
13873TIP3   OH241561   3.140   6.347   0.679 -0.2929 -0.1341 -0.1726
13873TIP3    H141562   3.062   6.292   0.673 -0.0955 -0.4270 -0.0428
13873TIP3    H241563   3.196   6.303   0.743  0.7541 -0.8730 -1.5631
13874TIP3   OH241564   8.233   3.799   2.940 -0.2145  0.3426  0.5917
13874TIP3    H141565   8.154   3.793   2.993 -0.8944 -1.7493 -0.5395
13874TIP3    H241566   8.208   3.854   2.865 -0.6427 -0.3302  0.2252
13875TIP3   OH241567   1.329   1.293   2.914  0.1202 -0.0957 -0.2666
13875TIP3    H141568   1.301   1.358   2.850 -0.9899 -0.8835 -0.6165
13875TIP3    H241569   1.390   1.340   2.971  0.8618  0.7377 -1.6568
13876TIP3   OH241570   2.064   2.577   6.101  0.2162  0.0099 -0.2463
13876TIP3    H141571   2.012   2.653   6.126  1.4196  0.5037  0.9315
13876TIP3    H241572   2.127   2.611   6.037  0.4508 -0.0879 -0.0704
13877TIP3   OH241573   3.267   0.896   6.541  0.4690  0.4016 -0.3003
13877TIP3    H141574   3.351   0.870   6.577 -0.0330  0.0672  0.6703
13877TIP3    H241575   3.246   0.828   6.477  0.5739  0.0762  0.0139
13878TIP3   OH241576   7.717   4.873   0.981 -0.1032  0.1613  0.2202
13878TIP3    H141577   7.631   4.915   0.989 -1.4787 -2.2779 -0.8053
13878TIP3    H241578   7.704   4.786   1.017  1.5790 -0.7249 -1.1962
13879TIP3   OH241579   0.263   7.668   2.640 -0.8681  0.1904 -0.2563
13879TIP3    H141580   0.251   7.624   2.556 -1.3919 -1.5469  0.6929
13879TIP3    H241581   0.193   7.733   2.643 -0.8175  0.3014 -1.1719
13880TIP3   OH241582   5.111   4.764   3.122  0.0166  0.0563 -0.4508
13880TIP3    H141583   5.143   4.822   3.192 -0.7703  2.0151 -1.6568
13880TIP3    H241584   5.027   4.731   3.155 -0.5378  1.2758 -0.6239
13881TIP3   OH241585   6.838   4.405   1.041  0.5677 -0.5281  0.4739
13881TIP3    H141586   6.761   4.445   1.081  2.5548  1.9304  2.1517
13881TIP3    H241587   6.882   4.477   0.995  2.8416 -1.3632  1.1879
13882TIP3   OH241588   0.380   6.576   1.499  0.5704  0.0214  0.3881
13882TIP3    H141589   0.398   6.494   1.544  0.4354 -0.8091 -1.0000
13882TIP3    H241590   0.460   6.594   1.450 -0.4067 -0.9558 -1.7275
13883TIP3   OH241591   0.431   6.939   5.085  0.2884  0.5066  0.3940
13883TIP3    H141592   0.437   6.961   5.178  1.1972  0.4243  0.3638
13883TIP3    H241593   0.339   6.917   5.071  0.5326 -1.6084  1.7615
13884TIP3   OH241594   0.990   2.684   5.749 -0.6090  0.0711 -0.4257
13884TIP3    H141595   0.939   2.669   5.670 -1.9772 -2.2492  0.7796
13884TIP3    H241596   1.067   2.627   5.740 -0.8482 -0.3198 -0.0384
13885TIP3   OH241597   1.641   0.789   2.656  0.1098 -0.6067 -0.1604
13885TIP3    H141598   1.686   0.809   2.738 -0.6626  0.0910  0.1058
13885TIP3    H241599   1.597   0.871   2.632 -1.2708 -1.3450 -0.2400
13886TIP3   OH241600   4.854   5.447   4.768  1.0429 -0.6528 -0.4635
13886TIP3    H141601   4.829   5.510   4.835  0.2321 -0.6555 -0.7513
13886TIP3    H241602   4.944   5.471   4.745  0.3468  1.2277 -1.4833
13887TIP3   OH241603   5.855   6.625   1.093  0.4819  0.2943  0.0228
13887TIP3    H141604   5.879   6.602   1.183  1.3148  0.5719 -0.1227
13887TIP3    H241605   5.933   6.667   1.057  0.0295  0.5229 -0.7143
13888TIP3   OH241606   5.534   3.382   0.556  0.0613  0.3519  0.1768
13888TIP3    H141607   5.511   3.300   0.599  0.7413  1.1506  2.1930
13888TIP3    H241608   5.479   3.448   0.599  2.6620  1.5863  1.8550
13889TIP3   OH241609   1.394   7.204   3.382 -0.4476  0.5354 -0.1029
13889TIP3    H141610   1.390   7.250   3.299 -0.3093 -2.3744 -1.8801
13889TIP3    H241611   1.303   7.178   3.400 -0.1311 -1.4208 -1.0295
13890TIP3   OH241612   0.271   2.841   2.279  0.0597 -0.5463  0.5890
13890TIP3    H141613   0.237   2.815   2.364 -0.1927 -2.8557 -0.1525
13890TIP3    H241614   0.195   2.835   2.221  0.4243  0.1382  0.0315
13891TIP3   OH241615   4.330   3.194   6.086 -0.1874  0.3978  0.1238
13891TIP3    H141616   4.349   3.112   6.041 -0.3006  0.4197  0.0381
13891TIP3    H241617   4.298   3.253   6.018  0.8508  0.8400 -0.0162
13892TIP3   OH241618   7.910   2.472   0.919  0.2376 -0.4042  0.2439
13892TIP3    H141619   7.909   2.385   0.879 -1.0214 -0.4693  0.3909
13892TIP3    H241620   7.922   2.532   0.846 -2.2654 -0.5069 -0.3342
13893TIP3   OH241621   7.459   7.623   0.839  0.2691  0.4938 -0.0941
13893TIP3    H141622   7.406   7.641   0.762  0.1188  0.9170  0.1034
13893TIP3    H241623   7.396   7.619   0.911  0.5344  1.3781  0.2012
13894TIP3   OH241624   6.567   4.506   6.473 -0.3063  0.2810  0.1479
13894TIP3    H141625   6.557   4.597   6.448 -2.3575  0.3767  1.1150
13894TIP3    H241626   6.486   4.463   6.444 -0.2039 -0.8104  1.3498
13895TIP3   OH241627   5.936   4.755   4.428 -0.5612  0.1455 -0.0619
13895TIP3    H141628   5.881   4.782   4.501 -1.3808  1.5027 -1.1252
13895TIP3    H241629   6.003   4.824   4.422 -0.2654 -0.1649 -0.3549
13896TIP3   OH241630   2.693   4.577   3.232  0.0436 -0.2107  1.3962
13896TIP3    H141631   2.789   4.577   3.232  0.0477 -0.9700  1.5259
13896TIP3    H241632   2.670   4.668   3.213  0.7895 -0.1443  0.7483
13897TIP3   OH241633   1.255   2.429   0.982  0.4614 -0.2236 -0.4589
13897TIP3    H141634   1.198   2.413   0.907 -0.6306 -0.5597  0.4146
13897TIP3    H241635   1.289   2.343   1.006 -0.4830 -0.3767  0.4087
13898TIP3   OH241636   0.556   5.496   2.406 -0.0134  0.0095  0.3869
13898TIP3    H141637   0.609   5.435   2.356 -2.1423 -0.8052 -1.0491
13898TIP3    H241638   0.618   5.562   2.438  1.7894 -0.7693 -1.3000
13899TIP3   OH241639   7.722   7.131   2.197 -0.2379 -0.1767 -0.2391
13899TIP3    H141640   7.665   7.169   2.265 -1.9052 -0.2710 -1.5218
13899TIP3    H241641   7.740   7.203   2.137  1.2954 -0.0749  0.3000
13900TIP3   OH241642   6.266   7.772   0.904  0.4780 -0.3256  0.0483
13900TIP3    H141643   6.242   7.818   0.824  0.0361 -0.3003  0.1910
13900TIP3    H241644   6.241   7.681   0.888 -0.3069 -0.1865  0.4300
13901TIP3   OH241645   6.179   2.024   1.827 -0.5828 -0.3657 -0.1177
13901TIP3    H141646   6.119   2.060   1.761 -0.3159  2.0091  0.8223
13901TIP3    H241647   6.265   2.027   1.786 -0.4117  1.1429  0.3052
13902TIP3   OH241648   7.593   3.511   1.115  0.8722 -0.1783 -0.0257
13902TIP3    H141649   7.680   3.481   1.143  0.4263 -0.5473  1.0097
13902TIP3    H241650   7.537   3.496   1.191  0.0455  0.7295 -0.4371
13903TIP3   OH241651   6.058   7.300   2.320 -0.2305  0.1373 -0.5721
13903TIP3    H141652   6.028   7.389   2.302 -2.9840 -0.5386  0.1798
13903TIP3    H241653   6.098   7.306   2.407 -2.3787  0.3391  0.4869
13904TIP3   OH241654   2.078   1.503   4.138 -0.0178  0.8163 -0.0399
13904TIP3    H141655   1.985   1.480   4.131  0.2308 -0.1765 -0.2035
13904TIP3    H241656   2.089   1.575   4.076 -0.4154  0.0954 -0.9758
13905TIP3   OH241657   6.225   7.672   1.210  0.5641 -0.3714  0.3050
13905TIP3    H141658   6.307   7.659   1.163  1.1561  0.8156  0.9536
13905TIP3    H241659   6.167   7.713   1.147  1.2525  0.9302  0.4897
13906TIP3   OH241660   1.950   4.205   4.304 -0.1092  0.8095 -0.0312
13906TIP3    H141661   1.884   4.272   4.284 -0.8561  0.2840  0.5615
13906TIP3    H241662   1.906   4.147   4.367  1.5564  1.5014  1.8629
13907TIP3   OH241663   2.618   6.193   4.139 -0.0518 -0.3479  0.6220
13907TIP3    H141664   2.525   6.177   4.154 -0.1730  0.7614  1.2232
13907TIP3    H241665   2.620   6.267   4.079  0.3983  0.7054  1.8640
13908TIP3   OH241666   3.533   2.987   0.396 -0.0616  0.0447  0.2902
13908TIP3    H141667   3.602   3.022   0.452  0.5457  0.2112 -0.5495
13908TIP3    H241668   3.532   2.893   0.414  0.7974 -0.0481 -0.1378
13909TIP3   OH241669   1.388   3.071   1.912 -0.4285 -0.0297 -0.4463
13909TIP3    H141670   1.351   2.986   1.935  0.9412 -1.1438 -2.1120
13909TIP3    H241671   1.366   3.127   1.986  0.3415 -2.3481  1.6816
13910TIP3   OH241672   1.749   6.295   1.628  0.5488  0.3282 -0.5347
13910TIP3    H141673   1.659   6.319   1.651  0.0543  0.6460 -2.5384
13910TIP3    H241674   1.804   6.363   1.668 -0.2991  1.2873 -0.9522
13911TIP3   OH241675   2.773   7.238   5.434 -0.1558  0.6767  0.0926
13911TIP3    H141676   2.775   7.298   5.360 -2.0801 -0.3300 -0.8739
13911TIP3    H241677   2.788   7.293   5.510 -1.3984  2.3279 -0.7851
13912TIP3   OH241678   0.874   7.430   2.844 -0.3598 -0.3772 -0.3863
13912TIP3    H141679   0.859   7.522   2.868  2.3705  0.4051 -1.2847
13912TIP3    H241680   0.805   7.411   2.780  0.3968  1.8786 -2.0136
13913TIP3   OH241681   6.457   1.366   0.916 -0.9590  0.3588  0.2752
13913TIP3    H141682   6.473   1.437   0.978 -0.8423  1.3782 -0.8781
13913TIP3    H241683   6.469   1.286   0.967 -1.2639  1.1669  1.6422
13914TIP3   OH241684   7.190   7.116   5.575 -0.1580 -0.1233  0.4905
13914TIP3    H141685   7.116   7.175   5.584 -0.5944 -0.8823  2.3323
13914TIP3    H241686   7.156   7.041   5.526 -0.8030 -0.7271  1.8215
13915TIP3   OH241687   1.103   1.434   6.036  0.2418 -0.3313  0.4361
13915TIP3    H141688   1.070   1.467   5.953 -1.4989  0.0522  1.2413
13915TIP3    H241689   1.071   1.344   6.040 -1.5896  0.3092  1.6098
13916TIP3   OH241690   2.101   5.177   5.557  0.3711  0.3119 -0.5056
13916TIP3    H141691   2.096   5.241   5.486  2.0332  1.2318  0.1404
13916TIP3    H241692   2.078   5.226   5.636  1.0183 -0.0530 -0.0798
13917TIP3   OH241693   6.887   1.637   3.642 -0.0633  0.4466 -0.5978
13917TIP3    H141694   6.896   1.703   3.573 -2.2950  0.0035 -1.3577
13917TIP3    H241695   6.812   1.666   3.694  0.6445 -0.0450  0.7671
13918TIP3   OH241696   4.176   7.387   4.334  0.0226 -0.3182  0.5826
13918TIP3    H141697   4.215   7.398   4.247 -1.5959 -1.7316 -0.3978
13918TIP3    H241698   4.084   7.408   4.321  0.2456  2.6842  2.7559
13919TIP3   OH241699   4.384   4.688   5.394  0.1959 -0.3518  0.0082
13919TIP3    H141700   4.366   4.728   5.310  1.2596  1.9643  0.8068
13919TIP3    H241701   4.479   4.677   5.396  0.0994 -1.1757  0.5760
13920TIP3   OH241702   0.884   3.576   5.480 -0.1256  0.5365 -0.2890
13920TIP3    H141703   0.792   3.597   5.498 -0.5495 -1.0514 -0.5178
13920TIP3    H241704   0.892   3.577   5.385  0.0296  0.3699 -0.2792
13921TIP3   OH241705   1.984   3.560   5.558 -0.1627 -0.3264  0.4765
13921TIP3    H141706   1.945   3.578   5.472  0.2035 -1.0757  0.1398
13921TIP3    H241707   2.048   3.630   5.570  2.2220 -2.0028 -1.4327
13922TIP3   OH241708   2.199   7.370   5.774 -0.3541  0.0793  0.1481
13922TIP3    H141709   2.104   7.375   5.771 -0.4237  0.5679  1.7723
13922TIP3    H241710   2.227   7.460   5.792  0.2533 -0.4044  1.8360
13923TIP3   OH241711   4.244   2.125   3.201  0.3233  0.0152 -0.3517
13923TIP3    H141712   4.324   2.110   3.150  0.7254 -0.0766  0.2977
13923TIP3    H241713   4.182   2.159   3.137  0.4906 -1.0640 -1.1187
13924TIP3   OH241714   8.152   1.818   1.866  0.2805 -0.3308 -0.5663
13924TIP3    H141715   8.085   1.759   1.833 -0.2454  1.1354 -2.2641
13924TIP3    H241716   8.113   1.905   1.858  0.9057  0.2918  2.1564
13925TIP3   OH241717   1.321   1.269   5.544  0.5523  0.2535 -0.5508
13925TIP3    H141718   1.333   1.184   5.500  1.0706 -0.1862  0.4145
13925TIP3    H241719   1.366   1.332   5.487  0.9160 -0.2539 -0.8325
13926TIP3   OH241720   7.266   6.663   1.523 -0.5011  0.1921 -0.5734
13926TIP3    H141721   7.231   6.576   1.541  2.7228 -1.0956  0.2475
13926TIP3    H241722   7.340   6.647   1.464 -0.1775  2.4499 -0.8562
13927TIP3   OH241723   2.728   1.684   4.256 -0.8900 -0.1280  0.2114
13927TIP3    H141724   2.678   1.616   4.300 -0.2744 -1.3918 -0.9920
13927TIP3    H241725   2.665   1.729   4.200 -1.2903  0.3121  0.9950
13928TIP3   OH241726   2.808   2.060   2.520 -0.5091 -0.6266 -0.0554
13928TIP3    H141727   2.819   2.069   2.615 -1.0490 -0.1721 -0.0296
13928TIP3    H241728   2.852   2.137   2.484 -1.1093 -0.3005 -0.1118
13929TIP3   OH241729   3.105   1.181   3.304  0.6910  0.3278 -0.2371
13929TIP3    H141730   3.166   1.247   3.339 -0.6302  0.6976  1.4767
13929TIP3    H241731   3.019   1.213   3.328 -0.0400 -1.6261 -0.0880
13930TIP3   OH241732   4.619   1.482   4.604 -0.0307  0.2179 -0.1771
13930TIP3    H141733   4.588   1.419   4.539  0.7260 -1.3197  0.8870
13930TIP3    H241734   4.714   1.482   4.594  0.0533  0.3742  0.5675
13931TIP3   OH241735   4.739   2.802   0.772  0.5090  0.4096  0.1557
13931TIP3    H141736   4.658   2.778   0.727  1.0456  0.1330 -0.6887
13931TIP3    H241737   4.718   2.793   0.865 -0.5860  0.8787 -0.0304
13932TIP3   OH241738   4.077   0.936   5.248 -0.3454 -0.4807 -0.3045
13932TIP3    H141739   4.031   0.989   5.183 -1.3723 -0.4939  0.3946
13932TIP3    H241740   4.122   0.869   5.197 -1.6893 -0.9107 -0.9651
13933TIP3   OH241741   2.007   7.355   0.845  0.1214  0.2335  0.0196
13933TIP3    H141742   1.990   7.436   0.797 -0.6745 -1.1783 -2.2493
13933TIP3    H241743   2.092   7.369   0.885  0.5053  1.8039 -1.2192
13934TIP3   OH241744   3.075   3.634   4.309  0.0108 -0.2737 -0.2111
13934TIP3    H141745   3.022   3.658   4.233 -0.2953  1.0532  0.3977
13934TIP3    H241746   3.074   3.712   4.364  2.7731 -0.1017 -0.2589
13935TIP3   OH241747   6.429   2.002   4.579  0.0103  0.4525  0.3567
13935TIP3    H141748   6.455   1.966   4.664  1.7517 -0.1695 -0.3838
13935TIP3    H241749   6.500   2.063   4.556 -0.0970  0.1348 -0.9117
13936TIP3   OH241750   0.926   1.012   5.093 -0.9612 -0.1646  0.8772
13936TIP3    H141751   1.009   0.970   5.072 -0.8995  0.3306  0.0639
13936TIP3    H241752   0.945   1.071   5.165 -0.8522 -0.8657  1.4235
13937TIP3   OH241753   8.126   4.832   6.489 -0.7062 -0.7162  0.6342
13937TIP3    H141754   8.188   4.789   6.547  0.5167  0.8340  0.5444
13937TIP3    H241755   8.136   4.926   6.507  0.4398 -0.0651 -2.6522
13938TIP3   OH241756   7.681   6.966   0.914  0.4195 -0.0812 -0.2283
13938TIP3    H141757   7.675   6.874   0.890  1.2573 -0.1134 -0.3338
13938TIP3    H241758   7.643   6.971   1.002 -0.7451 -0.3107 -0.6990
13939TIP3   OH241759   2.518   2.267   3.527  0.4124 -0.4380 -0.0544
13939TIP3    H141760   2.490   2.315   3.605 -0.0874 -1.2393  0.2767
13939TIP3    H241761   2.599   2.223   3.552  0.1326 -0.8773  0.0946
13940TIP3   OH241762   1.765   3.003   3.626 -0.2205  0.4244 -0.7067
13940TIP3    H141763   1.785   2.980   3.535 -1.4698 -0.0702 -0.8779
13940TIP3    H241764   1.674   2.975   3.638 -0.2732  1.0670  0.5083
13941TIP3   OH241765   5.219   0.762   2.094  0.0733 -0.3729  0.0261
13941TIP3    H141766   5.185   0.825   2.030 -0.5225  0.3704  1.0395
13941TIP3    H241767   5.295   0.805   2.132 -0.1429 -0.3954  0.4923
13942TIP3   OH241768   4.855   5.530   1.001  0.5279 -0.0596  0.6468
13942TIP3    H141769   4.891   5.515   0.913 -2.7628 -3.2953 -0.3912
13942TIP3    H241770   4.806   5.611   0.994  0.2077 -0.3381 -0.6098
13943TIP3   OH241771   7.119   0.890   5.665  0.6805  0.5545 -0.4724
13943TIP3    H141772   7.121   0.976   5.623 -0.5908  0.2772 -1.1707
13943TIP3    H241773   7.035   0.889   5.712  0.8226 -0.1852 -0.2249
13944TIP3   OH241774   4.099   2.978   0.817  0.4447 -0.1635  0.2128
13944TIP3    H141775   4.007   2.969   0.841  0.5796 -0.8450  0.5058
13944TIP3    H241776   4.139   3.026   0.890  0.3399  0.0420  0.1334
13945TIP3   OH241777   4.984   3.638   1.190  0.2336 -0.4205 -0.4524
13945TIP3    H141778   4.972   3.637   1.095  0.9268 -2.2374 -0.5602
13945TIP3    H241779   5.065   3.589   1.205  1.3745  1.7646  0.9568
13946TIP3   OH241780   8.118   4.710   0.809  0.1203  0.2714  0.4099
13946TIP3    H141781   8.192   4.653   0.830  0.5678  1.0556  0.9915
13946TIP3    H241782   8.144   4.755   0.729  0.2602  0.5202  0.5944
13947TIP3   OH241783   6.550   2.717   5.235 -0.0419 -0.0425  0.3867
13947TIP3    H141784   6.556   2.734   5.141  2.0440  1.9598  0.7748
13947TIP3    H241785   6.510   2.796   5.271 -0.4818 -0.6355  1.2260
13948TIP3   OH241786   0.336   2.435   1.842  0.4506 -0.4693  0.4588
13948TIP3    H141787   0.320   2.529   1.839  0.3525 -0.4688  0.8948
13948TIP3    H241788   0.332   2.407   1.751 -0.0483 -0.1397  0.3760
13949TIP3   OH241789   1.058   4.372   0.508  0.0200 -0.2523 -0.0671
13949TIP3    H141790   1.139   4.421   0.517  0.2465 -0.3752 -1.3278
13949TIP3    H241791   0.991   4.440   0.496 -0.2343 -0.1022  1.8515
13950TIP3   OH241792   8.098   4.805   4.759  0.0174 -0.4066  0.5015
13950TIP3    H141793   8.050   4.768   4.685 -0.2492 -1.0267  0.9704
13950TIP3    H241794   8.173   4.746   4.771  1.6212  1.2273 -0.9929
13951TIP3   OH241795   4.296   7.682   0.999 -1.0588  0.6688 -0.1830
13951TIP3    H141796   4.250   7.655   1.079  0.4043  1.3440  0.9461
13951TIP3    H241797   4.329   7.600   0.962 -0.9102  0.4280  0.4659
13952TIP3   OH241798   6.247   3.945   4.982  0.4558  0.3607 -0.2181
13952TIP3    H141799   6.322   3.968   4.926  1.5607 -1.0008  0.6191
13952TIP3    H241800   6.204   3.873   4.937 -0.7601  1.5411 -1.0015
13953TIP3   OH241801   3.765   6.994   4.959 -0.2733  0.3948  0.6024
13953TIP3    H141802   3.676   7.015   4.932 -0.1962 -1.4944 -1.4072
13953TIP3    H241803   3.820   7.048   4.903 -0.0461  2.3800  2.5716
13954TIP3   OH241804   2.946   1.826   2.790 -0.2502  0.2847  0.1689
13954TIP3    H141805   2.979   1.760   2.850 -0.9423 -0.3851 -0.1585
13954TIP3    H241806   3.024   1.862   2.747  0.1885  0.2449  0.9220
13955TIP3   OH241807   1.963   7.413   1.589  0.8395 -0.3738 -0.0723
13955TIP3    H141808   2.007   7.492   1.558  0.4846  0.1477  0.7382
13955TIP3    H241809   2.033   7.347   1.596  1.9484  0.9436  3.0490
13956TIP3   OH241810   7.175   0.381   4.539  0.6448 -0.1729  0.1252
13956TIP3    H141811   7.153   0.367   4.447  1.9360 -0.5848 -0.1292
13956TIP3    H241812   7.093   0.363   4.586  0.0737 -0.3172 -0.9051
13957TIP3   OH241813   4.347   3.900   5.532 -0.0099  0.3967  0.1691
13957TIP3    H141814   4.322   3.850   5.610  0.6749 -0.8819 -0.3945
13957TIP3    H241815   4.314   3.988   5.548 -0.9515 -0.1466  1.3633
13958TIP3   OH241816   6.860   0.611   6.603 -0.4112 -0.1017  0.2444
13958TIP3    H141817   6.811   0.530   6.620 -0.2673 -0.6279 -1.5987
13958TIP3    H241818   6.798   0.668   6.557  0.3006 -0.3231 -1.0535
13959TIP3   OH241819   3.418   1.770   4.758 -0.9505  0.4461  0.1899
13959TIP3    H141820   3.505   1.728   4.754 -0.6260  0.9674  1.3774
13959TIP3    H241821   3.404   1.787   4.851 -2.2024  0.6608 -0.0240
13960TIP3   OH241822   8.004   4.202   1.613  0.5031  0.0348 -0.3620
13960TIP3    H141823   8.095   4.231   1.609  0.6979 -0.0205  2.1066
13960TIP3    H241824   7.954   4.280   1.638  0.1083 -0.2919 -0.1036
13961TIP3   OH241825   8.045   0.203   4.242 -0.4496 -0.5093  0.0767
13961TIP3    H141826   8.120   0.169   4.193  0.3282 -0.5186  1.2280
13961TIP3    H241827   8.056   0.167   4.330 -2.3922 -1.3589  0.0070
13962TIP3   OH241828   7.679   2.357   4.516 -0.2145  0.2157 -0.8493
13962TIP3    H141829   7.645   2.312   4.593 -1.8295  1.3045 -0.8525
13962TIP3    H241830   7.772   2.334   4.512 -0.6717 -1.9226 -0.0832
13963TIP3   OH241831   0.910   2.777   6.020 -0.2721  0.5509 -0.2602
13963TIP3    H141832   0.852   2.824   5.960  0.3054  1.1541 -0.3610
13963TIP3    H241833   0.987   2.755   5.967  1.0786  2.7163  0.6735
13964TIP3   OH241834   4.393   7.767   5.013  0.2711 -0.2104  0.2243
13964TIP3    H141835   4.382   7.723   4.929  1.2642 -0.4246  0.1987
13964TIP3    H241836   4.486   7.787   5.018  0.3886 -1.0172  1.6863
13965TIP3   OH241837   7.577   2.320   6.157 -0.3092  0.2527  0.4191
13965TIP3    H141838   7.654   2.293   6.106 -0.2775 -1.2960  1.2394
13965TIP3    H241839   7.506   2.265   6.125 -0.3196 -0.6559  1.9247
13966TIP3   OH241840   8.001   7.613   2.995  0.4087 -0.1328 -0.1610
13966TIP3    H141841   7.924   7.587   2.945  0.2943 -0.9971  0.4432
13966TIP3    H241842   7.976   7.693   3.040  0.3482  0.3819 -1.0856
13967TIP3   OH241843   3.546   1.557   6.161 -0.2862  0.5389  0.5256
13967TIP3    H141844   3.617   1.584   6.103 -0.0257 -0.9134  0.1082
13967TIP3    H241845   3.589   1.547   6.247  0.3601 -1.5446  0.0222
13968TIP3   OH241846   7.050   7.712   0.506  0.3941  0.1473  0.2355
13968TIP3    H141847   7.110   7.769   0.555 -0.3718  1.1311  0.0511
13968TIP3    H241848   6.973   7.705   0.562  0.0615  0.1619 -0.2189
13969TIP3   OH241849   7.834   1.277   2.457 -0.2075  0.2660  0.0441
13969TIP3    H141850   7.922   1.241   2.451 -0.9191 -1.4727 -0.4352
13969TIP3    H241851   7.785   1.214   2.509 -0.8152  1.9939  1.6627
13970TIP3   OH241852   4.048   4.357   6.179  0.0779  0.0180  0.1194
13970TIP3    H141853   4.040   4.261   6.178  0.4600 -0.0240 -1.6794
13970TIP3    H241854   4.128   4.373   6.230  0.7403 -0.7125 -0.6487
13971TIP3   OH241855   5.175   3.199   2.867 -0.3591  0.4628  0.0355
13971TIP3    H141856   5.133   3.281   2.893  0.7511  1.1336 -0.2154
13971TIP3    H241857   5.250   3.192   2.925 -0.6423 -0.5754  0.2940
13972TIP3   OH241858   3.626   6.854   2.503  0.1932 -0.4804  0.1546
13972TIP3    H141859   3.715   6.831   2.529  0.5708 -0.1625 -0.8420
13972TIP3    H241860   3.617   6.946   2.528  0.3198 -0.3686 -0.2117
13973TIP3   OH241861   3.655   5.892   0.988 -0.0940  0.1711 -0.0014
13973TIP3    H141862   3.584   5.874   0.927 -1.0975 -0.2253  1.2284
13973TIP3    H241863   3.670   5.986   0.980  0.6362 -0.0612 -1.7092
13974TIP3   OH241864   4.613   6.229   1.648 -0.6194 -0.4241 -0.0749
13974TIP3    H141865   4.699   6.194   1.628  0.4142  1.4189  0.8952
13974TIP3    H241866   4.617   6.321   1.619 -2.1408 -0.2092  0.3022
13975TIP3   OH241867   5.065   5.312   1.839  0.4510  0.0854  0.1443
13975TIP3    H141868   4.983   5.263   1.842 -0.0003  0.4244 -3.1112
13975TIP3    H241869   5.039   5.403   1.854  0.6064 -0.0427  1.3207
13976TIP3   OH241870   7.813   7.128  -0.004  0.5092 -0.3309 -0.3145
13976TIP3    H141871   7.786   7.112   0.086  0.2054  1.1576 -0.1200
13976TIP3    H241872   7.904   7.157   0.003  0.2116  0.6340 -0.4011
13977TIP3   OH241873   7.176   0.147   5.414  0.2714 -0.4154  0.5164
13977TIP3    H141874   7.182   0.054   5.392 -1.0899  0.0161 -2.0304
13977TIP3    H241875   7.238   0.190   5.355  0.4996  0.3783  1.2950
13978TIP3   OH241876   0.514   5.176   4.074  0.5274  0.3408 -0.0122
13978TIP3    H141877   0.424   5.162   4.042  0.3465 -0.3810  0.7748
13978TIP3    H241878   0.510   5.262   4.117 -0.7079 -1.0989  3.0052
13979TIP3   OH241879   6.706   2.594   1.681  0.0307 -0.1186  0.2244
13979TIP3    H141880   6.793   2.633   1.688  0.3252 -0.9137  1.3393
13979TIP3    H241881   6.647   2.668   1.666  0.8560  0.4620 -0.1919
13980TIP3   OH241882   1.608   5.129   2.524  0.0567 -0.5296  0.2497
13980TIP3    H141883   1.525   5.111   2.482  1.0242 -1.3220 -1.4030
13980TIP3    H241884   1.669   5.066   2.486  1.3208 -0.3116  1.7882
13981TIP3   OH241885   2.282   5.660   5.113  0.5807 -0.4586 -0.0806
13981TIP3    H141886   2.315   5.701   5.033  2.0712  0.8708  1.1461
13981TIP3    H241887   2.272   5.733   5.174 -6.1958 -0.3473 -0.6016
13982TIP3   OH241888   3.337   4.090   0.770 -0.5473  0.0653  0.1875
13982TIP3    H141889   3.375   4.170   0.806  2.1231  0.1091 -2.3936
13982TIP3    H241890   3.266   4.119   0.713  0.4809  0.6189 -0.8205
13983TIP3   OH241891   3.745   3.742   2.656  0.4810  0.0653 -0.2345
13983TIP3    H141892   3.672   3.780   2.706  2.2458  2.2667  0.8842
13983TIP3    H241893   3.791   3.686   2.719  1.1461  0.6827 -0.1485
13984TIP3   OH241894   5.951   6.759   3.716  0.2209 -0.1304  0.6016
13984TIP3    H141895   5.915   6.786   3.631  1.2644  1.5016  0.6274
13984TIP3    H241896   5.903   6.679   3.738 -0.5355 -0.2285 -1.2084
13985TIP3   OH241897   7.178   2.690   4.938  0.6048 -0.5304 -0.2680
13985TIP3    H141898   7.216   2.644   4.863  0.9592 -0.6827  0.0034
13985TIP3    H241899   7.183   2.628   5.010  0.2238 -0.4006 -0.1238
13986TIP3   OH241900   2.634   4.010   2.183 -0.5658 -0.4922  0.1310
13986TIP3    H141901   2.622   3.992   2.090  0.3105  0.7873 -0.2535
13986TIP3    H241902   2.694   4.084   2.186 -0.8253 -0.3025  1.7137
13987TIP3   OH241903   1.347   4.391   0.476 -0.1985  0.9490 -0.2675
13987TIP3    H141904   1.418   4.386   0.540 -0.9155  0.6802  0.5202
13987TIP3    H241905   1.346   4.305   0.434  0.9316  1.4392 -1.4024
13988TIP3   OH241906   5.022   4.836   2.063  0.0520 -0.6792 -0.3081
13988TIP3    H141907   4.959   4.906   2.075  1.3618  0.9093 -2.1723
13988TIP3    H241908   5.027   4.794   2.149 -2.1193  0.3029  0.3696
13989TIP3   OH241909   5.843   7.815   0.810 -0.1411  0.0385  0.1809
13989TIP3    H141910   5.800   7.749   0.755 -0.2747  1.5130 -1.5702
13989TIP3    H241911   5.776   7.881   0.826  0.6449  0.9313 -0.1356
13990TIP3   OH241912   4.087   6.415   3.755 -0.3559  0.8391 -0.3418
13990TIP3    H141913   4.122   6.371   3.833 -1.5186 -1.6032 -1.1034
13990TIP3    H241914   4.039   6.491   3.790 -1.0882 -0.3473  1.3754
13991TIP3   OH241915   5.460   5.480   3.754  0.2387  0.2327 -0.1962
13991TIP3    H141916   5.539   5.508   3.707  0.1461 -0.2937 -0.6734
13991TIP3    H241917   5.490   5.406   3.808  0.0775  0.0316 -0.3789
13992TIP3   OH241918   3.941   1.045   0.829 -0.6478 -0.5121 -0.3839
13992TIP3    H141919   3.880   1.091   0.887  0.8353  0.6363  0.3274
13992TIP3    H241920   3.979   0.976   0.883 -0.5849 -0.6027 -0.5418
13993TIP3   OH241921   3.757   6.153   4.275 -0.4132  0.1536  0.4977
13993TIP3    H141922   3.682   6.206   4.302 -1.4259 -2.2004  2.7837
13993TIP3    H241923   3.824   6.171   4.341  0.2742  0.6552 -0.3228
13994TIP3   OH241924   4.740   7.000   0.411 -0.3064 -0.4091  0.4832
13994TIP3    H141925   4.713   7.080   0.457 -0.2228 -0.0041 -0.1706
13994TIP3    H241926   4.691   6.930   0.455  0.6864 -0.2005  2.0159
13995TIP3   OH241927   2.805   4.119   3.618  0.4544 -0.3295 -0.5410
13995TIP3    H141928   2.892   4.100   3.653 -0.0562 -1.1320  0.3339
13995TIP3    H241929   2.790   4.051   3.553 -0.2778 -1.4021  0.6862
13996TIP3   OH241930   5.054   0.501   2.877 -0.0742 -0.7444 -0.4627
13996TIP3    H141931   5.067   0.543   2.962 -0.1996 -1.1147 -0.2607
13996TIP3    H241932   5.085   0.566   2.813 -1.2194  0.0682 -0.2184
13997TIP3   OH241933   6.820   0.776   6.132 -0.1669  0.6809 -0.1676
13997TIP3    H141934   6.781   0.863   6.138  0.0460  0.9117 -1.6131
13997TIP3    H241935   6.777   0.737   6.055 -0.1483 -0.4318  0.3708
13998TIP3   OH241936   7.282   5.819   0.466  0.3596 -0.4127  0.1327
13998TIP3    H141937   7.308   5.770   0.544  0.3114 -0.3463  0.1902
13998TIP3    H241938   7.352   5.884   0.454 -0.7859  1.1590  1.4965
13999TIP3   OH241939   5.194   3.301   5.135 -0.6428 -0.7044  0.0138
13999TIP3    H141940   5.203   3.364   5.206 -1.2604 -1.3885  0.7219
13999TIP3    H241941   5.125   3.336   5.080 -0.9032 -0.7000  0.3392
14000TIP3   OH241942   5.538   4.291   4.386  0.1930 -0.2117  0.1105
14000TIP3    H141943   5.604   4.244   4.337 -1.0477 -0.5889 -1.2624
14000TIP3    H241944   5.587   4.350   4.443  1.6884  0.0702 -1.4143
14001TIP3   OH241945   1.209   6.654   6.252  0.0846 -0.7060 -0.4874
14001TIP3    H141946   1.256   6.571   6.252 -0.2073 -0.8792 -0.1918
14001TIP3    H241947   1.135   6.638   6.311 -0.0994 -0.3079 -0.6108
14002TIP3   OH241948   7.617   0.621   6.332  0.0466  0.4942  0.2678
14002TIP3    H141949   7.565   0.666   6.266 -0.0647  2.5393  1.6791
14002TIP3    H241950   7.568   0.540   6.350 -0.4822  0.4365 -1.3292
14003TIP3   OH241951   7.081   6.956   2.828  0.2691  0.1670 -0.6034
14003TIP3    H141952   6.995   6.933   2.864  0.1582  1.8297  0.2679
14003TIP3    H241953   7.064   7.028   2.768  0.9948  0.1070 -0.8932
14004TIP3   OH241954   6.483  -0.028   5.695  0.2724  0.6706 -0.2124
14004TIP3    H141955   6.425  -0.014   5.621 -0.9825 -0.2801  0.5454
14004TIP3    H241956   6.464   0.046   5.754 -0.6932  0.0110  0.3317
14005TIP3   OH241957   5.673   6.144   0.065  0.1808  0.1348  0.1044
14005TIP3    H141958   5.687   6.077   0.133 -0.3702  0.3004  0.3852
14005TIP3    H241959   5.730   6.117  -0.007 -0.4800 -0.9970 -0.0339
14006TIP3   OH241960   7.037   1.503   3.388 -0.1764 -0.5790 -0.2862
14006TIP3    H141961   6.951   1.529   3.422 -0.6146 -1.6396 -0.5516
14006TIP3    H241962   7.100   1.551   3.443 -0.9019  2.6655 -2.0191
14007TIP3   OH241963   3.167   0.141   2.448 -0.0052 -0.2994  0.0176
14007TIP3    H141964   3.234   0.193   2.493  1.2564 -1.3471 -0.5747
14007TIP3    H241965   3.098   0.129   2.513 -0.5162  2.3493  0.0684
14008TIP3   OH241966   3.544   5.086   1.131 -0.2503  0.4096  0.2073
14008TIP3    H141967   3.522   5.147   1.061  0.9523 -0.1229 -0.6623
14008TIP3    H241968   3.469   5.091   1.191 -0.7973  1.6995 -0.5336
14009TIP3   OH241969   5.880   0.062   2.517  0.0747 -0.2241  0.4105
14009TIP3    H141970   5.972   0.038   2.505  1.0970  1.8530  2.9948
14009TIP3    H241971   5.845  -0.006   2.576  0.0961 -0.7034 -0.1209
14010TIP3   OH241972   2.753   2.339   1.169 -0.3972  0.0954  0.3602
14010TIP3    H141973   2.844   2.362   1.152  0.3257 -1.8887  1.2269
14010TIP3    H241974   2.735   2.375   1.256 -0.9603  1.8126 -0.4424
14011TIP3   OH241975   2.526   5.799   1.008 -0.2768  0.4940 -0.2504
14011TIP3    H141976   2.620   5.801   1.026 -0.0385 -0.0998 -1.3466
14011TIP3    H241977   2.486   5.847   1.081  0.6881 -1.0823  1.3958
14012TIP3   OH241978   2.452   5.202   1.462 -0.4048  0.0348  0.3775
14012TIP3    H141979   2.513   5.251   1.406  0.3927 -0.3628  0.8793
14012TIP3    H241980   2.418   5.133   1.405  2.1245 -1.7926  0.9194
14013TIP3   OH241981   5.658   3.542   2.655 -0.2462 -0.2249 -0.3464
14013TIP3    H141982   5.623   3.560   2.568  0.9796 -1.8741 -1.2383
14013TIP3    H241983   5.743   3.501   2.639 -0.4532 -1.5901  1.5833
14014TIP3   OH241984   1.899   6.498   5.882 -0.2039 -0.3458 -0.1784
14014TIP3    H141985   1.895   6.581   5.835 -2.6367  0.6576  1.5947
14014TIP3    H241986   1.830   6.445   5.841  0.9756 -1.3452 -0.9408
14015TIP3   OH241987   7.398   5.331   4.196  0.1164  0.1742 -0.0089
14015TIP3    H141988   7.416   5.410   4.247 -1.4116  1.0629 -0.7551
14015TIP3    H241989   7.483   5.303   4.164  0.4847  3.0980 -1.9789
14016TIP3   OH241990   6.804   7.281   4.185  0.1219  0.7215 -0.5334
14016TIP3    H141991   6.888   7.259   4.145 -0.9631  0.6868 -2.9464
14016TIP3    H241992   6.741   7.274   4.114 -2.1876 -0.6776  1.4957
14017TIP3   OH241993   0.955   1.496   6.285  0.0367  0.3791  0.1796
14017TIP3    H141994   0.985   1.408   6.307  1.0693  0.9155  1.0406
14017TIP3    H241995   0.913   1.487   6.200 -1.0132 -1.1777  0.8083
14018TIP3   OH241996   3.544   6.071   1.867  0.5556 -0.3836  0.4895
14018TIP3    H141997   3.574   6.146   1.918  1.5563 -0.8270  0.5731
14018TIP3    H241998   3.448   6.076   1.870  0.4724  2.7102 -2.1559
14019TIP3   OH241999   0.217   1.155   3.740 -0.3228 -0.1579  0.1671
14019TIP3    H142000   0.269   1.235   3.747  0.8265 -0.8510 -0.2122
14019TIP3    H242001   0.238   1.107   3.820  0.5050 -0.9443 -0.5088
14020TIP3   OH242002   2.939   1.585   6.214 -0.3772  0.5377  0.3292
14020TIP3    H142003   2.940   1.673   6.251 -0.9053  0.6247  0.1398
14020TIP3    H242004   2.846   1.566   6.199 -0.1967  0.3505 -0.5813
14021TIP3   OH242005   5.825   0.723   5.466  0.1298  0.8310  0.0763
14021TIP3    H142006   5.869   0.655   5.516  1.8055  3.1121  1.9109
14021TIP3    H242007   5.866   0.718   5.379  0.2738 -0.3995  0.1876
14022TIP3   OH242008   4.503   5.173   1.340  0.0271 -0.1474  0.0702
14022TIP3    H142009   4.510   5.212   1.427  0.2118 -1.6460  0.7759
14022TIP3    H242010   4.499   5.078   1.357  0.3345 -0.4893 -1.5711
14023TIP3   OH242011   3.076   0.869   0.849  0.2881  0.2425 -0.1124
14023TIP3    H142012   3.087   0.936   0.783  0.0651  0.3441 -0.0450
14023TIP3    H242013   3.066   0.787   0.800 -0.3937  0.3871 -0.2160
14024TIP3   OH242014   2.961   1.479   5.913  0.3715  0.1655 -0.2188
14024TIP3    H142015   2.902   1.546   5.877 -1.9303 -1.1092  0.9428
14024TIP3    H242016   2.985   1.512   6.000  1.3811  0.6481 -0.6610
14025TIP3   OH242017   6.153   3.577   4.353 -0.6023 -0.8134 -0.1857
14025TIP3    H142018   6.208   3.643   4.311 -1.2745 -0.2805 -0.2381
14025TIP3    H242019   6.216   3.513   4.388  0.0202 -0.6067 -0.8828
14026TIP3   OH242020   4.510   5.949   0.059 -0.4373 -0.0839  0.3575
14026TIP3    H142021   4.419   5.943   0.028 -0.2415 -1.8123  0.0049
14026TIP3    H242022   4.560   5.974  -0.018 -0.7065  1.8926  0.7821
14027TIP3   OH242023   5.640   1.025   3.401  0.5263 -0.1450 -0.0411
14027TIP3    H142024   5.627   0.938   3.438 -0.9019 -0.8043 -1.9534
14027TIP3    H242025   5.723   1.019   3.353  0.3093 -0.5089 -0.3672
14028TIP3   OH242026   3.076   2.354   1.617 -0.3073 -0.3075 -0.4464
14028TIP3    H142027   3.150   2.307   1.655  0.0117  1.2953  1.0423
14028TIP3    H242028   3.071   2.322   1.527  1.0972 -1.7102 -0.0754
14029TIP3   OH242029   8.084   1.357   2.682 -0.1239  0.9217  0.0859
14029TIP3    H142030   8.117   1.407   2.757  0.9570  0.3711 -0.0081
14029TIP3    H242031   8.061   1.272   2.719 -0.7930  1.0633  0.0129
14030TIP3   OH242032   3.026   6.192   6.436  0.5741  0.2352  0.3246
14030TIP3    H142033   3.072   6.175   6.354  1.8572  0.8764  0.8798
14030TIP3    H242034   3.007   6.286   6.434  1.8942  0.5581  1.3518
14031TIP3   OH242035   4.571   3.859   2.192  0.2834 -0.1225  0.0759
14031TIP3    H142036   4.665   3.874   2.176  0.4552 -0.3548  0.8177
14031TIP3    H242037   4.529   3.883   2.110  1.2476 -2.6919 -1.2882
14032TIP3   OH242038   1.911   0.344   6.413 -1.0214 -0.2873 -0.2644
14032TIP3    H142039   1.868   0.344   6.327 -0.0793 -2.6185 -0.8066
14032TIP3    H242040   1.889   0.259   6.450  2.1372 -1.1368 -0.0988
14033TIP3   OH242041   0.475   3.760   6.589  0.0430 -0.0649  0.5680
14033TIP3    H142042   0.435   3.709   6.519  1.1798 -0.5909  0.2834
14033TIP3    H242043   0.522   3.830   6.544 -0.5187  0.5458  0.8997
14034TIP3   OH242044   7.586   4.601   6.258 -0.1441 -0.3987 -0.2161
14034TIP3    H142045   7.674   4.634   6.240 -1.2957  1.9724 -2.1321
14034TIP3    H242046   7.569   4.539   6.187 -0.3519 -0.1023 -0.4293
14035TIP3   OH242047   1.011   1.214   6.323 -1.0186  0.5227 -0.4984
14035TIP3    H142048   0.995   1.130   6.366 -1.5342  0.5266 -0.6669
14035TIP3    H242049   1.068   1.192   6.249  1.2672  0.7598  1.0954
14036TIP3   OH242050   5.859   3.917   1.247 -0.3687  0.1271  0.0933
14036TIP3    H142051   5.769   3.894   1.223 -0.8979  0.3499  1.6975
14036TIP3    H242052   5.850   4.001   1.293  0.2278 -1.1223  2.6987
14037TIP3   OH242053   3.109   2.520   4.760 -0.4769 -0.0664 -0.6168
14037TIP3    H142054   3.135   2.587   4.697 -1.8906  0.2088 -0.9453
14037TIP3    H242055   3.094   2.442   4.706  0.5920 -0.5054 -0.3080
14038TIP3   OH242056   5.140   7.047   3.358  0.3742  0.3291 -0.5076
14038TIP3    H142057   5.117   7.104   3.285  0.3566  0.7322 -0.1951
14038TIP3    H242058   5.111   7.096   3.436 -1.5075 -0.9913 -0.3173
14039TIP3   OH242059   2.390   4.442   3.418 -0.0176 -0.3731  0.5528
14039TIP3    H142060   2.418   4.491   3.495 -0.2698 -1.4048  1.3300
14039TIP3    H242061   2.465   4.386   3.395 -0.0902 -0.3734  0.3072
14040TIP3   OH242062   5.980   3.944   4.430  0.1146 -0.4128  0.7998
14040TIP3    H142063   5.906   3.898   4.392  0.5844 -0.0277 -0.6743
14040TIP3    H242064   5.941   4.016   4.479 -0.5075  0.1902 -0.5062
14041TIP3   OH242065   2.888   1.581   0.609 -0.3339  0.4136  0.0196
14041TIP3    H142066   2.934   1.499   0.590  0.6465  1.2695 -1.6055
14041TIP3    H242067   2.928   1.645   0.549 -1.5132  1.9302  0.7744
14042TIP3   OH242068   3.452   3.297   0.895 -1.1235 -0.3372  0.2450
14042TIP3    H142069   3.402   3.316   0.816 -1.7054  2.3499  1.1493
14042TIP3    H242070   3.539   3.332   0.878 -0.7745 -1.1893  0.2347
14043TIP3   OH242071   2.368   4.096   4.844  0.5770 -1.0696  0.0888
14043TIP3    H142072   2.331   4.160   4.905 -0.2986  0.4521 -1.9368
14043TIP3    H242073   2.308   4.021   4.848 -0.4097 -0.3099 -0.0914
14044TIP3   OH242074   1.590   0.191   0.491  0.4922 -0.2591 -0.0025
14044TIP3    H142075   1.550   0.132   0.428  2.2507  0.7488 -2.1592
14044TIP3    H242076   1.566   0.279   0.461  1.3639  0.2505  0.7222
14045TIP3   OH242077   5.293   5.630   3.412 -0.3166  0.1563 -0.4645
14045TIP3    H142078   5.248   5.580   3.481  1.3258  1.4750  1.6814
14045TIP3    H242079   5.343   5.564   3.364 -0.7739 -0.6817  0.1622
14046TIP3   OH242080   7.931   5.552   2.717 -0.0500 -0.0339  0.2677
14046TIP3    H142081   7.844   5.566   2.753 -0.4314  1.2685 -1.1020
14046TIP3    H242082   7.984   5.623   2.754 -0.3531  1.0850 -1.3598
14047TIP3   OH242083   7.537   2.161   5.194 -0.5175  0.0407 -0.3795
14047TIP3    H142084   7.491   2.211   5.127  0.6626 -1.1822 -2.1821
14047TIP3    H242085   7.630   2.172   5.174 -0.1471 -0.7395  0.7793
14048TIP3   OH242086   5.336   5.216   1.843 -0.0740  0.3544 -0.8627
14048TIP3    H142087   5.357   5.187   1.754 -1.1959 -0.9626 -0.7269
14048TIP3    H242088   5.243   5.237   1.841 -0.3743 -0.7728  0.2572
14049TIP3   OH242089   7.945   3.380   5.383  0.4292 -1.1151 -0.1457
14049TIP3    H142090   7.961   3.359   5.475 -0.1237  0.7492  0.4202
14049TIP3    H242091   7.867   3.436   5.384  1.6541  0.7192 -1.5104
14050TIP3   OH242092   6.545   0.133   6.217 -0.1330 -0.1786  0.3276
14050TIP3    H142093   6.479   0.093   6.273 -0.6357 -0.6455 -0.5844
14050TIP3    H242094   6.573   0.063   6.158  1.0828  0.0418  0.5977
14051TIP3   OH242095   1.413   0.664   2.516  0.2643 -0.4704 -0.5369
14051TIP3    H142096   1.354   0.718   2.464  3.3070  0.9836 -2.7565
14051TIP3    H242097   1.434   0.719   2.592 -1.5072 -1.2125  0.5570
14052TIP3   OH242098   1.858   1.596   2.347  0.0515 -0.4490 -0.9600
14052TIP3    H142099   1.786   1.638   2.299 -1.6173  0.3249  1.9907
14052TIP3    H242100   1.926   1.663   2.350 -0.6236  0.2386 -0.5621
14053TIP3   OH242101   7.593   6.720   2.850 -0.2234  0.3657 -0.4417
14053TIP3    H142102   7.557   6.766   2.926 -0.3926 -0.2088 -0.1701
14053TIP3    H242103   7.678   6.687   2.880 -0.7150 -0.7158 -0.1643
14054TIP3   OH242104   3.419   5.146   0.203  0.2119  0.1292  0.8036
14054TIP3    H142105   3.492   5.152   0.142 -0.7361  0.8214 -0.2998
14054TIP3    H242106   3.459   5.123   0.287  1.5814 -0.3995  0.0223
14055TIP3   OH242107   0.733   6.714   1.612  0.4035 -0.1213 -0.3493
14055TIP3    H142108   0.692   6.777   1.671  0.0829  0.5432 -1.2532
14055TIP3    H242109   0.815   6.689   1.655 -0.1162 -0.1229  0.6524
14056TIP3   OH242110   3.582   5.042   2.304 -0.1756 -0.5027  0.3210
14056TIP3    H142111   3.653   5.096   2.339  1.1698 -1.9557 -0.0913
14056TIP3    H242112   3.502   5.083   2.338  0.8393  1.1148  0.8724
14057TIP3   OH242113   5.799   4.616   0.688  0.2921  0.3070  0.6133
14057TIP3    H142114   5.766   4.681   0.627 -0.9772  0.0732  1.0152
14057TIP3    H242115   5.733   4.612   0.757  0.9359 -0.5439  1.2075
14058TIP3   OH242116   2.329   6.592   1.703  0.5504 -0.1387  0.1654
14058TIP3    H142117   2.320   6.497   1.714  0.3913 -0.1877 -0.3627
14058TIP3    H242118   2.347   6.625   1.791  1.2687 -0.7320  0.2471
14059TIP3   OH242119   6.687   0.951   4.497  0.1682  0.5869  0.0581
14059TIP3    H142120   6.650   1.014   4.436  1.1714  1.9193  0.7702
14059TIP3    H242121   6.623   0.944   4.567  0.1562  1.0098  0.0918
14060TIP3   OH242122   2.073   4.003   2.242  0.0351  0.3188  0.4890
14060TIP3    H142123   2.059   4.096   2.224 -0.2765  0.0053 -1.0069
14060TIP3    H242124   2.119   4.001   2.326 -1.1642  1.7581  1.2073
14061TIP3   OH242125   1.942   5.648   2.524 -0.1336  0.2123  0.3773
14061TIP3    H142126   1.890   5.646   2.443 -2.1770 -0.7193  1.6397
14061TIP3    H242127   2.005   5.577   2.513 -0.5553 -0.0731 -0.2990
14062TIP3   OH242128   3.553   1.729   5.897 -0.3323 -0.4503 -0.3339
14062TIP3    H142129   3.474   1.761   5.941  0.1850  0.1805  0.1610
14062TIP3    H242130   3.613   1.803   5.900  0.4476 -1.0777 -0.2967
14063TIP3   OH242131   5.953   6.432   0.443 -0.0802  0.2347  0.0633
14063TIP3    H142132   5.951   6.395   0.355  0.8171  0.0149  0.1357
14063TIP3    H242133   5.862   6.460   0.459  0.2957  3.2060 -2.1620
14064TIP3   OH242134   0.460   6.248   1.320  0.2318  0.4385 -0.1908
14064TIP3    H142135   0.486   6.187   1.251  1.3938  1.4937 -0.7168
14064TIP3    H242136   0.398   6.307   1.278  0.4423  0.6830 -0.1629
14065TIP3   OH242137   2.147   2.006   2.269 -0.0361  0.2301 -0.0621
14065TIP3    H142138   2.093   1.995   2.191 -0.5652 -1.1284  0.4636
14065TIP3    H242139   2.151   2.101   2.283  0.5212  0.5356 -2.0271
14066TIP3   OH242140   8.184   4.897   4.351 -0.4692 -0.0079 -0.0339
14066TIP3    H142141   8.210   4.872   4.262 -0.9139  2.5537 -0.9512
14066TIP3    H242142   8.267   4.909   4.398 -0.2298 -0.8938 -0.2024
14067TIP3   OH242143   5.513   5.367   2.014 -0.1830  0.0448 -0.6702
14067TIP3    H142144   5.504   5.315   1.934  0.9396  0.8951 -1.3830
14067TIP3    H242145   5.423   5.390   2.038 -0.4819  1.3199 -2.7691
14068TIP3   OH242146   4.458   5.930   4.483  0.1203 -0.2600 -0.6205
14068TIP3    H142147   4.402   6.006   4.504  1.4398  1.1847 -2.0406
14068TIP3    H242148   4.422   5.897   4.401 -1.3517 -2.1801  0.6975
14069TIP3   OH242149   6.741   0.964   2.586  0.0717 -0.3407  0.5171
14069TIP3    H142150   6.701   0.884   2.551 -0.0738  0.0918 -0.3547
14069TIP3    H242151   6.689   1.035   2.548  1.0804  0.2045  0.0981
14070TIP3   OH242152   1.290   1.100   4.297 -0.4058  0.1069  0.5637
14070TIP3    H142153   1.347   1.088   4.373  0.2406  3.0251  0.6702
14070TIP3    H242154   1.348   1.130   4.228 -1.2691 -0.6854 -0.5340
14071TIP3   OH242155   6.433   7.093   6.434  0.1693 -0.3372  0.4119
14071TIP3    H142156   6.399   7.013   6.392  0.5554  0.2710 -1.1367
14071TIP3    H242157   6.356   7.150   6.442  0.3893  0.2474 -1.2142
14072TIP3   OH242158   5.302   6.872   0.266 -0.2377 -0.1666  0.3211
14072TIP3    H142159   5.375   6.838   0.215 -1.4111 -1.7615 -0.3981
14072TIP3    H242160   5.254   6.794   0.295 -2.1622  0.8123 -0.0283
14073TIP3   OH242161   2.038   2.217   1.948  0.4889  0.1548 -0.3033
14073TIP3    H142162   2.102   2.150   1.971  0.3680  0.1985  0.1600
14073TIP3    H242163   2.063   2.293   2.000  0.4952  0.4053 -0.6666
14074TIP3   OH242164   6.790   6.550   3.697 -0.2873  0.7825 -0.3927
14074TIP3    H142165   6.858   6.523   3.759 -1.9710  0.7352  1.5595
14074TIP3    H242166   6.769   6.470   3.649  0.8024  0.7269 -0.8018
14075TIP3   OH242167   7.701   0.474   2.554 -0.8579  0.3661 -0.2071
14075TIP3    H142168   7.718   0.467   2.460 -0.3537  0.2552 -0.1126
14075TIP3    H242169   7.680   0.566   2.568 -0.8321  0.4029 -0.4121
14076TIP3   OH242170   1.220   4.367   6.266 -0.2648  0.6492  0.1803
14076TIP3    H142171   1.262   4.352   6.181 -0.2519  2.0203 -0.0742
14076TIP3    H242172   1.276   4.322   6.329  0.6220  0.9891 -0.3535
14077TIP3   OH242173   2.001   0.952   3.821  0.3621  0.0199  0.3807
14077TIP3    H142174   2.000   0.878   3.760 -0.1801 -0.7709  1.3206
14077TIP3    H242175   2.022   1.028   3.766  0.5624 -0.7666 -0.6682
14078TIP3   OH242176   6.802   3.369   5.658  0.5047 -0.4776  0.0115
14078TIP3    H142177   6.728   3.426   5.640  0.3059 -0.4943  0.7633
14078TIP3    H242178   6.852   3.415   5.725  1.4291 -0.2509 -0.8030
14079TIP3   OH242179   4.995   3.826   3.387 -0.0034  0.2856 -0.0097
14079TIP3    H142180   4.937   3.897   3.360  0.6555  1.3498  1.2559
14079TIP3    H242181   5.080   3.868   3.400  0.5718 -0.8695  0.1007
14080TIP3   OH242182   0.820   1.661   1.292  0.4649  0.5549 -0.2875
14080TIP3    H142183   0.885   1.590   1.288  1.4863  1.3934  0.9125
14080TIP3    H242184   0.742   1.624   1.249  0.1758 -2.1408  2.2621
14081TIP3   OH242185   7.035   2.951   5.648 -0.1696  0.4842  0.9700
14081TIP3    H142186   7.011   3.036   5.610  2.6144  0.7902 -0.3909
14081TIP3    H242187   7.041   2.892   5.573  0.2730 -0.2921  1.5998
14082TIP3   OH242188   6.752   7.589   3.971 -0.2822  0.2344 -0.4226
14082TIP3    H142189   6.766   7.581   4.065  0.5163 -1.3049 -0.6450
14082TIP3    H242190   6.704   7.671   3.961 -2.2306 -0.5795  1.4898
14083TIP3   OH242191   0.266   0.816   3.638  0.3004  0.1007 -0.2680
14083TIP3    H142192   0.336   0.827   3.702  1.2529 -0.8291 -1.0925
14083TIP3    H242193   0.208   0.750   3.676 -0.0405  0.7460  0.3421
14084TIP3   OH242194   4.301   0.879   0.091  0.5256 -0.0893 -0.4500
14084TIP3    H142195   4.260   0.858   0.175  0.0382  2.0771 -0.1015
14084TIP3    H242196   4.260   0.818   0.029 -2.9486  1.5635 -0.0203
14085TIP3   OH242197   6.749   2.038   6.760  0.0640  0.3057  0.4946
14085TIP3    H142198   6.745   2.022   6.854 -0.9106 -1.0498  0.2634
14085TIP3    H242199   6.772   1.953   6.722  0.9680  0.9559 -0.4617
14086TIP3   OH242200   3.514   7.087   4.874 -0.5924  0.1743  0.1081
14086TIP3    H142201   3.556   7.147   4.813 -0.6590 -0.5218 -0.6442
14086TIP3    H242202   3.430   7.127   4.894  0.1865  1.3202  1.2140
14087TIP3   OH242203   4.780   7.141   1.952 -0.4360 -0.3099 -0.0398
14087TIP3    H142204   4.687   7.160   1.937 -0.3993 -1.3699 -1.9725
14087TIP3    H242205   4.811   7.105   1.868  1.2533 -1.7859  1.1481
14088TIP3   OH242206   3.521   4.724   4.678 -0.2308  0.4849  0.0688
14088TIP3    H142207   3.463   4.716   4.602  2.1340  2.1849 -2.0780
14088TIP3    H242208   3.481   4.793   4.731  0.1810  2.3551 -1.8896
14089TIP3   OH242209   0.950   3.781   0.738  0.0004 -0.0772 -0.0655
14089TIP3    H142210   0.875   3.736   0.699 -0.1450  0.4101 -0.3499
14089TIP3    H242211   0.995   3.713   0.788 -1.4191 -0.0738  1.2953
14090TIP3   OH242212   2.019   3.887   4.348 -0.6709  0.4057  0.2083
14090TIP3    H142213   1.942   3.911   4.398 -1.0571 -0.8549  0.2608
14090TIP3    H242214   2.009   3.933   4.264 -0.7932  1.2923  0.6966
14091TIP3   OH242215   0.509   7.170   0.111 -0.1959 -0.3917  1.1719
14091TIP3    H142216   0.458   7.251   0.102  1.0900  0.4459  1.0478
14091TIP3    H242217   0.599   7.198   0.097  0.2538 -1.9136  0.8505
14092TIP3   OH242218   8.255   5.762   4.152  0.6585 -0.0053 -0.3406
14092TIP3    H142219   8.261   5.794   4.062 -0.7912  2.3589  0.3061
14092TIP3    H242220   8.307   5.681   4.153  0.1478 -0.4985 -3.4447
14093TIP3   OH242221   7.754   4.902   2.104 -0.1022 -0.2542 -0.0246
14093TIP3    H142222   7.798   4.961   2.165 -1.5126 -1.7063  2.5946
14093TIP3    H242223   7.815   4.829   2.092 -0.5591 -0.8770  1.2611
14094TIP3   OH242224   3.684   3.265   1.070  0.2399  0.0788 -0.2207
14094TIP3    H142225   3.592   3.290   1.064 -0.1387 -1.4342 -1.4290
14094TIP3    H242226   3.733   3.345   1.051 -0.7740  1.2007  1.6756
14095TIP3   OH242227   7.851   0.959   1.724  0.1198  0.4167 -0.3335
14095TIP3    H142228   7.807   0.874   1.736  2.1919 -0.6636  0.0898
14095TIP3    H242229   7.868   0.962   1.630 -2.7001  1.8956 -0.9222
14096TIP3   OH242230   6.645   3.645   2.959  0.2303 -0.0263 -0.6311
14096TIP3    H142231   6.655   3.721   3.016  0.9610 -0.3072 -0.3831
14096TIP3    H242232   6.554   3.649   2.930  0.0138  0.4394  0.0989
14097TIP3   OH242233   8.099   5.315   1.399 -0.2499 -0.3633  0.5548
14097TIP3    H142234   8.117   5.404   1.427  0.9974 -1.0066  1.9155
14097TIP3    H242235   8.186   5.275   1.389 -0.7766 -1.3134 -0.4444
14098TIP3   OH242236   3.263   7.097   1.701  0.4606 -0.7075 -0.0175
14098TIP3    H142237   3.273   7.086   1.796 -2.0315 -1.1474  0.2430
14098TIP3    H242238   3.287   7.188   1.685 -0.7725 -0.1097  1.3406
14099TIP3   OH242239   3.537   7.386   3.331 -0.6383 -0.6565 -0.1064
14099TIP3    H142240   3.474   7.453   3.358  0.9871  0.8681  0.1376
14099TIP3    H242241   3.616   7.406   3.381 -0.3025 -3.2756  0.5344
14100TIP3   OH242242   4.155   4.866   4.408  0.0499 -0.1346  0.0956
14100TIP3    H142243   4.073   4.825   4.383 -0.2912  0.5613  0.0417
14100TIP3    H242244   4.137   4.960   4.404  0.4937  0.0168  1.2555
14101TIP3   OH242245   6.761   2.672   0.509 -0.0568  0.1742  0.2086
14101TIP3    H142246   6.696   2.615   0.550  0.1998 -0.5412 -0.3593
14101TIP3    H242247   6.815   2.704   0.581  0.3398 -1.0040  0.4543
14102TIP3   OH242248   3.259   4.297   0.278  0.5855  0.1320  0.4047
14102TIP3    H142249   3.330   4.309   0.215 -0.1194  0.4081 -0.3561
14102TIP3    H242250   3.220   4.385   0.288  0.6091  0.0679  1.1334
14103TIP3   OH242251   5.024   2.571   3.235 -0.1157 -0.0913 -0.2255
14103TIP3    H142252   5.020   2.545   3.328 -0.5090  0.3610 -0.1143
14103TIP3    H242253   4.967   2.508   3.191 -2.4612  1.5584  0.2824
14104TIP3   OH242254   4.460   2.062  -0.007  0.3056  0.2424  0.4006
14104TIP3    H142255   4.470   2.058   0.088  0.1007 -0.0498  0.4091
14104TIP3    H242256   4.546   2.091  -0.039  1.0869 -1.8197  0.5197
14105TIP3   OH242257   4.975   0.068   3.137  0.1748 -0.4763  0.2300
14105TIP3    H142258   4.940  -0.012   3.098  2.0174 -1.5363  0.6069
14105TIP3    H242259   5.068   0.066   3.116  0.0608  2.2870 -0.8890
14106TIP3   OH242260   7.571   2.097   3.422  0.4078 -0.3905 -1.0230
14106TIP3    H142261   7.660   2.069   3.400 -0.1670 -1.1030 -2.5690
14106TIP3    H242262   7.548   2.161   3.355 -0.4787 -0.7309 -1.0625
14107TIP3   OH242263   3.109   6.967   2.905 -0.2778  0.2407  0.7514
14107TIP3    H142264   3.050   6.893   2.924 -0.2311 -0.0669 -0.2468
14107TIP3    H242265   3.192   6.926   2.883 -0.3651  0.5735 -0.2189
14108TIP3   OH242266   3.317   4.035   0.057 -0.0063 -0.0403  0.4248
14108TIP3    H142267   3.236   4.083   0.042 -0.6847 -0.4459  2.5561
14108TIP3    H242268   3.386   4.100   0.045 -0.7650  0.8489  0.7485
14109TIP3   OH242269   4.022   5.574   1.782 -0.4984 -0.3155 -0.4910
14109TIP3    H142270   3.974   5.507   1.734 -1.8845  0.4727 -0.2747
14109TIP3    H242271   4.113   5.562   1.757 -0.8632 -1.5901 -1.2657
14110TIP3   OH242272   5.671   7.468   2.231  0.4947  0.4222 -0.1441
14110TIP3    H142273   5.591   7.519   2.216  0.9147  0.7627 -1.2978
14110TIP3    H242274   5.649   7.413   2.306 -1.3575 -0.5571 -1.3081
14111TIP3   OH242275   7.392   0.074   3.274  0.2873 -0.7384  0.1622
14111TIP3    H142276   7.342   0.104   3.350  0.6077 -3.5994  1.6602
14111TIP3    H242277   7.483   0.095   3.295  0.2616 -0.5188  0.0501
14112TIP3   OH242278   7.554   2.772   2.966 -0.1137  0.4905 -0.3310
14112TIP3    H142279   7.483   2.709   2.954 -0.0393  0.4126 -0.3586
14112TIP3    H242280   7.513   2.846   3.010  0.1510 -0.2433  1.2054
14113TIP3   OH242281   8.093   1.139   5.449  0.4075 -0.3871 -0.9019
14113TIP3    H142282   8.023   1.176   5.395 -0.5669 -3.1436 -1.7205
14113TIP3    H242283   8.098   1.047   5.422  1.6580 -1.2689  1.9335
14114TIP3   OH242284   3.837   6.397   5.521 -0.0796  0.0967 -0.6808
14114TIP3    H142285   3.855   6.417   5.429 -0.3591  0.7891 -0.5932
14114TIP3    H242286   3.762   6.452   5.543 -1.8192 -2.0890 -0.7939
14115TIP3   OH242287   6.887   5.497   0.978  0.3127 -0.4553  0.1314
14115TIP3    H142288   6.977   5.475   0.953 -0.1465  0.1889 -2.3841
14115TIP3    H242289   6.892   5.587   1.011  0.5370 -0.2169 -0.5331
14116TIP3   OH242290   2.733   5.129   4.893  0.7326  0.4245 -0.3537
14116TIP3    H142291   2.798   5.190   4.861  0.2721  0.0321 -2.1566
14116TIP3    H242292   2.781   5.072   4.954  1.1770  2.4471  1.2721
14117TIP3   OH242293   7.210   6.898   4.674  0.4646 -0.1827 -0.5801
14117TIP3    H142294   7.169   6.812   4.666 -0.0642  0.1352 -1.4472
14117TIP3    H242295   7.194   6.940   4.589 -0.4457  1.2784  0.2724
14118TIP3   OH242296   4.872   0.745   2.052 -0.7504 -0.5436  0.3086
14118TIP3    H142297   4.889   0.827   2.098  1.7015 -0.4195 -0.6445
14118TIP3    H242298   4.803   0.767   1.989  0.5335  1.1250 -0.6150
14119TIP3   OH242299   1.773   6.639   4.414 -0.3202  0.4026 -0.1626
14119TIP3    H142300   1.813   6.575   4.355 -1.5131 -0.0231 -0.5432
14119TIP3    H242301   1.781   6.722   4.368 -1.0218  0.1113 -0.8540
14120TIP3   OH242302   1.775   4.015   0.705 -0.1687 -0.0970  0.3930
14120TIP3    H142303   1.849   3.969   0.665 -0.2628  1.0203 -1.1208
14120TIP3    H242304   1.801   4.107   0.705 -1.1387  0.1883  0.8225
14121TIP3   OH242305   8.155   6.410   4.785  0.0084 -0.0525 -0.1175
14121TIP3    H142306   8.109   6.432   4.704  0.0800  0.5530 -0.0027
14121TIP3    H242307   8.098   6.346   4.828  0.1764 -0.6993 -0.8343
14122TIP3   OH242308   4.835   7.313   3.174 -0.3876 -0.2340 -0.5340
14122TIP3    H142309   4.751   7.287   3.137 -0.1360 -0.2798 -1.0848
14122TIP3    H242310   4.813   7.364   3.252 -0.9626  1.0895 -1.5310
14123TIP3   OH242311   6.068   5.765   0.302  0.0133  0.3427 -0.5197
14123TIP3    H142312   6.056   5.710   0.225  1.1150  1.8452 -1.8251
14123TIP3    H242313   6.157   5.745   0.332 -0.4406 -0.3110  0.4765
14124TIP3   OH242314   6.809   5.860   1.675 -0.2558 -0.2331 -0.4658
14124TIP3    H142315   6.781   5.770   1.656 -0.0367 -0.5806  0.7952
14124TIP3    H242316   6.803   5.868   1.770 -1.5801  1.5496 -0.6477
14125TIP3   OH242317   0.082   2.918   6.096  0.0074  0.2549 -0.3755
14125TIP3    H142318   0.063   3.010   6.114 -2.9534  0.1104 -2.0749
14125TIP3    H242319   0.016   2.869   6.144  1.3512 -1.0303  0.2663
14126TIP3   OH242320   5.522   3.697   0.959  0.0494 -0.5377  0.2341
14126TIP3    H142321   5.585   3.681   1.029  0.9400  0.0617 -0.4040
14126TIP3    H242322   5.438   3.671   0.996  0.4830 -0.1493  1.5555
14127TIP3   OH242323   7.013   1.374   3.131 -0.1726 -0.1905  0.1168
14127TIP3    H142324   6.994   1.437   3.061  0.9592 -1.4551 -1.4192
14127TIP3    H242325   7.017   1.427   3.210 -0.8744  1.4062 -0.8479
14128TIP3   OH242326   0.355   4.508   1.447  0.4326  0.5668  0.1503
14128TIP3    H142327   0.278   4.536   1.496  0.8224 -0.0574  1.1510
14128TIP3    H242328   0.429   4.529   1.505  0.9926  0.8000 -0.6301
14129TIP3   OH242329   3.626   5.861   4.325 -0.1002  0.1170  0.2739
14129TIP3    H142330   3.588   5.833   4.242  0.5180 -0.4668  0.1794
14129TIP3    H242331   3.713   5.893   4.302 -0.3599  1.0384  0.5447
14130TIP3   OH242332   3.447   1.944   2.208 -0.2769  0.5128  0.1220
14130TIP3    H142333   3.420   1.882   2.141  1.3580 -0.6591  0.4768
14130TIP3    H242334   3.473   2.022   2.158  0.2618 -0.0922 -0.5861
14131TIP3   OH242335   2.677   7.656   4.783  0.1611  0.0054  0.5824
14131TIP3    H142336   2.695   7.711   4.706  1.0388  1.0128  1.4855
14131TIP3    H242337   2.584   7.633   4.773  0.1853  0.3352 -0.6378
14132TIP3   OH242338   1.637   4.049   6.222 -0.1925  0.2486  0.3461
14132TIP3    H142339   1.684   4.117   6.271  0.7867 -0.2782  0.1502
14132TIP3    H242340   1.604   3.990   6.290 -1.9410  1.4417  0.5951
14133TIP3   OH242341   4.803   3.289   2.921  0.4961  0.2858 -0.1116
14133TIP3    H142342   4.734   3.341   2.881  1.2324  1.6779  0.3476
14133TIP3    H242343   4.758   3.214   2.960 -0.9067  1.6123  0.9473
14134TIP3   OH242344   5.715   6.805   4.110  0.6700  0.3626 -0.3139
14134TIP3    H142345   5.723   6.870   4.180 -0.2064  0.8899 -0.6846
14134TIP3    H242346   5.649   6.841   4.051 -0.7980 -1.4568  0.1196
14135TIP3   OH242347   2.543   5.883   0.730  0.1312  0.3489  0.1505
14135TIP3    H142348   2.569   5.822   0.799  1.2985 -1.0532 -1.4260
14135TIP3    H242349   2.529   5.966   0.775 -1.8365 -1.1103  2.4351
14136TIP3   OH242350   7.626   4.154   1.339 -0.1728 -0.7241 -0.0640
14136TIP3    H142351   7.585   4.068   1.349 -1.9640  0.1169  0.0841
14136TIP3    H242352   7.555   4.217   1.352  0.5071  0.7723 -2.8281
14137TIP3   OH242353   6.609   5.484   1.116 -0.3491 -0.3916  0.4626
14137TIP3    H142354   6.604   5.577   1.135  0.5517 -0.0015 -1.0654
14137TIP3    H242355   6.703   5.465   1.118 -0.4718 -1.0890 -0.0079
14138TIP3   OH242356   1.275   3.823   1.180  0.2266 -0.1406 -0.1021
14138TIP3    H142357   1.301   3.870   1.260  0.1479  1.9343 -1.2258
14138TIP3    H242358   1.181   3.807   1.191  0.3923 -0.6827  0.5935
14139TIP3   OH242359   7.170   5.557   2.937 -0.0562 -0.7459 -0.5409
14139TIP3    H142360   7.199   5.542   3.027 -0.8122 -0.1699 -0.1811
14139TIP3    H242361   7.075   5.564   2.944  0.0358  4.7833 -0.4114
14140TIP3   OH242362   0.529   7.492   5.061  0.3427  0.0971 -0.3744
14140TIP3    H142363   0.483   7.536   5.132 -0.5987 -1.3024 -0.0778
14140TIP3    H242364   0.508   7.543   4.983  1.0086  1.3786  0.2530
14141TIP3   OH242365   4.243   0.207   5.645 -1.0091  0.3182  0.3206
14141TIP3    H142366   4.317   0.154   5.615 -1.3714 -0.3991  0.6718
14141TIP3    H242367   4.169   0.176   5.594 -1.0689  1.0870 -0.0787
14142TIP3   OH242368   7.218   5.500   2.068  0.0248 -0.3713 -0.0367
14142TIP3    H142369   7.151   5.556   2.028 -1.6037 -0.1878  2.7200
14142TIP3    H242370   7.177   5.414   2.077  0.0225 -0.2220  1.8349
14143TIP3   OH242371   7.553   1.472   2.111 -0.2552 -0.1453  0.2946
14143TIP3    H142372   7.605   1.537   2.158  1.3567 -0.4480 -0.9599
14143TIP3    H242373   7.600   1.390   2.125 -0.3490 -0.4223 -0.9092
14144TIP3   OH242374   0.787   1.744   1.740  0.4724 -0.3087  0.0819
14144TIP3    H142375   0.758   1.751   1.831 -0.9602 -0.0902 -0.3751
14144TIP3    H242376   0.798   1.835   1.712 -1.2834 -0.2895 -0.6242
14145TIP3   OH242377   5.492   4.539   0.156 -0.1575 -0.4260 -0.1315
14145TIP3    H142378   5.541   4.620   0.168 -0.6252 -0.2105  0.3607
14145TIP3    H242379   5.559   4.473   0.134  0.1064  0.3120 -1.6654
14146TIP3   OH242380   0.480   4.807   6.267  0.2685  1.3879 -0.5761
14146TIP3    H142381   0.470   4.713   6.279  0.1248  1.4514 -0.2070
14146TIP3    H242382   0.520   4.815   6.180  0.8885  0.9560 -0.3416
14147TIP3   OH242383   6.352   1.005   0.535  0.0488  0.0450  0.0374
14147TIP3    H142384   6.344   0.951   0.456  0.7853 -0.3280  0.2125
14147TIP3    H242385   6.279   0.978   0.590  0.0904 -0.3831 -0.1101
14148TIP3   OH242386   0.319   2.037   0.682 -0.2673 -0.2172 -0.0807
14148TIP3    H142387   0.333   1.994   0.766  0.3361 -1.0429 -0.5874
14148TIP3    H242388   0.271   2.117   0.703 -1.5281 -1.1936  0.8693
14149TIP3   OH242389   6.805   5.836   2.225  0.0671 -0.0969 -0.4832
14149TIP3    H142390   6.897   5.851   2.205  0.3668 -2.1567 -0.8841
14149TIP3    H242391   6.805   5.794   2.312 -0.5588  0.5657 -0.1487
14150TIP3   OH242392   7.594   4.992   0.703  0.5214  0.0696  0.2600
14150TIP3    H142393   7.555   4.975   0.789 -0.8548  0.4772 -0.2446
14150TIP3    H242394   7.520   4.985   0.642  1.1333  1.4300 -0.6910
14151TIP3   OH242395   5.668   3.037   5.730  0.7189  0.5273  0.0159
14151TIP3    H142396   5.591   3.046   5.673  1.8884  1.7470 -1.4820
14151TIP3    H242397   5.663   3.112   5.789  0.9925  0.9008 -0.4225
14152TIP3   OH242398   4.027   7.256   5.419  0.1423  0.4101  0.2248
14152TIP3    H142399   4.104   7.207   5.388 -0.0114 -0.0342  0.5325
14152TIP3    H242400   3.969   7.261   5.343  1.7196  3.3802 -0.9586
14153TIP3   OH242401   7.329   7.314   5.038 -0.0134  0.8176 -0.0419
14153TIP3    H142402   7.325   7.252   5.111  1.3741  0.0351 -0.5981
14153TIP3    H242403   7.324   7.400   5.079  1.3795  0.4090  1.0409
14154TIP3   OH242404   1.944   1.891   0.677 -1.0343 -0.1708 -0.0717
14154TIP3    H142405   1.871   1.865   0.733 -0.8535 -2.1825 -0.6897
14154TIP3    H242406   1.922   1.980   0.649 -2.3179 -0.0477  1.2208
14155TIP3   OH242407   3.058   7.038   2.581  0.2450 -0.4181 -0.0412
14155TIP3    H142408   3.058   7.127   2.616  1.3866 -0.6967  0.7057
14155TIP3    H242409   2.968   7.008   2.593 -0.7512  1.3578 -2.2974
14156TIP3   OH242410   1.098   2.864   5.180  0.6688  0.4211  0.4085
14156TIP3    H142411   1.008   2.877   5.211  0.1599 -0.5165 -0.5983
14156TIP3    H242412   1.140   2.948   5.195 -0.4946  1.0114  0.5232
14157TIP3   OH242413   2.968   7.679   2.028 -0.2642 -0.2275  0.5875
14157TIP3    H142414   2.884   7.648   2.061 -1.1012 -0.2828 -1.4292
14157TIP3    H242415   3.022   7.691   2.106 -2.4899  0.9366  2.0374
14158TIP3   OH242416   0.407   5.217   0.884  0.4450 -0.1295 -0.1575
14158TIP3    H142417   0.377   5.283   0.821  2.1278  0.9731  0.1159
14158TIP3    H242418   0.368   5.135   0.854 -2.1338  1.0251 -0.2401
14159TIP3   OH242419   7.933   2.172   2.185  0.0953 -0.8791 -0.1321
14159TIP3    H142420   7.921   2.086   2.146 -0.2829 -0.1099 -1.8230
14159TIP3    H242421   7.852   2.219   2.165  1.5805  0.9613 -2.3541
14160TIP3   OH242422   3.336   7.153   4.199 -0.5909 -0.4175 -0.8169
14160TIP3    H142423   3.329   7.109   4.284  0.0653  0.4052 -0.3114
14160TIP3    H242424   3.426   7.137   4.171 -1.1602 -1.7614 -1.9928
14161TIP3   OH242425   4.046   2.756   3.047 -0.3136 -0.1344 -0.5583
14161TIP3    H142426   4.125   2.710   3.021  0.1469  0.1182  0.3686
14161TIP3    H242427   4.042   2.832   2.989  0.4436  0.1750 -0.2034
14162TIP3   OH242428   7.022   1.470   5.458  0.6540  0.7390  0.1660
14162TIP3    H142429   7.115   1.457   5.439  0.7327 -0.2259  1.0936
14162TIP3    H242430   7.018   1.556   5.500  0.8130  1.7329 -1.7264
14163TIP3   OH242431   4.985   1.896   4.015  0.6547  0.1409 -0.1265
14163TIP3    H142432   5.030   1.861   3.938 -0.6393 -0.5529 -0.6015
14163TIP3    H242433   5.056   1.917   4.076  1.6245 -0.9176 -0.8327
14164TIP3   OH242434   7.169   3.944   4.355 -0.2144  0.4299  0.4032
14164TIP3    H142435   7.136   3.914   4.439  0.4511 -1.3741  0.0746
14164TIP3    H242436   7.264   3.947   4.365  0.1594 -2.4221 -0.9306
14165TIP3   OH242437   2.475   0.558   1.695  0.0631  0.2955 -0.0931
14165TIP3    H142438   2.408   0.543   1.628  0.2862 -0.6206 -0.1261
14165TIP3    H242439   2.460   0.648   1.724 -0.4802  0.4730 -0.8797
14166TIP3   OH242440   3.876   3.355   5.495 -0.1198  0.3879  0.4481
14166TIP3    H142441   3.932   3.399   5.559 -0.2031 -0.4255  1.0950
14166TIP3    H242442   3.816   3.302   5.548 -0.0548 -0.4664 -0.3149
14167TIP3   OH242443   8.130   4.775   1.784 -0.5204  0.2995  0.1183
14167TIP3    H142444   8.141   4.831   1.861  1.0522  1.9695 -1.2167
14167TIP3    H242445   8.101   4.834   1.715  0.0776 -0.7487 -1.0780
14168TIP3   OH242446   1.957   2.488   0.768 -0.1150 -0.1733  0.3665
14168TIP3    H142447   2.042   2.450   0.792  0.7246  2.1446  1.3593
14168TIP3    H242448   1.926   2.529   0.849 -2.0587 -0.6943 -0.0723
14169TIP3   OH242449   7.505   1.992   6.397 -0.3499 -0.5518 -0.5329
14169TIP3    H142450   7.571   2.015   6.331 -0.4704 -0.3267 -0.5757
14169TIP3    H242451   7.443   2.065   6.396  0.6831  0.4175  1.2000
14170TIP3   OH242452   2.005   2.223   5.272  0.4486  0.3212  0.5693
14170TIP3    H142453   2.065   2.297   5.266 -0.6344  1.1340 -0.6500
14170TIP3    H242454   1.939   2.251   5.336 -0.6769  0.9918 -0.8173
14171TIP3   OH242455   6.151   2.292   5.975  0.3718  0.3048 -0.2174
14171TIP3    H142456   6.106   2.366   6.016 -0.9375 -0.6649  0.1790
14171TIP3    H242457   6.081   2.229   5.958  1.2254 -0.2065 -1.9780
14172TIP3   OH242458   5.782   6.498   5.348 -0.6422 -0.0915  0.4599
14172TIP3    H142459   5.790   6.528   5.439 -1.0260 -0.9222  0.7778
14172TIP3    H242460   5.701   6.446   5.347  0.3541 -1.6961  0.1023
14173TIP3   OH242461   2.166   7.317   4.543  0.4486 -0.2548 -0.1268
14173TIP3    H142462   2.085   7.313   4.491  0.9897 -0.3091 -0.9828
14173TIP3    H242463   2.141   7.366   4.621 -1.0059 -2.2499  0.7378
14174TIP3   OH242464   3.777   4.320   4.812  0.1932 -0.1263 -0.0237
14174TIP3    H142465   3.779   4.415   4.820 -0.2793 -0.1685  0.7681
14174TIP3    H242466   3.853   4.290   4.862  0.3454 -0.1634 -0.2777
14175TIP3   OH242467   0.858   7.294   1.181  0.1185  0.2685 -0.3402
14175TIP3    H142468   0.819   7.216   1.142 -1.7404  0.6450  0.6449
14175TIP3    H242469   0.936   7.262   1.227 -1.5677 -1.3515  1.5495
14176TIP3   OH242470   4.419   2.230   5.729  0.2569  0.0351 -0.1412
14176TIP3    H142471   4.406   2.186   5.645 -0.0715  1.6300 -0.9697
14176TIP3    H242472   4.331   2.236   5.767  0.2236  0.3652 -0.2595
14177TIP3   OH242473   4.152   4.026   2.405 -0.0115 -0.0755 -0.7634
14177TIP3    H142474   4.149   3.944   2.454  0.7367  0.5352  0.3469
14177TIP3    H242475   4.066   4.031   2.362 -1.0166 -0.2666  1.1276
14178TIP3   OH242476   1.817   7.659   4.694 -0.1862 -0.1114  0.0575
14178TIP3    H142477   1.895   7.668   4.748 -0.6563  0.9151  0.5865
14178TIP3    H242478   1.749   7.630   4.755 -0.7275  1.0880  0.0538
14179TIP3   OH242479   1.733   6.959   4.707 -0.2802  0.8087 -0.5717
14179TIP3    H142480   1.754   7.047   4.738 -0.1078  1.5457 -2.6191
14179TIP3    H242481   1.643   6.964   4.677 -0.8866 -0.2424  0.9496
14180TIP3   OH242482   0.821   3.799   5.751  0.0034  0.0941  0.4093
14180TIP3    H142483   0.800   3.707   5.765 -1.6039  0.6408  2.0971
14180TIP3    H242484   0.848   3.831   5.838  2.5145  0.7858 -0.5473
14181TIP3   OH242485   6.665   0.260   3.175  0.2069  0.2610  0.5283
14181TIP3    H142486   6.574   0.284   3.189 -0.8077 -2.4525 -0.7587
14181TIP3    H242487   6.703   0.334   3.128 -1.4075  1.3155  0.8301
14182TIP3   OH242488   4.762   1.656   0.699 -0.5152 -0.3000 -0.2079
14182TIP3    H142489   4.709   1.733   0.678  1.2073  1.5562  1.7445
14182TIP3    H242490   4.718   1.616   0.774 -1.1535 -0.9940 -0.9325
14183TIP3   OH242491   8.211   3.476   2.915  0.0682 -0.0355 -0.0133
14183TIP3    H142492   8.198   3.516   2.829  3.2185 -0.7881 -0.9780
14183TIP3    H242493   8.217   3.551   2.976  0.5159  0.6759 -0.9082
14184TIP3   OH242494   3.269   2.663   5.062  0.2253  0.4405  0.0550
14184TIP3    H142495   3.183   2.635   5.032  0.9813 -0.6719 -1.1742
14184TIP3    H242496   3.285   2.746   5.017  0.8541 -0.6344 -1.8104
14185TIP3   OH242497   4.688   0.726   5.262 -0.0125 -0.0599 -0.2811
14185TIP3    H142498   4.769   0.698   5.304 -1.1961 -1.3845  1.2160
14185TIP3    H242499   4.641   0.645   5.242 -1.5008  0.6953 -0.0082
14186TIP3   OH242500   4.367   6.509   2.390  0.0116  0.4460 -0.3157
14186TIP3    H142501   4.415   6.505   2.473  0.7587 -0.8074 -0.7772
14186TIP3    H242502   4.434   6.493   2.324 -0.6374  1.1208 -1.1464
14187TIP3   OH242503   2.562   5.608   5.710 -0.0445 -0.3386 -0.3239
14187TIP3    H142504   2.471   5.622   5.738 -0.2393 -0.3908 -0.9089
14187TIP3    H242505   2.557   5.602   5.614  0.3410 -1.9811 -0.2743
14188TIP3   OH242506   3.373   1.267   5.264  0.0454 -0.3873 -0.6393
14188TIP3    H142507   3.317   1.220   5.202 -1.6722 -0.9540  1.2438
14188TIP3    H242508   3.322   1.344   5.289  1.2375  0.4936 -0.8115
14189TIP3   OH242509   2.798   7.411   4.987 -0.2682 -0.2866 -0.0791
14189TIP3    H142510   2.818   7.360   4.909  1.0305  0.6215 -0.3730
14189TIP3    H242511   2.777   7.499   4.954  2.0034  0.6053  0.6098
14190TIP3   OH242512   7.422   4.328   1.023  0.8971 -0.0401  0.0432
14190TIP3    H142513   7.470   4.377   0.956 -0.5910 -0.6675 -1.5644
14190TIP3    H242514   7.337   4.309   0.983 -0.8080  1.1191  2.8162
14191TIP3   OH242515   0.521   2.744   5.695 -0.2444 -0.6141  0.4612
14191TIP3    H142516   0.484   2.692   5.624  0.0352 -0.0309 -0.1255
14191TIP3    H242517   0.487   2.832   5.680 -0.3066 -0.5230  1.1434
14192TIP3   OH242518   5.548   2.148   3.457 -0.5388  0.0601 -0.0092
14192TIP3    H142519   5.597   2.100   3.523  0.5082 -0.3917 -1.0639
14192TIP3    H242520   5.517   2.079   3.397 -2.6836  0.3071  0.7350
14193TIP3   OH242521   6.034   0.429   4.188 -0.4169  0.6214  0.4370
14193TIP3    H142522   5.952   0.402   4.146  0.0914  0.5340 -0.5326
14193TIP3    H242523   6.050   0.363   4.255 -1.2218  0.7306  0.7466
14194TIP3   OH242524   6.228   0.875   3.368  0.3779  0.4058 -0.1774
14194TIP3    H142525   6.182   0.925   3.436 -0.8245 -1.0177  0.0972
14194TIP3    H242526   6.291   0.821   3.416 -0.0342 -0.1354 -0.2353
14195TIP3   OH242527   7.895   0.477   5.488  0.4795  0.7195 -0.1656
14195TIP3    H142528   7.960   0.434   5.432  0.5263  1.3247 -0.5889
14195TIP3    H242529   7.941   0.555   5.522  0.2189  0.7426  0.1352
14196TIP3   OH242530   4.727   2.448   0.101 -0.3435  0.2486 -0.6805
14196TIP3    H142531   4.772   2.364   0.090  0.0025  0.5995 -2.3274
14196TIP3    H242532   4.764   2.486   0.181  1.9189  0.2581 -1.6472
14197TIP3   OH242533   7.909   3.395   1.687 -0.0223 -0.1138  0.4605
14197TIP3    H142534   7.897   3.479   1.642  0.2707  0.0658  0.7080
14197TIP3    H242535   7.838   3.392   1.751  2.0295  1.7196  3.0863
14198TIP3   OH242536   1.827   3.557   6.404  0.1165  0.0872  0.5312
14198TIP3    H142537   1.815   3.474   6.450  0.2439 -1.9402 -2.7487
14198TIP3    H242538   1.742   3.575   6.364  0.6925  0.2433 -0.6725
14199TIP3   OH242539   7.199   6.632   0.942  0.4895  0.2240 -0.2450
14199TIP3    H142540   7.106   6.639   0.964  0.3985 -0.3174 -0.4351
14199TIP3    H242541   7.202   6.568   0.871  1.0370 -0.0076 -0.0219
14200TIP3   OH242542   1.800   1.513   6.463  0.2876 -0.0230 -0.7379
14200TIP3    H142543   1.751   1.527   6.382  0.8724 -0.0780 -1.1059
14200TIP3    H242544   1.886   1.552   6.446  0.6819 -0.7452 -0.4355
14201TIP3   OH242545   4.996   7.338   0.559  0.3579  0.0875  0.3711
14201TIP3    H142546   4.969   7.252   0.589  0.7364  0.2855  1.3308
14201TIP3    H242547   4.926   7.367   0.501  1.7197 -2.1879 -2.6358
14202TIP3   OH242548   2.217   1.460   0.594  0.5367 -0.3044  0.3186
14202TIP3    H142549   2.302   1.451   0.550  0.0755 -1.9103 -0.2995
14202TIP3    H242550   2.198   1.374   0.629 -1.7310 -0.5478 -1.2615
14203TIP3   OH242551   1.279   3.602   0.390  0.1258 -0.2069 -0.2446
14203TIP3    H142552   1.200   3.613   0.338 -0.6094 -1.6227  0.5216
14203TIP3    H242553   1.341   3.665   0.353 -1.1532  0.5198 -1.2349
14204TIP3   OH242554   4.823   7.134   4.960 -0.1621 -0.0846  0.5127
14204TIP3    H142555   4.774   7.091   5.030  0.4135 -0.0498  0.9513
14204TIP3    H242556   4.879   7.065   4.924  0.7933  0.2928  1.2451
14205TIP3   OH242557   2.455   5.150   2.388  0.2529  0.1224 -0.6817
14205TIP3    H142558   2.471   5.096   2.465 -0.8300  1.3853  0.4941
14205TIP3    H242559   2.485   5.237   2.413 -1.2417  0.8262 -1.2157
14206TIP3   OH242560   2.513   0.395   0.135  0.0993 -0.1617 -0.7162
14206TIP3    H142561   2.448   0.458   0.165  1.3513  1.0204 -0.3480
14206TIP3    H242562   2.480   0.310   0.164 -0.2192  0.6192  1.4254
14207TIP3   OH242563   2.578   4.270   3.691  0.4993  0.3979 -0.2141
14207TIP3    H142564   2.570   4.313   3.606  1.4204 -0.7695 -0.9266
14207TIP3    H242565   2.661   4.223   3.686  0.5767  0.3375  1.3539
14208TIP3   OH242566   2.504   7.535   2.827  0.2421 -0.6445 -0.3022
14208TIP3    H142567   2.570   7.604   2.826 -0.5018  0.0943 -0.0114
14208TIP3    H242568   2.425   7.577   2.794 -0.7149 -0.8122  1.6007
14209TIP3   OH242569   7.897   4.482   5.178  0.3875  0.4199  0.3121
14209TIP3    H142570   7.958   4.459   5.108  1.5536  2.8851  0.3967
14209TIP3    H242571   7.952   4.494   5.255 -0.6277 -0.3437  1.1787
14210TIP3   OH242572   6.717   3.212   4.460  0.1187 -0.3561 -0.0023
14210TIP3    H142573   6.630   3.178   4.438 -0.1735 -0.1982  0.8397
14210TIP3    H242574   6.710   3.237   4.553  1.0916 -0.4346  0.1081
14211TIP3   OH242575   2.245   1.286   4.719  0.5869 -0.0464  0.0906
14211TIP3    H142576   2.303   1.215   4.691  2.0022  2.2183 -3.4501
14211TIP3    H242577   2.175   1.286   4.653  0.4882  1.6777  0.1734
14212TIP3   OH242578   1.290   3.415   0.598 -0.2859  0.1122 -0.3221
14212TIP3    H142579   1.370   3.432   0.647 -0.5916  0.7972 -0.0551
14212TIP3    H242580   1.277   3.494   0.545 -0.7693 -0.0053 -0.3818
14213TIP3   OH242581   2.526   6.700   1.568 -0.4181 -0.4028  0.3781
14213TIP3    H142582   2.452   6.646   1.594  0.6621 -1.6892  0.9331
14213TIP3    H242583   2.515   6.712   1.474  0.3181 -3.3779 -0.2144
14214TIP3   OH242584   6.804   2.670   5.925  0.6927 -0.5166 -0.2835
14214TIP3    H142585   6.807   2.635   5.836  1.6695 -0.7815 -0.1647
14214TIP3    H242586   6.813   2.592   5.981  2.8580 -0.1403 -0.0175
14215TIP3   OH242587   7.031   2.901   3.583 -0.6235  0.0777 -0.1757
14215TIP3    H142588   6.957   2.942   3.539 -0.5956  0.9551  0.5769
14215TIP3    H242589   7.035   2.813   3.545 -2.2868 -0.1294  0.0192
14216TIP3   OH242590   6.278   4.984   1.953 -0.0398 -0.1783 -0.0896
14216TIP3    H142591   6.344   5.041   1.914 -1.3029  0.7353 -0.9893
14216TIP3    H242592   6.227   5.042   2.009 -0.9483 -0.5562 -0.5105
14217TIP3   OH242593   1.848   1.394   1.765 -0.2376  0.3582  0.1391
14217TIP3    H142594   1.860   1.302   1.742  1.6269  0.8023 -0.9436
14217TIP3    H242595   1.840   1.394   1.860  0.8915 -0.8662  0.2732
14218TIP3   OH242596   3.335   3.650   1.312  0.0800 -0.0744 -0.4774
14218TIP3    H142597   3.278   3.722   1.283  0.9585 -0.0172 -2.1899
14218TIP3    H242598   3.304   3.630   1.401  0.6090  3.2643  0.6095
14219TIP3   OH242599   7.578   6.501   1.704 -0.4179  0.5186  0.4006
14219TIP3    H142600   7.661   6.466   1.736 -0.4671 -0.2461 -0.2623
14219TIP3    H242601   7.594   6.521   1.611 -0.7891  0.9682  0.4271
14220TIP3   OH242602   5.745   4.727   4.964  0.2326  0.6966  0.2283
14220TIP3    H142603   5.807   4.684   4.905  0.7452 -0.4099  1.5142
14220TIP3    H242604   5.797   4.794   5.008 -0.0860  1.3484 -0.3651
14221TIP3   OH242605   6.303   2.366   3.453  0.0263  0.0573 -0.0034
14221TIP3    H142606   6.374   2.309   3.482 -0.4907 -1.3838 -1.4186
14221TIP3    H242607   6.253   2.384   3.533  1.8521  0.9896  0.9928
14222TIP3   OH242608   1.230   5.819   1.472 -0.6720  0.5278  0.3543
14222TIP3    H142609   1.283   5.872   1.413 -1.6251  0.6504 -0.4164
14222TIP3    H242610   1.227   5.733   1.430 -0.3845  0.2851  0.8273
14223TIP3   OH242611   0.475   0.837   1.388  0.6361  0.1512 -0.8808
14223TIP3    H142612   0.482   0.931   1.403 -0.8337  0.3052 -0.9175
14223TIP3    H242613   0.381   0.823   1.372  0.7854 -1.3583 -0.5963
14224TIP3   OH242614   1.241   1.895   3.988  0.1399 -0.4713 -0.0677
14224TIP3    H142615   1.321   1.910   4.038  0.6553 -0.9857 -0.7105
14224TIP3    H242616   1.180   1.856   4.051  0.0199  0.9021  0.6930
14225TIP3   OH242617   4.409   1.698   0.011  0.1231  0.0960  0.4763
14225TIP3    H142618   4.357   1.771   0.044  0.5395  0.4144  0.4251
14225TIP3    H242619   4.369   1.620   0.051 -1.9156  0.0738 -1.3727
14226TIP3   OH242620   7.279   7.350   1.072 -0.1951  0.2515 -0.2611
14226TIP3    H142621   7.324   7.280   1.024  0.4368 -0.2610  1.0434
14226TIP3    H242622   7.262   7.417   1.005  3.3814  0.9409 -0.6973
14227TIP3   OH242623   6.541   0.438   6.589 -0.0028  0.4111 -0.0513
14227TIP3    H142624   6.611   0.395   6.639  1.4184 -0.0468 -2.2710
14227TIP3    H242625   6.502   0.499   6.651  0.5344 -1.2550  2.0743
14228TIP3   OH242626   0.437   5.035   5.497  0.0615 -0.7308  0.4202
14228TIP3    H142627   0.451   5.088   5.575 -1.7516 -0.2995  0.4838
14228TIP3    H242628   0.510   5.057   5.439 -0.4864  1.6559  0.5477
14229TIP3   OH242629   0.609   3.411   3.134 -0.4521  0.1457  0.0829
14229TIP3    H142630   0.522   3.447   3.119 -0.0977  2.6122  2.9431
14229TIP3    H242631   0.667   3.461   3.077 -0.6174  0.2655  0.0194
14230TIP3   OH242632   7.200   5.165   2.900  0.8210 -0.0345  0.2590
14230TIP3    H142633   7.160   5.095   2.952  1.6767 -2.5173 -2.1969
14230TIP3    H242634   7.127   5.203   2.851  0.7824 -1.8829 -1.2415
14231TIP3   OH242635   5.993   0.798   0.865  0.4538 -0.3798  0.2028
14231TIP3    H142636   6.002   0.704   0.879  0.5598 -0.2440  1.1493
14231TIP3    H242637   5.969   0.833   0.952 -1.6931  0.2149 -0.5654
14232TIP3   OH242638   5.622   1.776   1.187  0.4960 -0.2128  0.2372
14232TIP3    H142639   5.603   1.830   1.263 -1.4688 -0.3073 -0.1500
14232TIP3    H242640   5.618   1.836   1.113 -0.4578 -0.6435 -0.0706
14233TIP3   OH242641   5.427   0.840   2.236  0.8069 -0.3603  0.1164
14233TIP3    H142642   5.495   0.784   2.199  2.1342 -0.4651  2.5085
14233TIP3    H242643   5.476   0.909   2.282 -0.5922 -1.2902  3.2241
14234TIP3   OH242644   7.388   2.313   0.720 -0.1495  0.3112 -0.5470
14234TIP3    H142645   7.418   2.268   0.799  0.1142  1.6192  0.1234
14234TIP3    H242646   7.337   2.247   0.673  1.1793 -1.0273 -0.1813
14235TIP3   OH242647   3.727   5.063   6.071 -0.2872  0.8740 -0.4458
14235TIP3    H142648   3.674   5.114   6.132 -0.7266 -0.7451  0.5907
14235TIP3    H242649   3.809   5.112   6.063 -0.4017  1.3653  1.1130
14236TIP3   OH242650   3.758   4.337   5.663  0.0631  0.3599 -1.0724
14236TIP3    H142651   3.751   4.253   5.708  0.7263  0.2377 -1.1773
14236TIP3    H242652   3.695   4.394   5.708  2.6005  1.0952  2.0027
14237TIP3   OH242653   8.307   0.568   2.609 -0.1595 -0.1423  0.1014
14237TIP3    H142654   8.333   0.659   2.626  1.2016 -0.4510 -0.2128
14237TIP3    H242655   8.215   0.574   2.584  0.2101  1.2863 -1.0732
14238TIP3   OH242656   3.024   1.403   2.296 -0.6956 -0.1953 -0.2751
14238TIP3    H142657   3.001   1.456   2.220 -1.0799  1.2205  0.7783
14238TIP3    H242658   3.107   1.440   2.327 -1.0544 -0.0636  0.5726
14239TIP3   OH242659   2.769   7.077   4.879  0.0064  0.4332 -0.1778
14239TIP3    H142660   2.697   7.020   4.907 -0.6195  0.0330 -2.4228
14239TIP3    H242661   2.816   7.097   4.960 -1.9376 -0.2399  1.1966
14240TIP3   OH242662   1.750   5.475   0.214  0.4021  0.3795  0.0892
14240TIP3    H142663   1.695   5.407   0.253 -1.4534  2.4898  1.4020
14240TIP3    H242664   1.834   5.467   0.261  0.5194 -1.4424 -0.3496
14241TIP3   OH242665   4.892   1.039   3.777 -0.6386 -0.5097  0.1933
14241TIP3    H142666   4.986   1.039   3.757 -0.7011  0.8889 -0.2121
14241TIP3    H242667   4.862   0.952   3.752  0.3803 -0.6729 -0.5165
14242TIP3   OH242668   4.353   6.168   6.545  0.0937 -0.0386  0.0279
14242TIP3    H142669   4.266   6.165   6.504 -0.5146  0.0938  1.2722
14242TIP3    H242670   4.336   6.182   6.638  1.4273 -0.8173  0.4234
14243TIP3   OH242671   3.916   4.108   5.264 -0.3217  0.4324  0.2132
14243TIP3    H142672   3.829   4.078   5.288 -0.6371  1.4478  0.3977
14243TIP3    H242673   3.901   4.182   5.205  0.4241 -1.5435 -2.6966
14244TIP3   OH242674   3.889   4.825   4.298  0.4004 -0.2417  0.3746
14244TIP3    H142675   3.840   4.862   4.371 -0.7108  1.1042 -0.9928
14244TIP3    H242676   3.827   4.765   4.256  0.8064 -0.5223  0.1765
14245TIP3   OH242677   5.084   3.651   4.141  0.3811 -0.5056  0.4606
14245TIP3    H142678   5.020   3.586   4.111  0.1862 -0.2157  0.2374
14245TIP3    H242679   5.168   3.608   4.132  0.4370 -0.1164 -1.4404
14246TIP3   OH242680   0.804   6.111   3.080 -0.1204 -0.2200 -0.3045
14246TIP3    H142681   0.724   6.062   3.064 -0.5246 -0.7483  2.7051
14246TIP3    H242682   0.777   6.181   3.140  1.2980  0.9289 -0.9401
14247TIP3   OH242683   6.841   4.731   2.947 -0.1519  0.1008 -0.1317
14247TIP3    H142684   6.845   4.640   2.918  1.8211 -0.2627  1.0830
14247TIP3    H242685   6.798   4.777   2.875  0.0577 -1.5684 -1.3833
14248TIP3   OH242686   0.784   1.710   6.504  0.0072  0.5327 -0.5589
14248TIP3    H142687   0.721   1.674   6.567 -0.6597  2.0838 -0.2886
14248TIP3    H242688   0.869   1.688   6.541 -0.3719  0.0891  0.0878
14249TIP3   OH242689   5.411   3.808   1.658  0.3674  0.1634 -0.1297
14249TIP3    H142690   5.332   3.794   1.606  1.4115  1.4119 -2.1669
14249TIP3    H242691   5.475   3.747   1.622  0.5695 -0.3407  1.0300
14250TIP3   OH242692   6.117   4.149   0.046 -0.1257 -0.1996  1.0942
14250TIP3    H142693   6.102   4.057   0.069  1.2425 -0.5008  0.8349
14250TIP3    H242694   6.063   4.163  -0.032  1.8874 -1.6697 -0.6887
14251TIP3   OH242695   8.188   0.081   4.476 -0.0787  0.4225  0.1722
14251TIP3    H142696   8.213  -0.003   4.439  0.9674  0.6601  0.3053
14251TIP3    H242697   8.252   0.096   4.546 -1.2603  0.5539  1.2648
14252TIP3   OH242698   2.805   2.245   2.194 -0.0300  0.3855  0.5923
14252TIP3    H142699   2.855   2.183   2.140 -1.2874 -1.0861  1.0341
14252TIP3    H242700   2.820   2.330   2.153  1.1134 -0.3184 -0.5263
14253TIP3   OH242701   7.185   2.559   1.063  0.0201  0.1774  0.0740
14253TIP3    H142702   7.257   2.596   1.012 -0.8823  0.2179 -1.2352
14253TIP3    H242703   7.118   2.627   1.061 -1.7812 -1.4780 -2.6104
14254TIP3   OH242704   0.700   3.351   4.580 -0.3465 -0.3326  0.0891
14254TIP3    H142705   0.651   3.375   4.658 -0.3060 -1.5018  0.4831
14254TIP3    H242706   0.750   3.274   4.605  0.1586 -0.3476 -0.9025
14255TIP3   OH242707   5.761   0.507   0.952 -0.3742 -0.3244 -0.0488
14255TIP3    H142708   5.667   0.499   0.966 -0.3046 -0.4985  0.3276
14255TIP3    H242709   5.787   0.583   1.004 -0.3654 -0.0568 -0.4413
14256TIP3   OH242710   8.122   2.027   2.522 -0.3256 -0.0142 -0.4656
14256TIP3    H142711   8.080   2.113   2.520 -1.5576 -0.6078 -1.1922
14256TIP3    H242712   8.071   1.974   2.462  0.0294 -1.4397  0.4466
14257TIP3   OH242713   5.784   1.058   2.424  0.7708 -0.4521  0.5548
14257TIP3    H142714   5.841   1.075   2.499  0.7766  0.0405  0.4375
14257TIP3    H242715   5.794   1.134   2.368 -0.3112 -0.1767  0.7204
14258TIP3   OH242716   0.085   2.449   6.181 -0.4529 -0.7905  0.3675
14258TIP3    H142717   0.172   2.420   6.155  0.3623 -0.3122  2.3393
14258TIP3    H242718   0.055   2.383   6.243 -0.5678  0.0949  1.2970
14259TIP3   OH242719   1.972   3.855   0.581  0.2867  0.1696  0.1812
14259TIP3    H142720   2.048   3.797   0.584  0.9445  1.0393  0.7598
14259TIP3    H242721   1.984   3.905   0.500  0.5570  0.5888  0.4739
14260TIP3   OH242722   2.107   7.064   3.464  0.4853  0.2989  0.1123
14260TIP3    H142723   2.095   6.970   3.479 -2.7778  0.6342  0.3383
14260TIP3    H242724   2.132   7.098   3.549  1.4900 -0.3041  0.0778
14261TIP3   OH242725   7.748   0.036   5.059 -0.2098  0.1726 -0.5506
14261TIP3    H142726   7.793  -0.038   5.019  1.6517  0.9109  0.0341
14261TIP3    H242727   7.785   0.113   5.016 -0.1081  0.8608  0.7063
14262TIP3   OH242728   7.506   6.745   4.275  0.3334  0.0334  0.3378
14262TIP3    H142729   7.544   6.707   4.355  1.2809 -2.5163 -1.1836
14262TIP3    H242730   7.518   6.677   4.209 -2.7978  0.9889 -1.3961
14263TIP3   OH242731   5.184   4.711   1.886 -0.7603  0.1106 -0.0447
14263TIP3    H142732   5.262   4.765   1.873 -2.0398  1.7489 -1.3628
14263TIP3    H242733   5.134   4.757   1.953 -1.6193  0.2735 -0.7885
14264TIP3   OH242734   1.792   3.592   1.265  0.1224 -0.7015  0.0433
14264TIP3    H142735   1.740   3.670   1.245 -0.6715 -1.6741 -2.0204
14264TIP3    H242736   1.883   3.621   1.254 -0.1419  0.0438 -0.2655
14265TIP3   OH242737   2.682   2.742   6.647  0.6538 -0.3751 -0.5393
14265TIP3    H142738   2.754   2.752   6.709  1.0237 -1.4360 -0.7775
14265TIP3    H242739   2.697   2.808   6.580  0.4069  0.5980  0.3371
14266TIP3   OH242740   5.644   0.762   3.522 -0.1315 -0.0942  0.3725
14266TIP3    H142741   5.568   0.772   3.579  0.1551 -3.2139  1.4984
14266TIP3    H242742   5.615   0.702   3.453  0.5717  0.7806 -0.7100
14267TIP3   OH242743   7.467   5.491   1.980  0.1333 -0.1590 -0.2495
14267TIP3    H142744   7.374   5.493   2.004  0.0922 -0.9097 -0.3204
14267TIP3    H242745   7.512   5.526   2.057 -0.2742  1.3065 -0.6480
14268TIP3   OH242746   6.296   6.195   5.031  0.1827 -0.4436  0.1026
14268TIP3    H142747   6.203   6.216   5.041  0.4270  1.4240 -1.0385
14268TIP3    H242748   6.297   6.107   4.993 -1.0236 -1.2259  1.7169
14269TIP3   OH242749   0.247   4.811   3.122 -0.3639 -0.4212 -0.0932
14269TIP3    H142750   0.341   4.821   3.136 -0.3956 -0.8544  0.4925
14269TIP3    H242751   0.218   4.756   3.195 -1.3688  1.0818  0.6742
14270TIP3   OH242752   4.377   5.424   2.290  0.2862 -0.5717  0.4946
14270TIP3    H142753   4.291   5.385   2.304  0.2530 -0.6909 -0.0403
14270TIP3    H242754   4.432   5.382   2.357 -0.4135  0.7275  1.9517
14271TIP3   OH242755   0.698   4.047   0.614  0.3880  0.2775 -0.3124
14271TIP3    H142756   0.759   4.025   0.542 -0.9391 -0.4208 -1.2678
14271TIP3    H242757   0.671   4.137   0.595  2.0223  1.0513  0.8123
14272TIP3   OH242758   6.803   2.474   3.241 -0.6277 -0.4651  0.0605
14272TIP3    H142759   6.795   2.533   3.316  0.9695  0.3546 -0.3669
14272TIP3    H242760   6.717   2.432   3.234 -1.1280  0.2059  1.7002
14273TIP3   OH242761   3.554   0.038   5.271 -0.1044 -0.8850  0.2022
14273TIP3    H142762   3.644   0.054   5.242 -0.4242  0.2061 -0.2525
14273TIP3    H242763   3.539  -0.054   5.253  0.4751 -0.7644 -0.9994
14274TIP3   OH242764   2.977   4.471   3.338  0.5026 -0.3238 -0.3247
14274TIP3    H142765   3.042   4.456   3.269  1.4728  1.6640  0.0932
14274TIP3    H242766   3.015   4.539   3.393 -1.4337  0.0524  0.6417
14275TIP3   OH242767   4.316   7.638   0.695 -0.1958  0.6713 -0.6304
14275TIP3    H142768   4.339   7.666   0.783 -0.7634 -3.5520  1.1281
14275TIP3    H242769   4.397   7.602   0.659 -0.7272 -1.1213 -0.1684
14276TIP3   OH242770   6.880   1.788   0.549  0.3446  0.0672 -0.4630
14276TIP3    H142771   6.838   1.873   0.558  0.1075 -0.2208  2.1307
14276TIP3    H242772   6.972   1.804   0.570  0.1328 -0.3893  0.9911
14277TIP3   OH242773   1.499   6.142   1.528 -0.4893 -0.4939  0.0070
14277TIP3    H142774   1.499   6.102   1.615 -1.2766 -1.3653 -0.3740
14277TIP3    H242775   1.447   6.082   1.474 -1.9894  1.1826 -0.5171
14278TIP3   OH242776   4.568   0.399   2.171 -0.5442 -0.5004 -0.4350
14278TIP3    H142777   4.663   0.403   2.177 -0.6300  3.1985  3.8227
14278TIP3    H242778   4.546   0.311   2.202  1.4473 -0.9352 -0.1378
14279TIP3   OH242779   1.664   4.329   0.466  0.2990  0.1897 -0.0224
14279TIP3    H142780   1.672   4.291   0.379  0.1837  1.6287 -0.7012
14279TIP3    H242781   1.630   4.258   0.521  2.2957 -1.3494 -0.6594
14280TIP3   OH242782   7.285   2.627   4.413 -0.8159 -0.1586  0.3488
14280TIP3    H142783   7.274   2.710   4.367 -0.2676  0.1796  0.8168
14280TIP3    H242784   7.264   2.561   4.348  0.1749  0.3010 -0.4637
14281TIP3   OH242785   1.789   2.078   4.060 -0.0868 -0.4976  0.1928
14281TIP3    H142786   1.863   2.103   4.117  0.5382 -1.8992  0.0448
14281TIP3    H242787   1.798   1.983   4.050 -1.8192 -0.6757  0.0136
14282TIP3   OH242788   1.086   4.119   6.502 -0.6391  0.8206  0.0363
14282TIP3    H142789   1.146   4.050   6.475  0.9566  1.9802  0.4760
14282TIP3    H242790   1.143   4.187   6.540 -2.2377  1.9238  0.5610
14283TIP3   OH242791   7.174   3.001   6.252 -0.3602  0.4989 -0.1691
14283TIP3    H142792   7.250   2.946   6.267 -1.8658 -2.1105 -1.3583
14283TIP3    H242793   7.132   3.008   6.337 -0.4213 -0.7040 -0.0812
14284TIP3   OH242794   4.811   2.552   4.637 -0.1583 -0.3481  0.2953
14284TIP3    H142795   4.833   2.538   4.544  1.0854 -0.1651  0.5384
14284TIP3    H242796   4.828   2.467   4.678  1.4233  0.1337  0.7095
14285TIP3   OH242797   7.355   4.415   4.975  0.0371 -0.4239  0.4170
14285TIP3    H142798   7.386   4.505   4.988  0.9203 -0.5703 -0.6014
14285TIP3    H242799   7.339   4.383   5.064  1.7523  0.0363  0.9414
14286TIP3   OH242800   3.540   4.724   2.392  0.0636  0.0757 -0.8337
14286TIP3    H142801   3.603   4.707   2.462 -1.3982  3.4325  1.5657
14286TIP3    H242802   3.594   4.754   2.319  1.4025  1.0688  0.5079
14287TIP3   OH242803   5.713   0.953   6.656 -0.1130 -0.2703  0.6711
14287TIP3    H142804   5.783   0.902   6.616  0.2457  1.4309 -1.0469
14287TIP3    H242805   5.635   0.899   6.647  0.2558 -0.5805 -1.0525
14288TIP3   OH242806   3.538   3.417   5.505 -0.6627  0.6050 -0.3136
14288TIP3    H142807   3.623   3.425   5.549 -1.8123  1.1006  1.9880
14288TIP3    H242808   3.528   3.500   5.458 -1.1461  1.9590  1.9946
14289TIP3   OH242809   4.198   0.969   2.807 -0.0919  0.6482 -0.5093
14289TIP3    H142810   4.288   0.991   2.785 -0.2733  1.2370 -0.6994
14289TIP3    H242811   4.182   1.014   2.891 -0.2479  0.6539 -0.5409
14290TIP3   OH242812   5.929   6.115   5.466  1.0999 -0.1534 -0.0501
14290TIP3    H142813   5.989   6.132   5.393  0.2563 -1.1948 -1.0321
14290TIP3    H242814   5.945   6.024   5.489 -0.2833 -0.5546 -0.5479
14291TIP3   OH242815   8.123   4.382   4.161 -0.3608  0.1469  0.5006
14291TIP3    H142816   8.190   4.373   4.093 -1.2366 -1.2034 -0.2186
14291TIP3    H242817   8.164   4.437   4.227  0.5853  1.3756 -1.0282
14292TIP3   OH242818   2.893   4.848   3.174 -0.1772 -0.4623  0.1258
14292TIP3    H142819   2.988   4.839   3.161 -0.0854 -0.4453  0.7450
14292TIP3    H242820   2.884   4.876   3.265 -0.6179  2.1114 -0.6234
14293TIP3   OH242821   0.412   5.869   0.695 -0.2182  0.4025  0.7206
14293TIP3    H142822   0.385   5.902   0.609  0.0593  1.1371  0.9096
14293TIP3    H242823   0.351   5.797   0.713 -0.5529  0.5260  0.1077
14294TIP3   OH242824   1.141   5.241   2.542  0.1271 -0.0048  1.1553
14294TIP3    H142825   1.171   5.171   2.484 -0.1745 -0.0615  1.0644
14294TIP3    H242826   1.094   5.301   2.484 -1.0146 -0.5465  1.4840
14295TIP3   OH242827   3.196   1.823   6.451  0.0855  0.1108 -0.0148
14295TIP3    H142828   3.282   1.809   6.411 -0.3888 -1.5705 -0.5160
14295TIP3    H242829   3.215   1.870   6.532  1.3655  0.7264 -0.6470
14296TIP3   OH242830   4.022   2.672   2.548 -0.4599 -0.1948 -0.2371
14296TIP3    H142831   3.935   2.701   2.575  0.1493 -0.2377  1.9715
14296TIP3    H242832   4.074   2.753   2.544  0.0302 -0.4375  1.0482
14297TIP3   OH242833   1.560   5.894   0.184  0.0428 -0.3108  0.1611
14297TIP3    H142834   1.616   5.871   0.258  2.3614 -0.9325 -1.6478
14297TIP3    H242835   1.496   5.822   0.179  0.9994 -1.2158  0.4899
14298TIP3   OH242836   1.226   2.550   4.694 -0.4307 -0.4725  0.3155
14298TIP3    H142837   1.170   2.474   4.681  1.6991 -2.0013 -0.4038
14298TIP3    H242838   1.207   2.579   4.783 -1.1131 -1.9856  0.6851
14299TIP3   OH242839   8.065   0.589   0.350  0.1185  0.0986  0.0456
14299TIP3    H142840   8.141   0.543   0.385  0.1594 -1.7049 -2.1839
14299TIP3    H242841   8.098   0.676   0.327  1.7083 -0.7938 -1.3251
14300TIP3   OH242842   3.509   5.580   0.739  0.0669 -0.5802  0.1299
14300TIP3    H142843   3.471   5.659   0.777 -1.2742 -0.5428 -1.1958
14300TIP3    H242844   3.520   5.521   0.812 -2.5717 -0.5854  0.6260
14301TIP3   OH242845   8.081  -0.005   5.408 -0.3302  0.1550 -0.1203
14301TIP3    H142846   8.054   0.057   5.476  2.5236 -0.4195  1.7001
14301TIP3    H242847   8.157   0.036   5.368 -0.3504 -0.7598 -1.1290
14302TIP3   OH242848   1.716   3.542   5.004 -0.4591  0.6503 -0.2917
14302TIP3    H142849   1.684   3.452   5.014  0.8703  0.0901 -0.9161
14302TIP3    H242850   1.798   3.534   4.956  0.1490  2.1268  0.4265
14303TIP3   OH242851   2.131   3.157   4.648 -0.0888  0.7804  1.0035
14303TIP3    H142852   2.147   3.097   4.722 -1.0463  0.8161  1.2512
14303TIP3    H242853   2.036   3.156   4.637 -0.0293  1.5197  0.3838
14304TIP3   OH242854   5.842   1.398   5.412  0.5253 -0.2978  0.1581
14304TIP3    H142855   5.925   1.385   5.457  0.7092  0.5805  0.0891
14304TIP3    H242856   5.855   1.357   5.326  0.3652 -1.4774  0.6773
14305TIP3   OH242857   7.245   1.267   4.347 -0.1269 -0.3539  0.1130
14305TIP3    H142858   7.175   1.320   4.310  1.2635  0.6508 -1.1699
14305TIP3    H242859   7.317   1.329   4.362  0.2479 -1.1987  2.1689
14306TIP3   OH242860   2.920   7.126   6.801 -0.3802 -0.1851  0.1954
14306TIP3    H142861   2.897   7.213   6.767  1.5633 -0.1615 -1.1979
14306TIP3    H242862   2.887   7.065   6.735 -0.8830 -0.4816  0.7026
14307TIP3   OH242863   5.213   7.282   5.538 -0.6274  0.3665  0.3542
14307TIP3    H142864   5.267   7.361   5.526 -1.8084  0.9481 -1.4645
14307TIP3    H242865   5.264   7.212   5.497 -0.2878  0.4898  0.5602
14308TIP3   OH242866   7.078   1.968   1.693  0.2787  0.1521  0.1761
14308TIP3    H142867   7.088   2.047   1.640  1.3137  0.0608  0.2078
14308TIP3    H242868   7.143   1.907   1.657  0.1526 -0.3375  0.7596
14309TIP3   OH242869   8.133   3.272   2.570 -0.0221 -0.0899 -0.1182
14309TIP3    H142870   8.208   3.216   2.589 -0.2610  0.1534  1.7279
14309TIP3    H242871   8.168   3.340   2.513  0.4082 -1.7129 -1.9162
14310TIP3   OH242872   0.180   7.547   0.222 -0.2028  0.3052  0.0837
14310TIP3    H142873   0.215   7.486   0.287 -1.1557 -0.4443 -0.0926
14310TIP3    H242874   0.196   7.633   0.259 -0.3410 -0.1047  1.1159
14311TIP3   OH242875   5.351   5.815   1.475  0.1099  0.2610 -0.5900
14311TIP3    H142876   5.381   5.905   1.482 -0.4082  0.8493 -4.1211
14311TIP3    H242877   5.258   5.823   1.452 -0.1658 -1.2158 -0.0846
14312TIP3   OH242878   0.492   4.733   3.231  0.1864  0.2071  0.2279
14312TIP3    H142879   0.464   4.775   3.312 -1.4827 -0.6063  0.1294
14312TIP3    H242880   0.580   4.766   3.215 -0.8279  3.3552  0.3589
14313TIP3   OH242881   3.288   1.325   5.659  0.5854  0.2207  0.1998
14313TIP3    H142882   3.205   1.290   5.690 -0.0090  1.1358 -0.3374
14313TIP3    H242883   3.299   1.408   5.705  1.2435  0.0767  0.3193
14314TIP3   OH242884   7.307   0.380   2.661 -0.0918  0.2941  0.0214
14314TIP3    H142885   7.222   0.385   2.706  0.4197 -1.3031  1.2798
14314TIP3    H242886   7.371   0.371   2.732  1.0268  0.3781 -0.9397
14315TIP3   OH242887   0.257   1.172   4.411  0.1895  0.0453 -0.1882
14315TIP3    H142888   0.319   1.103   4.434  0.9508  0.6543 -0.3440
14315TIP3    H242889   0.312   1.243   4.377 -0.2371  1.8012  2.3900
14316TIP3   OH242890   1.921   7.113   0.792 -0.0724  0.3019  0.2043
14316TIP3    H142891   1.944   7.204   0.809  2.6223 -0.7939  3.5748
14316TIP3    H242892   1.831   7.105   0.825 -0.1038  1.5800  0.4825
14317TIP3   OH242893   6.606   6.467   6.265 -0.3236  0.7519  0.0336
14317TIP3    H142894   6.569   6.503   6.345  1.2858  1.2681  0.5943
14317TIP3    H242895   6.697   6.497   6.265  0.6408 -1.8547 -0.3504
14318TIP3   OH242896   7.308   3.582   2.412 -0.1588 -0.7923 -0.3780
14318TIP3    H142897   7.291   3.510   2.352  1.0469 -1.3193 -0.1340
14318TIP3    H242898   7.262   3.558   2.493  1.1963 -1.9353  0.1109
14319TIP3   OH242899   4.904   2.515   6.366  0.1698  0.7011 -0.3048
14319TIP3    H142900   4.949   2.549   6.444  0.2573 -1.9143  0.8895
14319TIP3    H242901   4.824   2.475   6.401  0.5030 -1.0584 -1.4471
14320TIP3   OH242902   7.085   4.131   3.049  0.5780 -0.2937  0.3561
14320TIP3    H142903   6.992   4.108   3.048  0.6710 -0.6553  0.0180
14320TIP3    H242904   7.089   4.215   3.004  0.4860 -0.5567 -0.1472
14321TIP3   OH242905   4.433   5.371   4.760  0.6664 -0.3622 -0.2547
14321TIP3    H142906   4.464   5.462   4.756 -0.8576  0.1638 -0.8921
14321TIP3    H242907   4.443   5.339   4.670  2.7215 -1.4155  0.2761
14322TIP3   OH242908   3.766   1.365   0.021  0.5805 -0.6026  0.3338
14322TIP3    H142909   3.690   1.348   0.076 -0.2895  1.3519 -0.1706
14322TIP3    H242910   3.813   1.435   0.067  1.7980 -1.3866  0.3460
14323TIP3   OH242911   4.318   3.426   1.242  0.5311  0.0925  0.2104
14323TIP3    H142912   4.356   3.449   1.158  1.4124 -1.0702  0.2791
14323TIP3    H242913   4.281   3.508   1.275  0.3436  0.5932 -1.2095
14324TIP3   OH242914   4.811   7.440   6.124 -0.1198  0.2646 -0.4526
14324TIP3    H142915   4.827   7.526   6.085 -0.8133  0.5331 -0.1758
14324TIP3    H242916   4.765   7.391   6.055  0.6390 -0.0322 -0.7567
14325TIP3   OH242917   7.920   3.085   3.502 -0.1027  0.5482 -0.1951
14325TIP3    H142918   7.995   3.141   3.483  0.3368 -0.1739 -0.6570
14325TIP3    H242919   7.949   3.031   3.576 -0.3174  0.5464 -0.1108
14326TIP3   OH242920   3.852   1.317   0.686  0.1735 -0.1791 -0.2804
14326TIP3    H142921   3.785   1.249   0.683  0.7485 -0.7184 -2.0046
14326TIP3    H242922   3.921   1.285   0.628  0.5509  1.7834 -0.9800
14327TIP3   OH242923   7.561   1.144   0.941 -0.1377 -0.2396  0.3383
14327TIP3    H142924   7.484   1.121   0.890 -0.6763 -0.0898  1.0686
14327TIP3    H242925   7.607   1.061   0.954 -0.3456 -0.3785  0.1846
14328TIP3   OH242926   4.708   7.243   0.769  1.3282  0.2155 -0.1184
14328TIP3    H142927   4.721   7.155   0.803  0.3314  0.0236 -0.2198
14328TIP3    H242928   4.677   7.231   0.680  1.7191  0.6830 -0.3231
14329TIP3   OH242929   2.579   0.753   2.156 -0.0204 -0.4480  0.0524
14329TIP3    H142930   2.567   0.847   2.146 -0.0434 -0.5896 -1.5508
14329TIP3    H242931   2.493   0.715   2.136  0.6480 -0.9315 -2.2243
14330TIP3   OH242932   0.167   6.320   1.507 -0.5268 -0.1360 -0.0030
14330TIP3    H142933   0.108   6.288   1.439 -1.4521  1.3755  0.0407
14330TIP3    H242934   0.232   6.250   1.517 -0.3324 -0.4083 -2.4557
14331TIP3   OH242935   8.274   5.887   6.342  0.7625 -0.0885  0.3757
14331TIP3    H142936   8.277   5.915   6.434  0.9628 -1.4341  0.8105
14331TIP3    H242937   8.304   5.963   6.293 -2.0767  1.7087  1.1478
14332TIP3   OH242938   7.451   4.984   0.996  0.2747  0.2708  0.2353
14332TIP3    H142939   7.363   5.001   1.028  0.6385 -0.2787  1.5718
14332TIP3    H242940   7.449   4.891   0.970  0.7822 -0.0773  1.4026
14333TIP3   OH242941   4.602   1.118   2.447  0.2006  0.3344 -0.1619
14333TIP3    H142942   4.606   1.023   2.458  0.9478  0.4980  1.2750
14333TIP3    H242943   4.633   1.133   2.358 -0.5214 -0.7950 -0.6286
14334TIP3   OH242944   4.468   4.279   0.734 -0.1291  0.2853  0.4018
14334TIP3    H142945   4.460   4.236   0.649 -1.3798  0.2689  0.5176
14334TIP3    H242946   4.420   4.361   0.724  0.9597  0.9846  0.6539
14335TIP3   OH242947   7.108   3.887   4.628  0.3829 -0.0526  0.1332
14335TIP3    H142948   7.021   3.914   4.656  1.5140  2.8526  1.1983
14335TIP3    H242949   7.108   3.792   4.640 -2.1449  0.0342  1.5337
14336TIP3   OH242950   8.175   0.006   3.434 -0.1574 -0.1123  0.6045
14336TIP3    H142951   8.243   0.052   3.482 -0.8840  0.5269  1.0576
14336TIP3    H242952   8.203   0.009   3.343 -0.0436  0.9937  0.6611
14337TIP3   OH242953   3.655   4.018   0.840  0.5100 -0.1372 -0.0876
14337TIP3    H142954   3.573   3.978   0.869  0.3917  1.2086  1.5879
14337TIP3    H242955   3.651   4.012   0.744 -1.7507  0.2747 -0.0871
14338TIP3   OH242956   7.396   5.808   5.058  0.0020  0.4740 -0.1025
14338TIP3    H142957   7.417   5.900   5.041  3.4678  0.0157  1.0124
14338TIP3    H242958   7.456   5.759   5.002  1.1322 -1.0607  2.3274
14339TIP3   OH242959   1.075   3.925   5.191  0.0202  0.2042 -0.2720
14339TIP3    H142960   1.143   3.896   5.131 -2.3629 -0.8152 -2.7050
14339TIP3    H242961   1.094   3.880   5.273  1.2451 -1.5118 -1.4377
14340TIP3   OH242962   0.950   2.401   2.252 -0.1790 -0.1098  0.1365
14340TIP3    H142963   0.993   2.334   2.199  0.1957  0.1888  0.0560
14340TIP3    H242964   0.952   2.367   2.341  0.1178 -0.1510  0.1133
14341TIP3   OH242965   1.451   3.989   0.131  0.4218 -0.5407 -0.4047
14341TIP3    H142966   1.467   3.901   0.165 -2.2574 -1.0392 -0.2228
14341TIP3    H242967   1.395   3.976   0.055 -0.0092  1.0017 -0.3885
14342TIP3   OH242968   6.757   4.409   6.067  0.1182 -0.5161 -0.2027
14342TIP3    H142969   6.820   4.398   6.138  1.3940  0.5537 -1.1169
14342TIP3    H242970   6.672   4.410   6.110  0.8371 -0.3603  1.2662
14343TIP3   OH242971   8.043   4.049   4.668  0.1607 -0.2139 -0.4167
14343TIP3    H142972   8.119   4.083   4.620  0.3252 -1.3423 -1.0067
14343TIP3    H242973   7.990   4.126   4.687  1.7674  0.6989  0.5894
14344TIP3   OH242974   1.660   2.286   0.251 -0.6028 -0.3252  0.1353
14344TIP3    H142975   1.734   2.305   0.309 -0.8868  2.1057 -0.1835
14344TIP3    H242976   1.599   2.236   0.305  0.2384 -0.2954  1.1497
14345TIP3   OH242977   2.599   1.011   6.097 -0.3471 -0.4773  0.3511
14345TIP3    H142978   2.553   1.028   6.179 -0.8621 -1.0261  0.1797
14345TIP3    H242979   2.536   0.965   6.043 -0.4704  1.0059 -0.8482
14346TIP3   OH242980   4.460   1.586   3.719 -0.0734  0.1548  0.2948
14346TIP3    H142981   4.426   1.646   3.652  2.1390  1.5437  0.3145
14346TIP3    H242982   4.553   1.579   3.699  0.5043 -0.0342  2.7483
14347TIP3   OH242983   3.948   0.824   6.018  0.2583 -0.2842  0.0010
14347TIP3    H142984   3.886   0.752   6.032  0.3684 -0.4405 -0.3102
14347TIP3    H242985   3.926   0.857   5.932  1.2977 -1.0280 -0.5761
14348TIP3   OH242986   0.846   6.355   2.484  0.1122  0.0939 -0.1125
14348TIP3    H142987   0.800   6.436   2.506  1.2312  1.1610 -1.4953
14348TIP3    H242988   0.827   6.341   2.391  0.6228 -0.7612 -0.1035
14349TIP3   OH242989   7.850   0.898   5.736 -0.7601 -0.1221 -0.1245
14349TIP3    H142990   7.843   0.981   5.690 -0.6576 -0.2976 -0.4618
14349TIP3    H242991   7.792   0.839   5.689 -0.6660 -0.2995 -0.0215
14350TIP3   OH242992   3.290   6.265   5.079  0.4994  0.0004  0.2399
14350TIP3    H142993   3.378   6.263   5.040  0.1109  0.8125 -0.7218
14350TIP3    H242994   3.244   6.335   5.032 -0.6842 -0.4397  0.6987
14351TIP3   OH242995   3.206   4.183   2.524 -0.6008 -0.0393 -0.0542
14351TIP3    H142996   3.154   4.163   2.446 -1.3904  0.0634  0.4280
14351TIP3    H242997   3.142   4.184   2.596  0.2972 -1.3344  0.7947
14352TIP3   OH242998   0.813   4.580   0.438  0.3145  0.2979 -0.3970
14352TIP3    H142999   0.740   4.618   0.389 -1.5659 -2.0711  0.3933
14352TIP3    H243000   0.794   4.600   0.529 -1.8378 -3.8728  0.2839
14353TIP3   OH243001   4.569   2.905   2.938  0.2204 -0.3763  0.2333
14353TIP3    H143002   4.496   2.958   2.969  0.6967 -0.1567  1.0238
14353TIP3    H243003   4.548   2.886   2.847 -0.3525  0.4886  0.1678
14354TIP3   OH243004   0.742   0.233   4.500 -0.0576  0.0030 -0.6150
14354TIP3    H143005   0.751   0.139   4.480 -0.3614  0.1259 -1.3714
14354TIP3    H243006   0.654   0.255   4.470  0.6107  0.9017 -2.0068
14355TIP3   OH243007   0.577   6.672   3.181 -0.2755  0.0338  0.0772
14355TIP3    H143008   0.600   6.763   3.198 -0.1530 -0.2275  1.4096
14355TIP3    H243009   0.632   6.647   3.107  0.1438  0.8613  0.0974
14356TIP3   OH243010   2.027   4.100   0.990  0.6228  0.0293  0.3653
14356TIP3    H143011   2.042   4.184   0.947 -1.8785  0.7924  0.8089
14356TIP3    H243012   1.995   4.123   1.078 -0.0726 -1.3531  0.5077
14357TIP3   OH243013   6.295   4.748   4.645 -0.0748 -0.1540 -0.4332
14357TIP3    H143014   6.278   4.836   4.680 -0.0012  0.4873 -1.9538
14357TIP3    H243015   6.214   4.725   4.598  0.6004 -0.0716 -1.6702
14358TIP3   OH243016   3.391   3.078   4.527  0.2658 -0.1330 -0.3558
14358TIP3    H143017   3.425   3.163   4.499 -1.1459  0.3275 -0.7452
14358TIP3    H243018   3.399   3.023   4.449  0.8281 -0.2643 -0.2137
14359TIP3   OH243019   4.264   5.277   3.927  0.3650  0.8173  0.3680
14359TIP3    H143020   4.304   5.191   3.937 -1.6849 -0.1495  0.7635
14359TIP3    H243021   4.239   5.302   4.016 -1.9254  0.3129 -0.0745
14360TIP3   OH243022   1.179   4.596   3.709  0.3504 -0.5071 -0.0947
14360TIP3    H143023   1.097   4.645   3.700  0.4514 -0.4951 -1.0260
14360TIP3    H243024   1.246   4.663   3.719  0.6562 -0.3483 -2.6450
14361TIP3   OH243025   6.357   3.143   0.665 -0.3276  0.2140 -0.4759
14361TIP3    H143026   6.397   3.075   0.611 -0.0532 -0.1177  0.1361
14361TIP3    H243027   6.412   3.220   0.651  1.6680 -0.6998  1.7356
14362TIP3   OH243028   3.308   6.285   4.043 -0.0336 -0.0485 -0.4371
14362TIP3    H143029   3.230   6.339   4.057 -0.9770 -0.8730 -2.2220
14362TIP3    H243030   3.370   6.345   4.001 -1.2535 -0.3660 -2.8758
14363TIP3   OH243031   4.057   5.201   0.566  0.8450 -0.3852 -0.2171
14363TIP3    H143032   3.990   5.213   0.633  1.2265 -0.2143  0.1351
14363TIP3    H243033   4.139   5.193   0.614  1.3728  1.4228 -0.7121
14364TIP3   OH243034   0.073   1.611   6.274  0.3883 -0.1682  0.3593
14364TIP3    H143035   0.097   1.627   6.183  0.3754 -0.8579  0.2285
14364TIP3    H243036   0.150   1.569   6.312  0.3003 -0.1116  0.6018
14365TIP3   OH243037   7.455   6.115   4.356  0.1847 -0.1907  0.3986
14365TIP3    H143038   7.484   6.170   4.428  0.5919 -0.9256  0.7963
14365TIP3    H243039   7.452   6.174   4.280  0.7808  0.3328  0.7839
14366TIP3   OH243040   3.605   0.121   1.599  0.0379 -0.0407 -0.5740
14366TIP3    H143041   3.614   0.181   1.673 -1.2734  2.5642 -2.3532
14366TIP3    H243042   3.680   0.141   1.542  0.6255 -1.4857 -0.3491
14367TIP3   OH243043   1.667   6.142   5.232  0.3206 -0.0856  0.0421
14367TIP3    H143044   1.675   6.177   5.144  1.5188 -1.4041 -0.4138
14367TIP3    H243045   1.711   6.206   5.288  2.0350 -0.5606 -0.7044
14368TIP3   OH243046   2.157   6.629   3.841 -0.0130 -0.0883 -0.6333
14368TIP3    H143047   2.177   6.609   3.749  0.3005  0.6575 -0.7422
14368TIP3    H243048   2.242   6.654   3.878 -0.4504  1.6765 -0.7040
14369TIP3   OH243049   6.699   4.833   2.750 -0.5399 -0.6916 -0.3298
14369TIP3    H143050   6.623   4.872   2.707 -0.0801 -0.3328 -0.8171
14369TIP3    H243051   6.738   4.777   2.684  0.0430 -0.3098 -0.3140
14370TIP3   OH243052   3.728   5.885   2.277 -0.2736 -0.2777  0.0127
14370TIP3    H143053   3.820   5.901   2.257 -0.0371 -1.6684 -0.1035
14370TIP3    H243054   3.684   5.882   2.192 -0.6528  1.4629  0.1047
14371TIP3   OH243055   5.274   2.345   4.801 -0.2066  0.4152 -0.0244
14371TIP3    H143056   5.244   2.425   4.757 -0.0679  1.6763  2.0240
14371TIP3    H243057   5.337   2.376   4.866  0.2734 -1.4454  0.4511
14372TIP3   OH243058   0.911   0.702   0.403 -0.3321  0.4854 -0.4198
14372TIP3    H143059   0.876   0.665   0.323  0.3703 -3.4939  0.8989
14372TIP3    H243060   0.834   0.724   0.456 -0.9559 -2.6825  0.1450
14373TIP3   OH243061   4.024   5.071   1.150  0.1881  0.7242 -0.3540
14373TIP3    H143062   4.023   5.020   1.068  0.8180 -1.4483  0.8930
14373TIP3    H243063   4.078   5.147   1.130  1.5946 -0.5196 -1.6044
14374TIP3   OH243064   2.174   0.478   3.681  0.0009 -0.7202 -0.8644
14374TIP3    H143065   2.262   0.498   3.714 -0.7463  0.9424  0.2374
14374TIP3    H243066   2.177   0.384   3.662  1.4759 -1.0874  0.8754
14375TIP3   OH243067   7.563   6.153   1.115  0.2414  0.3292  0.3779
14375TIP3    H143068   7.520   6.117   1.193 -0.5715 -0.7626 -0.5558
14375TIP3    H243069   7.630   6.089   1.093  0.2291  0.4570 -0.0312
14376TIP3   OH243070   2.144   3.251   4.234  0.0043  0.6307  0.3352
14376TIP3    H143071   2.234   3.283   4.237 -0.0147  1.0120 -1.5503
14376TIP3    H243072   2.093   3.326   4.204 -0.6339 -0.0905 -0.4265
14377TIP3   OH243073   0.054   6.442   0.520  0.2485 -0.8882  0.1176
14377TIP3    H143074   0.026   6.353   0.542 -1.1099 -0.1444  1.6257
14377TIP3    H243075   0.065   6.486   0.605 -2.3412  1.3020 -0.5319
14378TIP3   OH243076   3.281   2.440   1.367 -0.6102  0.5437 -0.0131
14378TIP3    H143077   3.283   2.421   1.273 -0.9175  1.4263 -0.2051
14378TIP3    H243078   3.273   2.354   1.409 -1.0759  0.1872 -0.8155
14379TIP3   OH243079   8.093   3.730   4.395  0.2520  0.0729  0.1070
14379TIP3    H143080   8.162   3.765   4.452  0.9690  1.4508 -1.5125
14379TIP3    H243081   8.017   3.784   4.413  0.6386  0.8740 -0.5998
14380TIP3   OH243082   7.615   5.990   0.832 -0.1104 -0.7534  0.1842
14380TIP3    H143083   7.687   6.027   0.783 -0.1077  0.1937  0.8686
14380TIP3    H243084   7.654   5.964   0.916 -0.5277 -0.3335  0.5163
14381TIP3   OH243085   4.992   1.934   5.040 -0.0545  0.9414 -0.5137
14381TIP3    H143086   5.010   1.849   5.000 -1.7274  0.0050  0.5691
14381TIP3    H243087   5.074   1.982   5.034  0.9798 -0.8166 -1.0253
14382TIP3   OH243088   4.260   0.247   3.306 -0.2775 -0.0767 -0.1514
14382TIP3    H143089   4.321   0.200   3.362 -0.8371 -1.5745 -0.7340
14382TIP3    H243090   4.238   0.326   3.355 -0.2264 -1.0024  1.4339
14383TIP3   OH243091   8.211   7.807   0.859  0.0517  0.2117 -0.0054
14383TIP3    H143092   8.269   7.734   0.839  1.6483  0.9236  1.7015
14383TIP3    H243093   8.260   7.860   0.922 -1.8807  1.6667  0.3769
14384TIP3   OH243094   1.958   4.550   2.615  0.0732 -0.4999  0.0629
14384TIP3    H143095   1.889   4.484   2.609  1.5448 -2.0117 -1.7623
14384TIP3    H243096   1.945   4.605   2.538  0.4247 -0.3063  0.1394
14385TIP3   OH243097   6.662   0.530   1.807  0.4242  0.3779 -0.0189
14385TIP3    H143098   6.705   0.590   1.745 -0.0389  1.2010  0.4269
14385TIP3    H243099   6.634   0.587   1.878 -0.9145 -0.2300 -0.0401
14386TIP3   OH243100   4.300   3.505   6.462 -0.4309  0.2250  0.2350
14386TIP3    H143101   4.268   3.485   6.550  0.4535  0.7488  0.6934
14386TIP3    H243102   4.315   3.420   6.422  1.1046 -0.0670  1.3304
14387TIP3   OH243103   7.176   0.525   2.435 -0.1544  0.4305 -0.2104
14387TIP3    H143104   7.208   0.458   2.495  0.2674 -1.8862 -2.8012
14387TIP3    H243105   7.080   0.520   2.443 -0.2539 -2.0690 -1.7827
14388TIP3   OH243106   6.076   7.475   4.168 -0.2704 -0.4824 -0.2567
14388TIP3    H143107   6.145   7.417   4.201  0.9325  0.5875 -0.7799
14388TIP3    H243108   6.097   7.560   4.205 -2.2040 -0.4027  0.7632
14389TIP3   OH243109   5.093   7.256   3.165 -0.0448  0.4829  0.3669
14389TIP3    H143110   5.141   7.338   3.179  0.9739  0.2595 -1.5315
14389TIP3    H243111   5.002   7.284   3.152  0.0377  1.1754  1.1825
14390TIP3   OH243112   7.224   2.743   1.980 -0.0358  0.3465 -0.1249
14390TIP3    H143113   7.224   2.807   2.051  0.9713 -0.6873  0.8288
14390TIP3    H243114   7.138   2.701   1.986 -0.4254  1.0985 -0.3111
14391TIP3   OH243115   3.848   7.584   0.789  0.4085  0.3995  0.7403
14391TIP3    H143116   3.754   7.582   0.806  0.2650  1.5815  0.1919
14391TIP3    H243117   3.854   7.606   0.696  1.2154 -1.3548  0.3541
14392TIP3   OH243118   1.381   7.095   4.859 -0.2665 -0.2937  0.2112
14392TIP3    H143119   1.319   7.146   4.807 -0.3015 -0.6076 -0.0532
14392TIP3    H243120   1.428   7.161   4.911  1.9324  0.3731 -2.4353
14393TIP3   OH243121   0.091   1.248   3.158  0.0826  0.3153 -0.3295
14393TIP3    H143122   0.119   1.284   3.074 -2.1441  0.6771 -0.9643
14393TIP3    H243123   0.111   1.155   3.152  4.2264  0.9274  0.6353
14394TIP3   OH243124   3.618   5.684   1.817  1.1786  0.0137  0.1311
14394TIP3    H143125   3.527   5.665   1.792  0.8049 -0.5256  1.7529
14394TIP3    H243126   3.665   5.603   1.798  1.1584  0.0359 -0.0117
14395TIP3   OH243127   2.463   3.246   3.249  0.2084  0.4744  0.6072
14395TIP3    H143128   2.511   3.191   3.311  1.6355  1.7221  0.6993
14395TIP3    H243129   2.430   3.186   3.183  2.0524 -0.4531  0.4728
14396TIP3   OH243130   6.304   7.349   0.097  0.2368 -0.0096 -0.4764
14396TIP3    H143131   6.296   7.425   0.040  0.8233 -0.7415 -1.5728
14396TIP3    H243132   6.302   7.384   0.186  1.0963  1.3360 -0.9675
14397TIP3   OH243133   4.662   1.008   1.094 -0.0982 -0.1886  0.3741
14397TIP3    H143134   4.695   1.067   1.026 -0.1559 -0.2937  0.2544
14397TIP3    H243135   4.729   0.941   1.102 -0.6012 -0.7909 -0.3656
14398TIP3   OH243136   4.279   5.395   5.842  0.4273  0.0211  0.3233
14398TIP3    H143137   4.227   5.399   5.922  0.6162  0.6782  0.4148
14398TIP3    H243138   4.311   5.305   5.839  1.0608  0.1911  1.4003
14399TIP3   OH243139   6.381   0.967   1.426 -0.3222 -0.2664  0.4235
14399TIP3    H143140   6.375   1.002   1.338  3.2840 -0.8428 -0.2233
14399TIP3    H243141   6.430   1.033   1.475 -0.2183 -0.9777  1.3198
14400TIP3   OH243142   7.461   7.566   5.485  0.2358 -0.3435  0.0903
14400TIP3    H143143   7.432   7.484   5.525  0.5135 -0.6412 -0.3007
14400TIP3    H243144   7.385   7.597   5.435 -0.3167  0.3564  1.3317
14401TIP3   OH243145   7.900   4.989   2.753  0.0509  0.5270  0.6703
14401TIP3    H143146   7.852   5.066   2.722 -0.7612 -0.5660 -0.9085
14401TIP3    H243147   7.876   4.982   2.846 -1.4685  1.0238  0.3407
14402TIP3   OH243148   1.430   5.506   1.283 -0.6304 -0.1780  0.1761
14402TIP3    H143149   1.469   5.593   1.284 -3.3684  1.2405  3.0761
14402TIP3    H243150   1.405   5.491   1.192  2.0029  0.9427 -0.8195
14403TIP3   OH243151   7.613   4.959   2.385  0.4755  0.2924 -0.3213
14403TIP3    H143152   7.656   5.001   2.310  1.3285 -0.8618 -0.5187
14403TIP3    H243153   7.623   4.865   2.368 -0.3020  0.0134  0.6923
14404TIP3   OH243154   1.892   3.636   6.739  0.3776 -0.2706 -0.0107
14404TIP3    H143155   1.977   3.597   6.716 -1.3136 -3.0721 -2.1777
14404TIP3    H243156   1.838   3.562   6.764 -2.3795  0.8970 -1.9567
14405TIP3   OH243157   4.260   5.211   3.603  0.1327  0.2533 -0.3488
14405TIP3    H143158   4.208   5.148   3.654  0.0780  0.7823  0.2551
14405TIP3    H243159   4.228   5.296   3.629  2.1581  0.6777  1.0413
14406TIP3   OH243160   7.932   2.304   4.544 -0.6060  0.1084  0.1529
14406TIP3    H143161   7.982   2.313   4.625  1.4035  2.1415 -1.1689
14406TIP3    H243162   7.974   2.232   4.497  0.3490  0.9895 -0.3992
14407TIP3   OH243163   5.750   1.633   0.490 -0.3696  0.4378  0.4461
14407TIP3    H143164   5.675   1.592   0.534 -1.0124  1.7208  0.5687
14407TIP3    H243165   5.766   1.713   0.539 -0.4955  1.4246 -1.0522
14408TIP3   OH243166   2.554   2.913   1.399 -0.1618 -0.2702 -0.0417
14408TIP3    H143167   2.535   2.998   1.438  0.3282  0.1502 -0.6972
14408TIP3    H243168   2.469   2.876   1.379 -0.3701  0.6234 -0.9082
14409TIP3   OH243169   1.541   7.283   2.627  0.0640 -0.1123 -0.1826
14409TIP3    H143170   1.458   7.322   2.601  0.2703  0.2767 -0.2609
14409TIP3    H243171   1.608   7.334   2.581  0.5304  1.4521  2.0393
14410TIP3   OH243172   7.992   0.226   5.856 -0.2380 -0.0418 -0.1906
14410TIP3    H143173   7.942   0.207   5.777  0.2914  2.4114 -1.1905
14410TIP3    H243174   7.960   0.310   5.886  0.6739 -0.1911  1.3205
14411TIP3   OH243175   2.617   6.392   3.945  0.2586  1.0425 -0.0876
14411TIP3    H143176   2.579   6.386   3.857  1.7635  0.7548 -0.7399
14411TIP3    H243177   2.638   6.484   3.956  0.6830  0.9695 -0.2925
14412TIP3   OH243178   2.035   5.563   3.906  0.2879  0.4663  0.3753
14412TIP3    H143179   2.081   5.506   3.967 -0.5746 -2.0356 -1.1859
14412TIP3    H243180   2.093   5.570   3.830 -0.4230  0.1089 -0.2097
14413TIP3   OH243181   4.921   1.085   0.734 -0.5425 -0.1908  0.0045
14413TIP3    H143182   4.897   0.997   0.763  0.4540 -0.2170  0.8508
14413TIP3    H243183   4.858   1.142   0.778 -0.5227 -0.4161  0.3370
14414TIP3   OH243184   7.788   5.415   2.951 -0.2716  0.7425 -0.1095
14414TIP3    H143185   7.868   5.441   2.996 -0.6541  1.1976  0.3313
14414TIP3    H243186   7.805   5.327   2.920  0.3217  0.7519  0.1774
14415TIP3   OH243187   3.014   1.470   4.549  0.3938  0.8969  0.1083
14415TIP3    H143188   3.061   1.529   4.490  0.3674  0.8603  0.0509
14415TIP3    H243189   2.926   1.464   4.512  0.6498  0.1086 -0.3929
14416TIP3   OH243190   8.150   4.165   2.309  0.0991  0.1661 -0.6700
14416TIP3    H143191   8.101   4.199   2.234 -0.0102  1.2771 -0.1296
14416TIP3    H243192   8.090   4.176   2.383  0.9089  0.9618 -0.0992
14417TIP3   OH243193   2.258   5.138   1.183  0.0054  0.1456  0.0691
14417TIP3    H143194   2.218   5.074   1.124 -1.2921  2.6668 -2.0543
14417TIP3    H243195   2.190   5.157   1.248  0.3838 -0.5739  0.6885
14418TIP3   OH243196   7.858   5.044   0.626 -0.7270  0.6796 -0.5056
14418TIP3    H143197   7.888   5.120   0.577 -1.9185  2.4157  1.3009
14418TIP3    H243198   7.763   5.057   0.632 -1.2402 -1.9265 -1.6524
14419TIP3   OH243199   6.394   2.700   3.433 -0.5347 -0.4112 -0.2016
14419TIP3    H143200   6.308   2.672   3.403 -0.3651  0.2273 -1.3492
14419TIP3    H243201   6.377   2.757   3.508 -1.2585  1.2481 -1.5712
14420TIP3   OH243202   3.196   4.255   4.781 -0.4490  0.5892  0.0315
14420TIP3    H143203   3.163   4.285   4.696 -0.3833 -0.8985 -0.5424
14420TIP3    H243204   3.232   4.168   4.764  1.6431  1.1672  1.1241
14421TIP3   OH243205   3.716   4.308   2.439 -0.3612  0.9445 -0.1452
14421TIP3    H143206   3.696   4.214   2.443 -1.6960  1.1133 -1.5657
14421TIP3    H243207   3.777   4.316   2.365  0.5667  1.0901  0.6260
14422TIP3   OH243208   0.464   7.805   1.232 -0.3709  0.5887 -0.5204
14422TIP3    H143209   0.490   7.857   1.308 -0.5453  0.5988 -0.4670
14422TIP3    H243210   0.375   7.775   1.252 -0.8817  1.5838 -1.2385
14423TIP3   OH243211   2.016   3.214   5.060  0.2253 -0.3608  0.1870
14423TIP3    H143212   1.947   3.186   5.000  1.2676 -0.6929 -0.9076
14423TIP3    H243213   1.976   3.283   5.112 -0.9368 -0.5659 -0.4031
14424TIP3   OH243214   5.306   7.483   4.800 -0.0652 -0.0482 -0.2938
14424TIP3    H143215   5.347   7.524   4.724 -0.3584 -0.0842 -0.4728
14424TIP3    H243216   5.372   7.488   4.869  0.2339 -0.0963 -0.5768
14425TIP3   OH243217   3.293   2.479   0.493  0.2362 -0.0842 -0.9671
14425TIP3    H143218   3.316   2.530   0.415  0.1770  0.5578 -0.5616
14425TIP3    H243219   3.198   2.483   0.497  0.3192  1.2751  0.0698
14426TIP3   OH243220   4.821   7.524   2.871  0.8673  0.0755  0.1422
14426TIP3    H143221   4.730   7.555   2.863  0.5688 -0.7068  0.4017
14426TIP3    H243222   4.872   7.585   2.818  0.3332  1.1441  0.8295
14427TIP3   OH243223   1.215   6.697   6.766  0.2357  0.0013  0.1315
14427TIP3    H143224   1.181   6.646   6.693 -1.8027  0.7159  0.5137
14427TIP3    H243225   1.274   6.638   6.812 -0.2294 -1.2029 -0.7745
14428TIP3   OH243226   6.606   2.152   5.811  0.2261 -0.5105  0.2582
14428TIP3    H143227   6.664   2.210   5.860  0.2448 -0.4154  0.1228
14428TIP3    H243228   6.588   2.080   5.872  1.6884 -1.3224 -0.2141
14429TIP3   OH243229   1.611   2.549   1.739  0.1831 -0.1181  0.0204
14429TIP3    H143230   1.543   2.614   1.754  2.0888  1.5696  2.2605
14429TIP3    H243231   1.653   2.577   1.657 -2.1557 -1.6476 -1.8280
14430TIP3   OH243232   0.454   3.080   3.897 -0.3261  0.4653  0.0909
14430TIP3    H143233   0.521   3.100   3.833 -0.2970  2.1489  0.5878
14430TIP3    H243234   0.371   3.091   3.850 -0.2929  1.1990  0.1869
14431TIP3   OH243235   7.341   1.079   6.736  0.3455  0.2517  0.7629
14431TIP3    H143236   7.365   1.159   6.782  2.4917  0.9223 -1.2859
14431TIP3    H243237   7.246   1.075   6.742  0.2314  2.6536  1.4084
14432TIP3   OH243238   6.530   6.947   0.250 -0.2854  0.2166 -0.1486
14432TIP3    H143239   6.510   6.921   0.160  0.0722 -0.5950  0.0063
14432TIP3    H243240   6.576   6.873   0.287  1.2237  1.2627  0.1399
14433TIP3   OH243241   1.497   7.285   4.601  0.2749  0.3697 -0.5367
14433TIP3    H143242   1.508   7.367   4.552 -1.8991  0.4829 -0.9401
14433TIP3    H243243   1.429   7.237   4.553 -0.9566 -0.1305  1.5665
14434TIP3   OH243244   3.666   6.519   2.981  0.2246 -0.1745 -0.0278
14434TIP3    H143245   3.724   6.527   2.905 -0.3701 -1.4273 -0.6581
14434TIP3    H243246   3.618   6.438   2.965  0.0455 -0.4444  1.6757
14435TIP3   OH243247   0.436   5.867   4.769 -0.0106  0.2614  0.2770
14435TIP3    H143248   0.452   5.863   4.863  2.4344  0.9638 -0.0467
14435TIP3    H243249   0.450   5.778   4.737  1.2941  0.4345  0.3174
14436TIP3   OH243250   5.380   7.299   5.168  0.5646  0.1195  0.1800
14436TIP3    H143251   5.399   7.248   5.247  0.9367  0.7513  0.5053
14436TIP3    H243252   5.336   7.378   5.199  0.9591  0.5062 -0.2047
14437TIP3   OH243253   4.405   6.595   3.822  0.2732 -0.3033 -0.0276
14437TIP3    H143254   4.333   6.593   3.884 -0.1821 -0.0249 -0.5407
14437TIP3    H243255   4.366   6.627   3.741  1.0919  0.3987 -0.1591
14438TIP3   OH243256   0.281   5.068   3.996  0.0081  0.1676  0.2348
14438TIP3    H143257   0.213   5.134   3.983 -1.0462 -0.5571  1.6763
14438TIP3    H243258   0.277   5.012   3.919 -1.5856 -0.2975  0.6220
14439TIP3   OH243259   2.989   2.471   4.009 -0.4123 -0.4197 -0.2647
14439TIP3    H143260   2.999   2.445   3.917  1.4170 -2.4949  0.4184
14439TIP3    H243261   2.975   2.389   4.056 -0.5106  0.5027  1.4168
14440TIP3   OH243262   4.372   2.374   5.478 -0.2662 -0.5857 -0.0432
14440TIP3    H143263   4.391   2.417   5.395  0.7349 -2.2343 -0.7218
14440TIP3    H243264   4.458   2.346   5.511 -0.8439 -1.8113  0.4738
14441TIP3   OH243265   2.264   2.655   5.896 -0.4095  0.4059 -0.3033
14441TIP3    H143266   2.283   2.737   5.850  0.1780  0.2081 -0.4302
14441TIP3    H243267   2.347   2.607   5.894  0.2197  1.1846  2.5967
14442TIP3   OH243268   1.701   6.856   1.893 -0.0647 -0.3816  0.0817
14442TIP3    H143269   1.794   6.856   1.868 -0.3932 -2.0611 -1.3907
14442TIP3    H243270   1.665   6.780   1.847 -2.6182  1.3995 -1.0953
14443TIP3   OH243271   7.651   4.094   3.702  0.1964  0.0946 -0.3884
14443TIP3    H143272   7.727   4.093   3.760  1.0660  0.9529 -1.4668
14443TIP3    H243273   7.576   4.080   3.760  1.2141 -1.6110  0.5931
14444TIP3   OH243274   5.210   3.789   0.580 -0.0919  0.2765  0.4032
14444TIP3    H143275   5.226   3.863   0.522  0.2524  1.4658  1.9338
14444TIP3    H243276   5.287   3.787   0.637 -1.7126  1.0524  2.7412
14445TIP3   OH243277   6.498   7.795   2.348 -0.2052 -0.2410 -0.1081
14445TIP3    H143278   6.402   7.802   2.348 -0.1445  0.9466  0.8152
14445TIP3    H243279   6.515   7.701   2.337 -1.4982 -0.6263  0.9073
14446TIP3   OH243280   4.051   3.867   3.908 -0.3323 -0.3523 -1.3695
14446TIP3    H143281   3.982   3.814   3.948  1.2156 -1.0009  0.6031
14446TIP3    H243282   4.109   3.804   3.866 -0.9384  0.1985 -3.1430
14447TIP3   OH243283   2.577   3.042   3.464 -0.6843  0.6874 -0.1581
14447TIP3    H143284   2.524   2.987   3.407  0.0685  0.0872 -0.2922
14447TIP3    H243285   2.587   2.991   3.545 -0.8240  1.0651  0.1045
14448TIP3   OH243286   3.645   4.649   0.729 -0.3064  0.3486  0.8453
14448TIP3    H143287   3.677   4.740   0.724  0.2851  0.0617 -2.0190
14448TIP3    H243288   3.581   4.651   0.801 -0.2730  3.0093  0.9276
14449TIP3   OH243289   2.322   7.145   4.754  0.4073 -0.7675  0.0311
14449TIP3    H143290   2.291   7.205   4.686 -1.9923  0.4288  2.0409
14449TIP3    H243291   2.416   7.137   4.737  0.1140  0.3844 -2.6803
14450TIP3   OH243292   1.125   2.909   5.548  0.1656 -0.4216  0.6096
14450TIP3    H143293   1.047   2.911   5.492 -1.5860  0.0236  2.8878
14450TIP3    H243294   1.134   2.817   5.572  0.0127 -0.4057  0.7356
14451TIP3   OH243295   3.582   5.836   2.052 -0.0094  0.5222 -0.1123
14451TIP3    H143296   3.587   5.921   2.007  1.2423 -0.6926 -2.4331
14451TIP3    H243297   3.556   5.774   1.984  0.7990 -1.2394  1.1220
14452TIP3   OH243298   5.057   4.545   0.288  0.1155 -0.5363 -0.2734
14452TIP3    H143299   5.048   4.612   0.356 -0.5850 -2.9625  2.1668
14452TIP3    H243300   5.111   4.588   0.221  0.3333  2.1995  1.4683
14453TIP3   OH243301   6.134   5.984   3.994 -0.7069  0.2071 -0.0248
14453TIP3    H143302   6.099   5.918   3.935  2.4804 -0.9872 -0.7631
14453TIP3    H243303   6.145   5.938   4.077 -0.9343  0.5765  0.2123
14454TIP3   OH243304   3.304   2.500   5.299 -0.1021  0.5850  0.2259
14454TIP3    H143305   3.390   2.532   5.325  0.4335  1.2556 -2.1098
14454TIP3    H243306   3.310   2.489   5.204 -2.7382  1.0903 -0.0790
14455TIP3   OH243307   7.263   1.870   2.348  0.1408  0.0100 -0.8131
14455TIP3    H143308   7.337   1.845   2.404 -0.5489 -0.6876 -0.1902
14455TIP3    H243309   7.187   1.867   2.406 -0.4396  0.2963 -1.5468
14456TIP3   OH243310   6.671   5.598   0.180  0.6981 -0.0123 -0.3041
14456TIP3    H143311   6.651   5.518   0.133  1.5737  0.5325 -1.6662
14456TIP3    H243312   6.758   5.623   0.149  2.0306 -0.3924  2.7087
14457TIP3   OH243313   6.695   4.824   1.478  0.2221  0.0751 -0.1626
14457TIP3    H143314   6.653   4.796   1.396  0.3191 -0.5590 -0.0018
14457TIP3    H243315   6.623   4.856   1.532  0.1022  0.1095 -0.3402
14458TIP3   OH243316   7.598   0.087   2.987 -0.0134  0.2614 -0.8566
14458TIP3    H143317   7.692   0.082   2.968 -0.0425 -2.6441 -0.7438
14458TIP3    H243318   7.592   0.074   3.082 -0.5247 -0.7444 -1.0040
14459TIP3   OH243319   2.380   7.301   0.927 -0.2093 -0.1378 -0.4089
14459TIP3    H143320   2.474   7.292   0.911 -0.1967 -0.0324 -0.3897
14459TIP3    H243321   2.346   7.212   0.915  0.0145 -0.3423  0.3906
14460TIP3   OH243322   8.123   3.818   6.742 -0.2653 -0.4034 -0.0640
14460TIP3    H143323   8.205   3.768   6.741 -0.7358 -1.1962 -0.2949
14460TIP3    H243324   8.092   3.811   6.832 -0.6200 -1.0353 -0.2270
14461TIP3   OH243325   5.096   5.073   5.622  0.0517 -0.0648 -0.4962
14461TIP3    H143326   5.116   5.015   5.548 -1.8123 -1.0518 -0.3028
14461TIP3    H243327   5.040   5.021   5.679 -0.6970  1.5425  0.3154
14462TIP3   OH243328   8.150   0.720   4.130  0.0713 -0.0254 -0.4110
14462TIP3    H143329   8.079   0.741   4.070  1.9555 -0.7095 -3.0838
14462TIP3    H243330   8.127   0.633   4.164 -1.1474  0.4852  0.1540
14463TIP3   OH243331   3.955   5.366   1.574 -0.3564 -0.4082  0.2984
14463TIP3    H143332   3.915   5.284   1.544  0.4220 -0.3977 -0.8089
14463TIP3    H243333   3.930   5.431   1.509 -0.3710  0.0927  0.7898
14464TIP3   OH243334   3.340   7.735   0.070  0.0824 -0.5431  0.1526
14464TIP3    H143335   3.297   7.692  -0.004 -0.9330 -0.3495  0.6108
14464TIP3    H243336   3.382   7.812   0.032  2.0411 -1.9344 -0.7093
14465TIP3   OH243337   4.732   7.559   6.428  0.4278  0.5635  0.1089
14465TIP3    H143338   4.783   7.531   6.505  0.4191  0.6958  0.1625
14465TIP3    H243339   4.793   7.613   6.378  1.0146 -0.9336 -0.8739
14466TIP3   OH243340   1.320   3.044   4.096  0.4692 -0.6741 -0.1348
14466TIP3    H143341   1.304   2.981   4.166 -0.3296 -1.1338 -0.7089
14466TIP3    H243342   1.353   3.122   4.140 -0.7563 -0.6857  0.8387
14467TIP3   OH243343   1.152   2.943   2.800 -1.0555  0.2856 -0.3180
14467TIP3    H143344   1.199   2.898   2.730 -1.4250  0.8672 -0.9471
14467TIP3    H243345   1.096   2.875   2.838  2.0192 -1.1335  2.1380
14468TIP3   OH243346   7.098   7.816   2.105 -0.0076 -0.2790  0.1772
14468TIP3    H143347   7.064   7.752   2.043 -0.9341  0.6059 -0.2445
14468TIP3    H243348   7.050   7.800   2.186 -0.4609  0.0861 -0.0196
14469TIP3   OH243349   7.005   6.004   3.864 -0.0629  0.2626 -0.2298
14469TIP3    H143350   7.027   6.095   3.846 -0.0255  0.7552  2.0644
14469TIP3    H243351   7.044   5.955   3.792  1.2848  1.9033 -0.6689
14470TIP3   OH243352   1.835   1.333   0.032  0.0733  0.5995 -0.1784
14470TIP3    H143353   1.880   1.249   0.035 -0.6356  0.2534  1.7190
14470TIP3    H243354   1.784   1.330  -0.049  2.4548  0.5322 -1.7941
14471TIP3   OH243355   1.435   1.988   3.024  0.0925 -0.5993  0.0493
14471TIP3    H143356   1.497   1.981   2.951 -0.0998 -1.8407 -0.0099
14471TIP3    H243357   1.448   1.907   3.074 -2.6894 -1.7504 -0.9327
14472TIP3   OH243358   5.966   2.557   1.185  0.0984  0.0282  0.2207
14472TIP3    H143359   5.996   2.645   1.206  1.1385 -0.4902  1.0050
14472TIP3    H243360   5.914   2.568   1.105 -0.0208  1.3792  0.4583
14473TIP3   OH243361   3.459   7.536   6.732 -0.2421 -0.0376 -0.0066
14473TIP3    H143362   3.430   7.461   6.680  0.3586 -1.4740  1.6136
14473TIP3    H243363   3.554   7.526   6.738 -0.1499  0.8677  0.2342
14474TIP3   OH243364   1.731   5.400   6.257  0.2732 -0.6682  0.0224
14474TIP3    H143365   1.779   5.447   6.325  1.0766 -0.2260 -0.8382
14474TIP3    H243366   1.645   5.442   6.256  0.5091 -0.1670  0.2484
14475TIP3   OH243367   1.832   3.583   0.547 -0.2889 -0.6254  0.3697
14475TIP3    H143368   1.751   3.551   0.506  0.8649 -0.6345 -2.1019
14475TIP3    H243369   1.853   3.663   0.499  0.5079  0.0981  1.8537
14476TIP3   OH243370   8.174   3.610   4.173 -0.1338  0.5330  0.1094
14476TIP3    H143371   8.095   3.568   4.140 -1.5312  3.3597 -0.4408
14476TIP3    H243372   8.156   3.629   4.265 -0.0507  1.0794  0.0160
14477TIP3   OH243373   5.031   2.376   5.781 -0.1081  0.2536  0.8024
14477TIP3    H143374   5.108   2.399   5.833 -1.2303 -0.8946  3.1018
14477TIP3    H243375   5.067   2.338   5.700  1.7069  0.5044  1.4437
14478TIP3   OH243376   7.793   1.416   3.142 -0.5667 -0.0780 -0.0075
14478TIP3    H143377   7.876   1.395   3.184 -0.6905 -1.6871 -0.5000
14478TIP3    H243378   7.784   1.352   3.072 -2.3859 -0.1920  0.2584
14479TIP3   OH243379   1.193   0.718   0.892  0.0134 -0.1166  0.1049
14479TIP3    H143380   1.121   0.678   0.942  0.6736 -1.4730  0.0143
14479TIP3    H243381   1.157   0.731   0.804 -1.4129  2.9760  0.9801
14480TIP3   OH243382   3.090   7.432   6.248 -0.3660 -0.0394  0.0186
14480TIP3    H143383   3.012   7.451   6.299  0.5161  1.1641  0.9800
14480TIP3    H243384   3.083   7.339   6.228 -2.2440  0.1297 -0.3007
14481TIP3   OH243385   6.819   5.028   2.251  1.0010  0.5004  0.0754
14481TIP3    H143386   6.747   4.965   2.243 -1.2220  2.7996  0.3828
14481TIP3    H243387   6.870   4.998   2.326  1.3180 -2.0330 -1.0551
14482TIP3   OH243388   1.691   4.783   5.720  0.0176 -0.4236 -0.0128
14482TIP3    H143389   1.631   4.736   5.778  0.3834 -1.4576 -0.4539
14482TIP3    H243390   1.770   4.729   5.718  0.1767 -0.1813 -1.1167
14483TIP3   OH243391   6.073   3.389   1.912  0.0591  0.2716  0.7100
14483TIP3    H143392   6.141   3.457   1.916  0.2779  0.0716  0.3964
14483TIP3    H243393   6.077   3.347   1.998 -0.5298  1.0898  1.1439
14484TIP3   OH243394   5.124   2.175   5.605  0.0104 -0.4956  0.2647
14484TIP3    H143395   5.115   2.143   5.695 -0.6029 -0.1419  0.3361
14484TIP3    H243396   5.042   2.149   5.562  0.1016 -0.2502 -0.0630
14485TIP3   OH243397   1.014   1.838   5.352  0.1242  0.3285  0.1122
14485TIP3    H143398   1.084   1.902   5.337  0.0070  1.0212  2.2283
14485TIP3    H243399   1.054   1.753   5.330  1.7817  0.6704  1.5951
14486TIP3   OH243400   5.850   1.877   2.525  0.3607  0.1110 -0.3392
14486TIP3    H143401   5.839   1.894   2.431  4.0372 -0.6055 -1.0380
14486TIP3    H243402   5.857   1.964   2.564  0.7902  0.4012 -1.0394
14487TIP3   OH243403   6.718   6.121   0.480  0.3007  0.1156  0.7760
14487TIP3    H143404   6.665   6.134   0.558 -0.1363  2.0626  0.2071
14487TIP3    H243405   6.781   6.053   0.505  0.7439  1.2809  3.1011
14488TIP3   OH243406   5.683   5.232   2.190 -0.4302  0.3922 -0.1983
14488TIP3    H143407   5.645   5.229   2.278  0.6629 -0.6511  0.2756
14488TIP3    H243408   5.616   5.274   2.136 -0.9395  1.4644  1.2135
14489TIP3   OH243409   5.723   0.186   0.512  0.0603 -0.7533  0.1621
14489TIP3    H143410   5.762   0.264   0.471 -0.1265 -1.1191 -0.7476
14489TIP3    H243411   5.732   0.118   0.445  0.1277 -1.4912  0.9053
14490TIP3   OH243412   0.191   6.120   2.539  0.6161 -0.2465 -0.0463
14490TIP3    H143413   0.175   6.042   2.592 -2.9782  1.5840  1.9730
14490TIP3    H243414   0.137   6.109   2.461  1.2235 -0.3633 -0.4561
14491TIP3   OH243415   0.936   5.249   5.587 -0.0493  0.8256 -0.5599
14491TIP3    H143416   1.002   5.277   5.523 -1.0828  1.4790 -1.3852
14491TIP3    H243417   0.921   5.157   5.566  1.4504  0.3162  0.4329
14492TIP3   OH243418   4.862   6.887   5.820  0.0148  0.3665  0.3805
14492TIP3    H143419   4.930   6.861   5.758 -0.5213  0.2494 -0.1597
14492TIP3    H243420   4.825   6.967   5.784 -1.4455 -0.6039 -0.3568
14493TIP3   OH243421   8.035   6.525   5.475  0.0890 -0.3208 -0.5042
14493TIP3    H143422   8.014   6.554   5.564  0.7559 -0.5548 -0.2707
14493TIP3    H243423   8.120   6.482   5.483  0.8714  0.9853 -1.5267
14494TIP3   OH243424   2.082   3.511   6.521 -0.3427 -0.5758 -0.1853
14494TIP3    H143425   2.089   3.602   6.549 -0.6157 -1.2543  2.3039
14494TIP3    H243426   2.013   3.512   6.455  0.1000  1.0991 -0.6775
14495TIP3   OH243427   8.139   3.269   3.474  0.3079  0.3456 -0.3811
14495TIP3    H143428   8.101   3.287   3.388  2.6997  0.6540 -1.4826
14495TIP3    H243429   8.144   3.355   3.516 -1.6619  0.0814  0.4893
14496TIP3   OH243430   6.889   4.585   4.281 -0.1200 -0.4279  0.4075
14496TIP3    H143431   6.872   4.579   4.187 -0.5465  1.2645  0.3487
14496TIP3    H243432   6.967   4.532   4.295  0.1338 -0.4334 -0.9517
14497TIP3   OH243433   1.457   1.818   3.502 -0.2852  0.0201 -0.2709
14497TIP3    H143434   1.492   1.744   3.552 -0.0164  0.5891  0.4069
14497TIP3    H243435   1.534   1.866   3.473 -0.4671  0.4482 -0.0588
14498TIP3   OH243436   1.352   5.249   4.118 -1.1080 -0.1507  0.1528
14498TIP3    H143437   1.399   5.244   4.035  0.7236  1.0868  1.0541
14498TIP3    H243438   1.397   5.187   4.176 -1.6547 -0.1799  0.5628
14499TIP3   OH243439   8.132   7.645   4.737 -0.3262  0.1651  0.6359
14499TIP3    H143440   8.095   7.558   4.750  3.1026 -1.4374  0.7216
14499TIP3    H243441   8.099   7.673   4.651 -1.0285 -1.4572  0.3463
14500TIP3   OH243442   7.041   6.024   1.991  0.5095  0.3234  0.1358
14500TIP3    H143443   6.994   6.074   1.925  0.2604 -0.6784 -0.4707
14500TIP3    H243444   7.068   6.089   2.056  2.4820  1.7108 -1.8921
14501TIP3   OH243445   6.010   7.605   5.812 -0.1287 -0.5382  0.0601
14501TIP3    H143446   6.087   7.650   5.846 -0.3239 -0.8207  0.8822
14501TIP3    H243447   6.017   7.516   5.843 -1.2335 -0.3593  0.8993
14502TIP3   OH243448   6.174   3.020   1.902  0.5715 -0.4499  0.4193
14502TIP3    H143449   6.162   3.049   1.812  0.1288 -1.5589  0.0998
14502TIP3    H243450   6.267   3.035   1.920  1.6249 -3.6391 -1.5592
14503TIP3   OH243451   5.165   2.402   6.501 -0.0616  0.2461 -0.3049
14503TIP3    H143452   5.217   2.340   6.552 -1.2182 -0.0700  0.5361
14503TIP3    H243453   5.087   2.353   6.477  0.9304  0.0133 -3.4355
14504TIP3   OH243454   8.059   0.856   2.648 -0.3698 -0.1164  0.1810
14504TIP3    H143455   8.042   0.781   2.590 -1.4331  0.4234 -0.2338
14504TIP3    H243456   8.014   0.834   2.729 -2.4014  0.8907 -0.5963
14505TIP3   OH243457   7.836   3.734   5.387  0.8035 -0.0499 -0.7153
14505TIP3    H143458   7.827   3.802   5.320  0.3018  1.0099  0.3877
14505TIP3    H243459   7.922   3.749   5.425  0.4017  0.4637  0.0253
14506TIP3   OH243460   5.682   6.415   1.525 -0.3122 -0.3713 -1.0133
14506TIP3    H143461   5.725   6.499   1.538  0.2538 -0.4364 -2.3021
14506TIP3    H243462   5.736   6.353   1.573  0.6322 -0.3386 -2.0092
14507TIP3   OH243463   2.960   1.220   5.520  0.0615  0.1791 -0.0868
14507TIP3    H143464   2.992   1.214   5.610  2.6810  0.4436 -0.9102
14507TIP3    H243465   2.931   1.310   5.510 -0.6340  0.0402  0.5875
14508TIP3   OH243466   6.056   6.333   3.029  0.2140  0.5131 -0.2555
14508TIP3    H143467   6.099   6.407   2.986  1.8662 -0.2740 -0.0339
14508TIP3    H243468   6.090   6.336   3.119 -1.0007  0.4608  0.2179
14509TIP3   OH243469   4.014   4.958   2.985 -0.4413 -0.4494  0.3464
14509TIP3    H143470   4.032   4.985   3.075 -0.5503 -1.0821  0.5690
14509TIP3    H243471   3.970   5.033   2.945 -1.2037 -0.4851  1.0909
14510TIP3   OH243472   5.954   6.887   3.963 -0.0484 -0.0796  0.3402
14510TIP3    H143473   5.940   6.836   3.884 -0.4446  1.6945 -0.7878
14510TIP3    H243474   5.879   6.866   4.019 -1.6178  1.1970 -1.1866
14511TIP3   OH243475   7.519   6.067   4.961 -0.0457 -0.2963 -0.5322
14511TIP3    H143476   7.592   6.111   5.004  0.8066 -1.4379 -0.7551
14511TIP3    H243477   7.560   6.018   4.890 -0.8506 -1.8999  0.0589
14512TIP3   OH243478   2.386   6.902   5.319  0.0491 -0.0159  0.4712
14512TIP3    H143479   2.458   6.937   5.372  0.4344 -0.9671  0.6006
14512TIP3    H243480   2.375   6.965   5.248  0.4294  0.5816  0.9329
14513TIP3   OH243481   1.017   3.250   5.634  0.3818  0.1197 -0.3253
14513TIP3    H143482   0.930   3.271   5.600  1.2971  0.9704 -2.3681
14513TIP3    H243483   1.001   3.195   5.710 -1.9270 -0.0634 -0.8635
14514TIP3   OH243484   0.866   1.940   1.231 -0.2857  0.4019 -0.3704
14514TIP3    H143485   0.962   1.942   1.233 -0.2882  0.3109  0.0959
14514TIP3    H243486   0.844   1.851   1.261 -0.5497  1.0830  1.5912
14515TIP3   OH243487   5.130   3.117   3.369  0.3946 -0.6895  0.2821
14515TIP3    H143488   5.040   3.119   3.338 -0.2466 -1.7822  1.9408
14515TIP3    H243489   5.180   3.079   3.296 -0.5143 -0.3409 -0.5411
14516TIP3   OH243490   3.757   2.801   4.655  0.4507  0.7113 -0.2858
14516TIP3    H143491   3.762   2.724   4.598  0.9960 -1.5040  2.5490
14516TIP3    H243492   3.842   2.844   4.646  0.5464  0.3768 -1.0679
14517TIP3   OH243493   2.907   3.716   4.112 -0.4515  0.0036  0.2643
14517TIP3    H143494   2.812   3.709   4.120 -0.7630 -0.3507 -2.6633
14517TIP3    H243495   2.930   3.654   4.043  1.8177  0.6604  0.3476
14518TIP3   OH243496   7.192   4.680   3.989  0.0375 -0.3115  0.8341
14518TIP3    H143497   7.238   4.689   4.073  2.3540 -0.3391 -0.3580
14518TIP3    H243498   7.173   4.586   3.982  0.9746 -0.5157  0.8089
14519TIP3   OH243499   3.146   5.638   6.166  0.3483 -0.7523  0.9103
14519TIP3    H143500   3.068   5.598   6.205  0.4109  0.1317  2.0020
14519TIP3    H243501   3.208   5.566   6.155 -0.3294 -1.3242  0.7751
14520TIP3   OH243502   2.401   6.825   1.354 -0.1210  0.0915  0.6301
14520TIP3    H143503   2.412   6.919   1.362  0.9227  0.3552 -2.7005
14520TIP3    H243504   2.307   6.812   1.341  0.0319  1.0659 -1.9382
14521TIP3   OH243505   7.306   1.384   6.596 -0.1215 -0.5174  0.1671
14521TIP3    H143506   7.279   1.350   6.510 -2.0249  0.5698  0.2826
14521TIP3    H243507   7.252   1.336   6.659  0.3470 -0.3905  0.6790
14522TIP3   OH243508   2.423   7.577   5.014  0.1255 -0.0569 -0.1941
14522TIP3    H143509   2.388   7.488   5.012 -0.9554  0.3536 -0.5807
14522TIP3    H243510   2.426   7.603   4.922  0.6799  0.2140 -0.1009
14523TIP3   OH243511   4.900   1.534   3.095  0.1983 -0.2048  0.1075
14523TIP3    H143512   4.969   1.471   3.115  2.4074  1.6850 -1.1642
14523TIP3    H243513   4.888   1.526   3.000 -1.4890 -0.5725  0.3088
14524TIP3   OH243514   1.371   6.377   4.379 -0.1048  0.1198 -0.1258
14524TIP3    H143515   1.301   6.441   4.370 -0.1764  0.0800  0.1432
14524TIP3    H243516   1.379   6.363   4.473 -0.9422 -1.1987 -0.2313
14525TIP3   OH243517   1.164   5.016   6.045 -0.4106  0.2530 -0.1572
14525TIP3    H143518   1.258   4.999   6.056 -0.4321 -0.1853 -0.6011
14525TIP3    H243519   1.151   5.020   5.950 -0.5429  2.0769 -0.0876
14526TIP3   OH243520   3.543   2.835   5.992 -0.2757  0.0543  0.8494
14526TIP3    H143521   3.500   2.762   5.947  2.4864 -1.7317  0.8831
14526TIP3    H243522   3.559   2.899   5.923 -0.1360 -0.6806  0.1791
14527TIP3   OH243523   4.291   2.382   1.880 -0.3141  0.0828 -0.3688
14527TIP3    H143524   4.335   2.298   1.864 -0.7292 -0.3505  0.6873
14527TIP3    H243525   4.198   2.360   1.884 -0.3469  0.3759  1.1110
14528TIP3   OH243526   4.965   6.700   3.960 -0.2585  0.1560  0.2934
14528TIP3    H143527   4.916   6.782   3.962  1.7611  1.4416 -0.0487
14528TIP3    H243528   4.914   6.644   3.902 -1.5603  1.2376  0.3231
14529TIP3   OH243529   0.923   0.150   4.284 -0.4987  0.8122 -0.1152
14529TIP3    H143530   0.975   0.228   4.262 -0.7419  0.8243 -0.6670
14529TIP3    H243531   0.836   0.185   4.304  0.1848  1.0568  3.0362
14530TIP3   OH243532   2.878   4.203   4.245 -0.6474  0.0407  0.5249
14530TIP3    H143533   2.818   4.131   4.225 -1.9039  1.1264  0.2157
14530TIP3    H243534   2.919   4.224   4.161 -2.4053  1.4914 -0.0555
14531TIP3   OH243535   6.084   0.295   0.373 -0.3721  0.3487 -0.2738
14531TIP3    H143536   6.122   0.340   0.448 -2.5060 -2.7665  3.0543
14531TIP3    H243537   5.994   0.326   0.369 -0.8319 -0.9237 -0.2611
14532TIP3   OH243538   0.353   3.473   3.113 -0.2476  0.4141  0.3074
14532TIP3    H143539   0.298   3.528   3.057  0.2703  2.2642  1.5160
14532TIP3    H243540   0.311   3.478   3.199 -0.1585 -1.0903  0.4576
14533TIP3   OH243541   7.187   3.269   6.314  0.0920  0.5944 -0.2807
14533TIP3    H143542   7.209   3.192   6.261 -0.7393  0.5173 -0.5272
14533TIP3    H243543   7.142   3.327   6.254  0.7437  1.3048 -0.1012
14534TIP3   OH243544   7.358   3.833   3.364  0.4507  0.3091 -0.3441
14534TIP3    H143545   7.336   3.740   3.367 -0.9612  0.6639  2.3876
14534TIP3    H243546   7.275   3.878   3.347  0.6676  1.1756  0.7515
14535TIP3   OH243547   2.592   4.437   0.990 -0.3318  0.2152  0.0444
14535TIP3    H143548   2.566   4.354   0.951 -1.2076  1.6228 -2.6089
14535TIP3    H243549   2.545   4.440   1.074  0.6352 -2.3981  0.7605
14536TIP3   OH243550   0.166   5.060   0.154 -0.1667 -0.7602  0.2046
14536TIP3    H143551   0.214   4.989   0.196 -2.0430 -2.3560 -0.2292
14536TIP3    H243552   0.147   5.028   0.066  1.0814  1.3335 -0.9164
14537TIP3   OH243553   4.061   2.563   3.923 -0.1689 -0.2895 -0.3811
14537TIP3    H143554   3.993   2.569   3.856 -1.0635 -0.7625  0.4666
14537TIP3    H243555   4.143   2.567   3.874 -0.7960 -1.5948 -1.6169
14538TIP3   OH243556   1.340   3.098   0.781  0.0748  0.1029 -0.4923
14538TIP3    H143557   1.359   3.111   0.874 -1.1146  0.2573 -0.2509
14538TIP3    H243558   1.251   3.132   0.770 -0.5518 -1.6687 -1.2750
14539TIP3   OH243559   1.715   2.766   3.833  0.2835 -0.6448  0.3025
14539TIP3    H143560   1.634   2.771   3.883  0.2702  0.8448  0.1733
14539TIP3    H243561   1.782   2.804   3.891  0.5701 -0.3706 -0.1966
14540TIP3   OH243562   2.455   6.380   6.785  0.8170  1.1876 -1.4094
14540TIP3    H143563   2.433   6.456   6.839  2.6222  1.9805 -1.7071
14540TIP3    H243564   2.424   6.402   6.698 -0.3870  0.7336 -1.1066
14541TIP3   OH243565   2.003   5.351   0.322 -0.0172  0.1290  0.1877
14541TIP3    H143566   2.006   5.361   0.417 -0.6659  0.0227  0.2232
14541TIP3    H243567   2.089   5.380   0.292  0.2733 -0.0613  0.8265
14542TIP3   OH243568   0.732   1.213   1.007  0.2347  0.2868 -0.2601
14542TIP3    H143569   0.785   1.223   1.086  0.0664 -1.1061  0.0438
14542TIP3    H243570   0.792   1.180   0.940 -0.2145 -1.3619  0.1036
14543TIP3   OH243571   5.335   7.480   4.520 -0.5591  0.0722  0.1263
14543TIP3    H143572   5.415   7.533   4.520 -1.7960  2.0870 -1.5664
14543TIP3    H243573   5.336   7.435   4.435 -2.1725  1.7733 -0.8652
14544TIP3   OH243574   0.064   4.993   0.804 -0.0089  0.1830 -0.2538
14544TIP3    H143575   0.027   5.038   0.880 -2.0030 -0.0692 -1.0140
14544TIP3    H243576  -0.008   4.988   0.741  1.3568 -0.3179 -1.8641
14545TIP3   OH243577   4.692   5.453   2.916  0.1144  0.1296  0.6207
14545TIP3    H143578   4.697   5.367   2.957 -1.3612  0.0824  0.7426
14545TIP3    H243579   4.602   5.481   2.929  0.2328  1.1493 -0.5388
14546TIP3   OH243580   5.597   4.792   6.655  0.0777 -0.1134 -0.6696
14546TIP3    H143581   5.559   4.752   6.734 -1.2215 -0.3660 -1.3896
14546TIP3    H243582   5.608   4.884   6.678 -3.1551  0.5143 -1.0975
14547TIP3   OH243583   2.509   5.078   2.860 -0.0226  0.3315  0.1107
14547TIP3    H143584   2.552   5.155   2.897  1.6667 -0.5922  0.1654
14547TIP3    H243585   2.426   5.070   2.909  0.7207  0.9347  1.5115
14548TIP3   OH243586   3.808   7.737   0.574  0.3096 -0.3459  0.2609
14548TIP3    H143587   3.878   7.801   0.557  0.9416 -1.6802 -2.8948
14548TIP3    H243588   3.728   7.781   0.548  0.7473 -0.6740 -1.9284
14549TIP3   OH243589   6.122   7.747   1.776  0.3088 -0.2956 -0.1318
14549TIP3    H143590   6.174   7.816   1.738 -0.4990  0.8300  0.7313
14549TIP3    H243591   6.152   7.741   1.867 -0.4837 -0.1871  0.1502
14550TIP3   OH243592   0.746   4.480   5.240  0.4629  0.0019 -0.5719
14550TIP3    H143593   0.763   4.386   5.239 -1.2232 -0.3316 -1.5358
14550TIP3    H243594   0.814   4.516   5.296  1.4371 -1.7299 -0.5738
14551TIP3   OH243595   2.690   0.619   4.567  0.0360  0.3582  0.1651
14551TIP3    H143596   2.738   0.545   4.603 -1.7267 -1.4307 -0.9850
14551TIP3    H243597   2.603   0.614   4.608 -0.8126  0.4585 -1.5374
14552TIP3   OH243598   6.780   7.300   6.296  0.9825  0.0389  0.1046
14552TIP3    H143599   6.797   7.280   6.204  0.0797  0.0487 -0.0696
14552TIP3    H243600   6.862   7.338   6.327  1.6229 -0.8741 -0.4288
14553TIP3   OH243601   3.777   0.677   5.666 -0.3959  0.2617 -0.1684
14553TIP3    H143602   3.837   0.732   5.617 -1.0562  0.2193 -1.0454
14553TIP3    H243603   3.819   0.591   5.667  0.7917  0.8211  1.4858
14554TIP3   OH243604   2.909   2.884   5.799  0.5429  0.1404  0.0499
14554TIP3    H143605   2.949   2.797   5.809 -0.9413 -0.6822 -0.6928
14554TIP3    H243606   2.935   2.912   5.711  0.1798 -0.0411 -0.1209
14555TIP3   OH243607   3.932   2.825   3.307  0.4263  0.3196 -0.3778
14555TIP3    H143608   3.987   2.847   3.232 -0.1863 -0.0070 -0.9423
14555TIP3    H243609   3.932   2.729   3.310 -0.2713  0.3035 -0.5284
14556TIP3   OH243610   0.555   3.443   1.694 -0.3200  0.3081 -0.3908
14556TIP3    H143611   0.553   3.535   1.719  0.0409  1.0227 -2.7500
14556TIP3    H243612   0.637   3.410   1.730 -0.5505  0.8319  0.6434
14557TIP3   OH243613   1.818   0.277   4.495  0.7354 -0.1867  0.4437
14557TIP3    H143614   1.772   0.198   4.467 -0.5324  0.7679 -0.3018
14557TIP3    H243615   1.896   0.245   4.540 -1.0389 -1.9143  2.5135
14558TIP3   OH243616   6.770   0.019   3.260  0.0638  0.0182 -0.8348
14558TIP3    H143617   6.855   0.044   3.297  0.5035 -0.9084 -1.2055
14558TIP3    H243618   6.747   0.092   3.203  1.2965 -0.3497 -1.8382
14559TIP3   OH243619   1.446   5.616   5.345 -0.4459 -0.6382 -0.6046
14559TIP3    H143620   1.521   5.602   5.403 -1.7514 -1.2521  0.9937
14559TIP3    H243621   1.473   5.576   5.262  2.2198  1.9461 -1.1653
14560TIP3   OH243622   5.795   0.072   4.706  0.3189  0.0598  0.3848
14560TIP3    H143623   5.844  -0.003   4.673  0.6131  0.2210  0.4542
14560TIP3    H243624   5.843   0.101   4.784  0.3903  0.5202  0.1757
14561TIP3   OH243625   7.753   3.504   5.225 -0.3591  0.0290 -0.1836
14561TIP3    H143626   7.820   3.500   5.157  0.7904  1.7141  0.7728
14561TIP3    H243627   7.748   3.597   5.248 -2.6835 -0.1209  0.1487
14562TIP3   OH243628   1.581   7.709   1.809  0.1250 -0.3464  0.6715
14562TIP3    H143629   1.656   7.652   1.797  1.0950  0.8253  0.9796
14562TIP3    H243630   1.505   7.654   1.788  1.1128 -1.2778 -0.6078
14563TIP3   OH243631   2.758   2.718   3.580 -0.4621 -0.2707 -0.4182
14563TIP3    H143632   2.665   2.725   3.598  0.0245 -0.0020  2.4171
14563TIP3    H243633   2.797   2.691   3.663  1.6895 -3.3978 -2.2246
14564TIP3   OH243634   6.167   2.845   4.281 -0.0001  0.6091 -0.2504
14564TIP3    H143635   6.147   2.935   4.252  0.7746  0.4177 -1.4522
14564TIP3    H243636   6.185   2.798   4.200 -0.4915 -0.6739  0.3685
14565TIP3   OH243637   0.907   2.955   5.365  0.0751 -0.1987  0.7760
14565TIP3    H143638   0.817   2.957   5.396  0.0871 -0.2762  0.8172
14565TIP3    H243639   0.911   3.022   5.298  0.0718  0.0305  1.0038
14566TIP3   OH243640   6.818   6.087   0.822  0.2511  0.1722  0.0719
14566TIP3    H143641   6.845   6.142   0.894  2.0359  0.0978 -0.4927
14566TIP3    H243642   6.735   6.124   0.793 -0.2009  0.5579  1.7513
14567TIP3   OH243643   4.947   4.006   3.932 -0.0946  0.0317 -0.1174
14567TIP3    H143644   4.981   4.096   3.930 -0.5629  0.2179  0.0110
14567TIP3    H243645   5.014   3.956   3.979  0.2495  0.2792 -0.3396
14568TIP3   OH243646   1.215   4.572   4.672  0.1010  0.8489  0.8101
14568TIP3    H143647   1.147   4.602   4.612 -0.0607 -1.8102 -0.5025
14568TIP3    H243648   1.275   4.645   4.679 -1.2203  2.1373 -0.5742
14569TIP3   OH243649   5.262   3.276   1.596  0.0873  0.6313 -0.2291
14569TIP3    H143650   5.197   3.229   1.543 -0.4731  2.0217 -0.8294
14569TIP3    H243651   5.346   3.248   1.560 -0.2077 -0.4022 -0.1353
14570TIP3   OH243652   4.424   0.755   6.113 -0.4801  0.1394 -0.1202
14570TIP3    H143653   4.368   0.726   6.041 -0.2625 -1.0559  0.1775
14570TIP3    H243654   4.393   0.844   6.133 -1.4360 -0.0311 -0.7799
14571TIP3   OH243655   3.225   4.960   4.053 -0.2828  0.0744 -0.1485
14571TIP3    H143656   3.268   5.040   4.086 -0.9325  0.8906 -1.1954
14571TIP3    H243657   3.196   4.914   4.131 -1.8150  1.9548  0.4673
14572TIP3   OH243658   1.029   0.780   0.660 -0.0837 -0.5928  0.4399
14572TIP3    H143659   1.044   0.873   0.640  2.6165 -0.9824  0.2234
14572TIP3    H243660   1.004   0.741   0.576 -0.5292 -0.2023  0.3848
14573TIP3   OH243661   5.500   6.928   3.306  0.5260 -0.0293 -0.4572
14573TIP3    H143662   5.417   6.923   3.259 -0.0869 -0.1833  0.6035
14573TIP3    H243663   5.566   6.937   3.238 -0.4991  1.9732 -1.2658
14574TIP3   OH243664   4.655   1.144   1.561 -0.2048  0.4984 -0.3370
14574TIP3    H143665   4.617   1.232   1.570  1.0440  1.4149 -2.8066
14574TIP3    H243666   4.613   1.108   1.483 -1.2786 -1.5144  1.0744
14575TIP3   OH243667   2.364   5.558   1.816 -0.3393  0.0335 -0.3845
14575TIP3    H143668   2.341   5.467   1.835  0.1756 -0.0715 -0.2652
14575TIP3    H243669   2.338   5.571   1.725  1.0670 -0.7125 -0.9100
14576TIP3   OH243670   6.054   6.740   0.233  0.1931 -0.0928  0.5178
14576TIP3    H143671   6.072   6.677   0.162  2.8895  0.9379  0.1584
14576TIP3    H243672   6.023   6.818   0.187 -0.4634 -0.2338  0.7165
14577TIP3   OH243673   1.055   2.099   5.990  0.5695 -0.6454 -0.3306
14577TIP3    H143674   1.143   2.124   6.017  0.5959  0.3165 -1.2418
14577TIP3    H243675   1.013   2.181   5.964 -0.7794 -1.0057  0.5663
14578TIP3   OH243676   8.091   0.381   5.323 -0.3336 -0.0329  0.1879
14578TIP3    H143677   8.168   0.347   5.368  0.0247  0.6101  0.0706
14578TIP3    H243678   8.123   0.408   5.237 -0.5795  0.7024  0.3171
14579TIP3   OH243679   7.907   3.560   2.598 -0.7365 -0.0878  0.6516
14579TIP3    H143680   7.872   3.474   2.573  0.8246 -0.2203 -1.4079
14579TIP3    H243681   7.845   3.623   2.563  0.5604 -0.3352 -2.4173
14580TIP3   OH243682   5.932   1.832   3.401 -0.2977  0.3575  0.5869
14580TIP3    H143683   6.022   1.864   3.406  0.1645 -1.0301  1.9982
14580TIP3    H243684   5.913   1.802   3.489 -1.7393 -0.4775  0.0186
14581TIP3   OH243685   5.552   3.911   1.193 -0.0211  0.2935  0.2295
14581TIP3    H143686   5.537   4.001   1.222  0.3645  0.0302  1.2955
14581TIP3    H243687   5.464   3.875   1.179 -0.1695  1.3539 -1.9842
14582TIP3   OH243688   6.112   1.406   1.403  0.5038 -0.2709 -0.4479
14582TIP3    H143689   6.142   1.353   1.477  1.2734 -0.3764 -0.8329
14582TIP3    H243690   6.188   1.458   1.378  0.9935 -1.8626 -2.5899
14583TIP3   OH243691   4.380   6.153   3.480 -0.4806  0.1442 -0.6284
14583TIP3    H143692   4.440   6.080   3.465 -1.5976 -0.7627 -0.8406
14583TIP3    H243693   4.295   6.120   3.451 -1.6877  0.3220  2.2706
14584TIP3   OH243694   3.447   1.034   5.673 -0.0536 -0.1977  0.6106
14584TIP3    H143695   3.364   1.062   5.637  0.5582  1.2602  0.2553
14584TIP3    H243696   3.445   1.065   5.764  0.0411 -0.2804  0.6410
14585TIP3   OH243697   1.455   1.442   3.887 -0.5954  0.0521 -0.1313
14585TIP3    H143698   1.360   1.450   3.897 -0.7399 -1.0268 -0.5081
14585TIP3    H243699   1.491   1.492   3.961 -1.4472  0.3783  0.0792
14586TIP3   OH243700   7.056   4.588   1.214 -0.0540 -0.1545  0.3138
14586TIP3    H143701   7.089   4.546   1.134  0.1007 -3.5156  1.9642
14586TIP3    H243702   7.133   4.592   1.272  0.2397  3.7071 -0.0765
14587TIP3   OH243703   5.790   7.776   0.132  0.0539 -0.0211  0.4868
14587TIP3    H143704   5.823   7.847   0.079 -1.0585 -1.2311 -2.0033
14587TIP3    H243705   5.696   7.793   0.139 -0.5110 -1.9152 -1.4475
14588TIP3   OH243706   5.336   7.208   6.255  1.1049 -0.1753 -0.5410
14588TIP3    H143707   5.322   7.194   6.349 -2.9604  0.5004 -0.8908
14588TIP3    H243708   5.332   7.120   6.217  1.7971 -0.3506 -0.2406
14589TIP3   OH243709   3.389   6.229   0.249 -0.1888 -0.4609  0.2521
14589TIP3    H143710   3.360   6.254   0.337 -0.3755 -0.7388  0.2713
14589TIP3    H243711   3.308   6.213   0.200 -0.0757 -0.8783  0.2000
14590TIP3   OH243712   0.691   7.448   2.628 -0.1124  0.2877  0.1772
14590TIP3    H143713   0.673   7.358   2.601  0.5247  0.2942 -0.2783
14590TIP3    H243714   0.729   7.490   2.551 -1.5955  1.3213 -0.0319
14591TIP3   OH243715   0.064   3.790   2.470  0.0221  0.2618 -0.0189
14591TIP3    H143716   0.136   3.735   2.499 -1.1937 -0.8650  0.9656
14591TIP3    H243717   0.040   3.755   2.384  2.5066  2.5260 -1.8044
14592TIP3   OH243718   7.791   3.166   1.412 -0.1591  0.2121 -0.4328
14592TIP3    H143719   7.771   3.217   1.334  1.4387 -0.6295 -1.4520
14592TIP3    H243720   7.761   3.220   1.485 -3.1136  0.3634 -1.6284
14593TIP3   OH243721   5.031   3.262   6.128  0.1291 -0.4381 -0.7340
14593TIP3    H143722   4.946   3.291   6.095 -0.1099 -0.6653 -0.3184
14593TIP3    H243723   5.017   3.171   6.154 -0.3669  0.4243  2.3501
14594TIP3   OH243724   0.979   6.055   2.288 -0.5366 -0.9266 -0.3462
14594TIP3    H143725   0.968   5.965   2.318 -0.8615 -1.3761 -1.6980
14594TIP3    H243726   0.897   6.074   2.241 -0.9498  0.4887  0.8817
14595TIP3   OH243727   8.163   3.247   4.886  0.1369  0.6005  1.0274
14595TIP3    H143728   8.177   3.341   4.885  0.7142  0.5302 -0.5064
14595TIP3    H243729   8.068   3.236   4.889 -0.1289  1.3237 -1.7701
14596TIP3   OH243730   6.804   2.428   0.161 -0.1188  0.1000  0.2367
14596TIP3    H143731   6.874   2.422   0.096 -0.1692  0.3302  0.1593
14596TIP3    H243732   6.804   2.520   0.188 -1.1211  0.3733 -0.5891
14597TIP3   OH243733   2.089   0.640   4.526 -0.2243 -0.0477  0.0357
14597TIP3    H143734   2.039   0.690   4.591 -0.4607 -0.9928  0.6069
14597TIP3    H243735   2.047   0.660   4.442 -1.1081 -0.2473  0.4200
14598TIP3   OH243736   3.747   6.764   4.344  0.2520  0.8400 -1.1223
14598TIP3    H143737   3.701   6.723   4.417  0.3496  1.9360 -0.4120
14598TIP3    H243738   3.693   6.745   4.267 -0.2426  0.2953 -0.6483
14599TIP3   OH243739   3.827   4.218   6.473 -0.6529 -0.3924 -0.1510
14599TIP3    H143740   3.885   4.243   6.545  0.2885 -1.1169 -0.6332
14599TIP3    H243741   3.821   4.297   6.419 -0.3782 -0.2189  0.0696
14600TIP3   OH243742   1.131   5.094   4.143 -0.0588  0.0556  0.9164
14600TIP3    H143743   1.100   5.106   4.233 -1.5749  2.3921  0.1672
14600TIP3    H243744   1.211   5.146   4.139  0.2155 -0.3580  1.0087
14601TIP3   OH243745   1.876   1.318   2.383 -0.2372 -0.1456  0.2628
14601TIP3    H143746   1.915   1.314   2.471 -0.2197 -0.6324  0.2375
14601TIP3    H243747   1.880   1.410   2.359  2.0079 -0.3058 -0.2197
14602TIP3   OH243748   2.814   6.298   0.349 -0.1821  0.2297  0.8156
14602TIP3    H143749   2.773   6.312   0.264 -0.2817 -1.3897  0.5749
14602TIP3    H243750   2.901   6.336   0.340 -0.4613  0.7548  0.2591
14603TIP3   OH243751   3.407   5.813   3.494 -0.3388  0.3823 -0.0080
14603TIP3    H143752   3.340   5.832   3.429 -1.3523 -1.9204  0.2439
14603TIP3    H243753   3.364   5.831   3.578 -0.8197 -1.4178  0.1675
14604TIP3   OH243754   3.707   3.607   2.438  0.2250  0.2253  0.1793
14604TIP3    H143755   3.781   3.547   2.447  0.3557  0.4131  0.3976
14604TIP3    H243756   3.712   3.662   2.517  1.2692  1.7884 -0.9080
14605TIP3   OH243757   8.022   4.245   2.795 -0.0546  0.7611  0.6030
14605TIP3    H143758   7.929   4.225   2.781  0.1154 -0.1660  0.6962
14605TIP3    H243759   8.043   4.201   2.878  0.4162  1.1589  0.6984
14606TIP3   OH243760   1.013   4.180   2.930  0.0744  0.3061 -0.1117
14606TIP3    H143761   1.019   4.098   2.979  0.8918  0.4328  0.0177
14606TIP3    H243762   0.960   4.159   2.854  1.7570 -0.8429 -1.0332
14607TIP3   OH243763   1.736   6.363   4.513 -0.6605  0.5211  0.2020
14607TIP3    H143764   1.735   6.421   4.436 -0.9237 -0.6581 -0.7138
14607TIP3    H243765   1.644   6.355   4.538 -0.4538  2.1109  1.6161
14608TIP3   OH243766   5.806   5.040   2.906 -0.0257  0.4261 -0.0516
14608TIP3    H143767   5.717   5.064   2.879 -0.1100 -0.9930 -1.1913
14608TIP3    H243768   5.796   5.000   2.992 -0.2404  1.8034  0.5873
14609TIP3   OH243769   4.303   4.513   4.515  0.6098  0.2398 -0.1549
14609TIP3    H143770   4.292   4.467   4.598  0.5114 -1.1700 -0.8955
14609TIP3    H243771   4.214   4.531   4.486  0.6214  0.1969 -0.2185
14610TIP3   OH243772   0.653   6.541   5.087 -0.2263 -0.1789  0.2962
14610TIP3    H143773   0.644   6.452   5.119 -1.4964 -0.5252 -0.9335
14610TIP3    H243774   0.569   6.582   5.105 -0.2859  0.1996 -0.7580
14611TIP3   OH243775   0.431   6.221   2.462  0.2574 -0.0571 -0.7674
14611TIP3    H143776   0.345   6.181   2.475  0.4518 -0.8339 -1.8163
14611TIP3    H243777   0.412   6.305   2.420 -0.0339  0.2469 -0.0621
14612TIP3   OH243778   5.255   3.922  -0.009 -0.4030 -0.0156  0.5203
14612TIP3    H143779   5.162   3.898  -0.009 -0.5181  0.4015  0.2158
14612TIP3    H243780   5.288   3.890   0.074 -1.4634  2.1699  1.9053
14613TIP3   OH243781   3.818   3.508   2.856 -0.2084  0.3266 -0.1017
14613TIP3    H143782   3.789   3.432   2.805 -0.9294 -1.2508  2.4631
14613TIP3    H243783   3.755   3.514   2.928  1.8865  1.1196  1.7848
14614TIP3   OH243784   1.783   1.771   5.363  0.1005  0.0810 -0.3946
14614TIP3    H143785   1.729   1.818   5.426  2.1466 -1.8603  3.0791
14614TIP3    H243786   1.854   1.831   5.342  0.1552  0.2549  0.2766
14615TIP3   OH243787   5.703   5.217   3.320 -0.1371 -0.8048 -0.0946
14615TIP3    H143788   5.787   5.172   3.328 -0.4249 -1.1210  1.4715
14615TIP3    H243789   5.720   5.306   3.350 -0.1296 -0.5507 -0.8286
14616TIP3   OH243790   1.915   4.197   3.817  0.3245  0.3524  0.3525
14616TIP3    H143791   1.836   4.221   3.769  1.0152  1.3871 -0.3291
14616TIP3    H243792   1.906   4.239   3.902  0.1919  0.5879  0.2246
14617TIP3   OH243793   8.098   6.864   2.626 -0.4081  0.5588 -0.4372
14617TIP3    H143794   8.168   6.805   2.596 -0.2071  1.2184 -1.3017
14617TIP3    H243795   8.020   6.809   2.629 -0.0846  0.0869 -0.5759
14618TIP3   OH243796   4.588   7.399   1.540  0.4876  0.4512 -0.7884
14618TIP3    H143797   4.583   7.483   1.587 -0.7026  0.6385 -1.2285
14618TIP3    H243798   4.532   7.411   1.463 -2.8697 -1.9378  1.0230
14619TIP3   OH243799   6.588   3.478   5.306 -0.1203 -0.1567  0.2636
14619TIP3    H143800   6.620   3.513   5.389 -0.9181  0.8800  0.1527
14619TIP3    H243801   6.566   3.387   5.325 -0.3758  0.0954  1.2131
14620TIP3   OH243802   3.333   5.550   4.441  0.1509 -0.3265  0.0592
14620TIP3    H143803   3.242   5.558   4.413 -0.0544 -0.2620  0.7391
14620TIP3    H243804   3.344   5.456   4.458 -0.7292  0.0204  3.0412
14621TIP3   OH243805   0.967   4.962   5.813 -0.1642 -0.3607  0.3738
14621TIP3    H143806   0.890   4.935   5.763  0.3274  0.0207 -0.6347
14621TIP3    H243807   1.041   4.930   5.761  0.3839  1.0109  0.2553
14622TIP3   OH243808   2.869   3.861   5.105 -0.1560 -0.0421 -0.1931
14622TIP3    H143809   2.853   3.817   5.022  3.1660  0.9540 -1.4988
14622TIP3    H243810   2.848   3.953   5.088  0.8950  0.2306 -0.0961
14623TIP3   OH243811   3.931   6.902   2.572  0.0455  0.0410 -0.3319
14623TIP3    H143812   3.996   6.881   2.504 -0.9540 -3.4151 -0.3911
14623TIP3    H243813   3.981   6.950   2.638  2.2573 -0.8445 -1.2357
14624TIP3   OH243814   5.982   3.647   3.199  0.5186 -0.2248 -0.3107
14624TIP3    H143815   6.023   3.586   3.137  0.7570  0.2445 -0.6266
14624TIP3    H243816   6.056   3.691   3.241  0.4316  2.2035 -2.4415
14625TIP3   OH243817   3.128   3.316   1.275  0.3701  0.3473  0.7702
14625TIP3    H143818   3.121   3.412   1.282 -3.1737  0.3443 -0.7106
14625TIP3    H243819   3.041   3.284   1.297  1.2264 -2.5276  0.3706
14626TIP3   OH243820   0.617   5.410   1.203 -0.2636 -0.0582 -0.0453
14626TIP3    H143821   0.632   5.494   1.159 -0.4476  0.2734  0.5025
14626TIP3    H243822   0.683   5.408   1.273 -1.1356  0.2776  0.8172
14627TIP3   OH243823   7.728   5.973   4.022  0.2193 -0.1344 -0.3034
14627TIP3    H143824   7.800   6.036   4.021  0.8269 -0.7697  1.0377
14627TIP3    H243825   7.652   6.023   3.992  0.9202  0.9217 -0.3812
14628TIP3   OH243826   5.142   7.613   4.194 -0.3274  0.2943 -0.7239
14628TIP3    H143827   5.227   7.592   4.157 -1.6451 -1.6095 -2.9574
14628TIP3    H243828   5.127   7.705   4.171  0.8017  0.4342 -0.9134
14629TIP3   OH243829   4.051   1.920   4.204  0.0363 -0.3393  0.8136
14629TIP3    H143830   3.979   1.857   4.199 -0.2329 -0.1006  1.5494
14629TIP3    H243831   4.023   1.983   4.271  0.4383  0.3840  0.3188
14630TIP3   OH243832   8.252   4.146   4.507 -0.5950 -0.0172 -0.6035
14630TIP3    H143833   8.284   4.225   4.550 -1.1801  0.7769 -1.5793
14630TIP3    H243834   8.275   4.157   4.415 -0.8545 -0.8988 -0.7914
14631TIP3   OH243835   8.055   2.669   3.909 -0.2450  1.0116  0.6011
14631TIP3    H143836   7.980   2.705   3.957 -0.8625  3.0235 -1.7139
14631TIP3    H243837   8.018   2.596   3.859 -0.7768  2.1933 -0.7748
14632TIP3   OH243838   7.193   1.998   5.555 -0.0539 -0.1862  0.4689
14632TIP3    H143839   7.133   2.034   5.620  0.2030  3.3096 -1.0181
14632TIP3    H243840   7.150   2.013   5.471  1.9579  0.5323 -0.5037
14633TIP3   OH243841   0.809   1.987   0.944 -0.3988 -0.2455  0.7772
14633TIP3    H143842   0.855   2.020   1.021 -1.1071  0.0420  1.0880
14633TIP3    H243843   0.779   2.066   0.898 -2.8874 -0.3797  1.9903
14634TIP3   OH243844   0.757   4.302   2.107  0.0052  0.1451 -0.0747
14634TIP3    H143845   0.753   4.248   2.029  2.5003  0.2365 -0.3399
14634TIP3    H243846   0.677   4.281   2.155 -0.3275 -1.8359 -1.3985
14635TIP3   OH243847   6.278   1.917   6.352  0.0393 -0.2445  0.5898
14635TIP3    H143848   6.267   1.982   6.283  0.7478 -0.2251  0.4863
14635TIP3    H243849   6.190   1.880   6.365  0.2420 -1.8807 -1.9197
14636TIP3   OH243850   4.169   1.496   4.170  0.2423 -0.0028 -0.1991
14636TIP3    H143851   4.197   1.584   4.193  0.2671 -0.0103 -0.2011
14636TIP3    H243852   4.088   1.483   4.219  0.4738 -0.1462  0.1461
14637TIP3   OH243853   0.970   0.862   6.215 -0.1654 -0.2994 -0.0016
14637TIP3    H143854   0.927   0.782   6.248 -0.0908  0.3459  1.7990
14637TIP3    H243855   0.964   0.923   6.288  0.1482  1.2187 -1.2106
14638TIP3   OH243856   7.359   3.081   0.200  0.1057  0.4548 -0.5796
14638TIP3    H143857   7.344   3.154   0.260 -0.4656  0.3858 -0.6327
14638TIP3    H243858   7.391   3.010   0.257 -1.5197  0.0222 -0.1562
14639TIP3   OH243859   7.776   5.337   3.344  0.2348  0.3118 -0.0671
14639TIP3    H143860   7.858   5.290   3.332 -0.2672 -0.7072  0.3447
14639TIP3    H243861   7.712   5.287   3.294 -0.2029  0.9149 -0.1264
14640TIP3   OH243862   4.457   5.645   2.194  0.5137  0.4486  0.7304
14640TIP3    H143863   4.476   5.683   2.280  0.2487  0.6122  0.7169
14640TIP3    H243864   4.442   5.552   2.213  2.0918  0.1344  0.6408
14641TIP3   OH243865   5.637   3.637   4.651 -0.4711 -0.6129  0.6104
14641TIP3    H143866   5.588   3.656   4.730  0.1326  1.1842  0.5863
14641TIP3    H243867   5.715   3.591   4.681 -1.9136 -3.2033  0.6762
14642TIP3   OH243868   0.157   6.536   0.755  0.0568 -0.0880  0.2135
14642TIP3    H143869   0.243   6.556   0.719 -0.4180  2.4782  0.2722
14642TIP3    H243870   0.158   6.576   0.843 -0.7504 -1.1756  0.7425
14643TIP3   OH243871   6.682   4.709   3.745 -0.0154  0.4426  0.0111
14643TIP3    H143872   6.687   4.660   3.663  1.5648  0.0918  0.2946
14643TIP3    H243873   6.773   4.730   3.767 -0.4804  1.3904  1.1713
14644TIP3   OH243874   4.087   1.000   6.186  0.0007  0.1525 -0.0078
14644TIP3    H143875   4.015   1.052   6.151 -0.4365  0.3556  1.1671
14644TIP3    H243876   4.053   0.911   6.189 -0.8073  0.4890  2.0562
14645TIP3   OH243877   3.142   0.299   6.673  0.1383 -0.5271  0.3627
14645TIP3    H143878   3.104   0.232   6.616  1.3742 -0.0883 -1.0353
14645TIP3    H243879   3.097   0.287   6.757  0.4880 -3.2713  0.2570
14646TIP3   OH243880   2.098   4.198   5.700  0.7960  0.1250  0.1294
14646TIP3    H143881   2.149   4.132   5.654  1.8591  0.9457  0.0853
14646TIP3    H243882   2.151   4.277   5.695 -1.3946  1.6321 -1.7783
14647TIP3   OH243883   0.087   7.532   6.136  0.3354 -0.3043  0.0453
14647TIP3    H143884   0.133   7.527   6.053  2.0072 -0.4880  0.9402
14647TIP3    H243885   0.085   7.442   6.168  0.5317 -0.1053  0.6293
14648TIP3   OH243886   0.498   0.052   1.122 -0.3312 -0.1805 -0.2051
14648TIP3    H143887   0.420   0.100   1.094 -0.2473  0.3554  0.4658
14648TIP3    H243888   0.531   0.013   1.041 -0.7583  0.3672 -0.6600
14649TIP3   OH243889   5.372   0.716   0.833  0.7116 -0.9969 -0.5908
14649TIP3    H143890   5.431   0.649   0.867  0.2673 -0.9576  0.2682
14649TIP3    H243891   5.284   0.681   0.847  0.4606 -0.1298  0.1208
14650TIP3   OH243892   5.556   7.179   0.811 -0.3745 -0.4608 -0.7732
14650TIP3    H143893   5.614   7.243   0.769  2.4069 -0.2297  2.8693
14650TIP3    H243894   5.595   7.094   0.791  0.0440 -0.4522 -0.0505
14651TIP3   OH243895   1.440   3.301   0.251  0.7054  0.2015 -0.1312
14651TIP3    H143896   1.439   3.331   0.160  0.1525 -0.1231 -0.2431
14651TIP3    H243897   1.352   3.320   0.283  0.7955  0.0137  0.2327
14652TIP3   OH243898   1.900   6.715   0.966  0.7176  0.3070 -0.2954
14652TIP3    H143899   1.873   6.637   0.918  1.2260 -0.8049  1.1493
14652TIP3    H243900   1.833   6.781   0.944  0.2190 -0.5372 -1.4538
14653TIP3   OH243901   4.744   1.917   4.148  0.1428  0.4239 -0.1195
14653TIP3    H143902   4.828   1.895   4.108  0.1893  0.5813 -0.1077
14653TIP3    H243903   4.706   1.984   4.091  0.0713  0.4260 -0.0701
14654TIP3   OH243904   4.386   2.997   0.364 -0.1853 -0.0920  0.5156
14654TIP3    H143905   4.329   3.039   0.299  1.1339  0.2574 -0.4639
14654TIP3    H243906   4.327   2.974   0.436 -1.3302  1.4806  0.1539
14655TIP3   OH243907   5.983   5.359   4.425  0.0770 -0.1202 -0.3784
14655TIP3    H143908   5.964   5.283   4.370  0.2771 -2.3760  2.4453
14655TIP3    H243909   6.064   5.336   4.470 -0.6065  1.1194  1.6054
14656TIP3   OH243910   1.063   3.188   1.841 -0.5657  0.2788  0.4662
14656TIP3    H143911   1.026   3.170   1.755 -0.2466  0.1660  0.3523
14656TIP3    H243912   1.020   3.125   1.899  0.8252 -1.1712  0.0041
14657TIP3   OH243913   4.829   6.981   3.989 -0.0951 -0.3145 -0.2026
14657TIP3    H143914   4.875   7.056   3.949  3.0949 -2.3441 -0.7524
14657TIP3    H243915   4.804   7.012   4.076  0.7894  1.5148 -0.5378
14658TIP3   OH243916   8.194   4.771   0.158  0.4591  0.1653 -0.5757
14658TIP3    H143917   8.155   4.817   0.083 -1.3211  0.8397  0.7080
14658TIP3    H243918   8.177   4.679   0.141 -1.8072  0.4263 -0.0838
14659TIP3   OH243919   1.023   5.718   6.194  0.1713  0.2548 -0.2326
14659TIP3    H143920   0.993   5.670   6.117 -0.1092  1.0627 -0.6314
14659TIP3    H243921   1.023   5.810   6.167  0.9147  0.4700  0.4509
14660TIP3   OH243922   3.337   2.227   3.512  0.1335 -0.1876  0.1358
14660TIP3    H143923   3.367   2.190   3.429 -0.6211 -0.1623 -0.1549
14660TIP3    H243924   3.399   2.193   3.577  0.6520 -0.3094 -0.4162
14661TIP3   OH243925   3.549   2.369   3.761 -0.1036 -0.4929  0.6392
14661TIP3    H143926   3.577   2.376   3.852 -1.9808  1.3530  1.1576
14661TIP3    H243927   3.495   2.290   3.758 -0.4924 -0.2574  1.2890
14662TIP3   OH243928   3.797   6.020   6.285 -0.4315  0.7624  0.0380
14662TIP3    H143929   3.727   6.075   6.250 -0.0877 -0.0149 -1.9953
14662TIP3    H243930   3.878   6.068   6.264 -0.2388  0.4909  0.1519
14663TIP3   OH243931   3.114   5.498   5.880 -0.1830 -0.1758 -0.2022
14663TIP3    H143932   3.125   5.455   5.795 -1.1791 -0.8170 -0.0185
14663TIP3    H243933   3.090   5.588   5.858  1.1991  0.1307 -0.5832
14664TIP3   OH243934   6.509   7.626   0.489 -0.8171 -0.1551 -0.5768
14664TIP3    H143935   6.549   7.571   0.422 -0.5813  0.9435 -1.3677
14664TIP3    H243936   6.557   7.605   0.569  0.1729 -0.1239 -1.1493
14665TIP3   OH243937   0.477   1.087   6.175 -0.3480 -0.2632  0.8779
14665TIP3    H143938   0.394   1.041   6.162 -0.3035  0.0863 -0.7483
14665TIP3    H243939   0.511   1.102   6.087  2.0489 -1.4652  1.5199
14666TIP3   OH243940   3.510   1.588   0.633  0.3967  0.6839 -0.1756
14666TIP3    H143941   3.494   1.583   0.539 -0.7255 -1.3596  0.0833
14666TIP3    H243942   3.604   1.570   0.642  0.3560  0.0928 -0.8543
14667TIP3   OH243943   4.104   3.542   0.389 -0.4056  0.2353 -0.3175
14667TIP3    H143944   4.138   3.551   0.478 -2.2260  1.3373  0.3124
14667TIP3    H243945   4.021   3.496   0.399 -0.4443 -0.0005 -1.5073
14668TIP3   OH243946   7.207   7.220   3.759 -0.8060  0.1884  0.1452
14668TIP3    H143947   7.238   7.262   3.839  0.2453 -1.0915  0.4458
14668TIP3    H243948   7.156   7.145   3.789 -1.9667  0.7407 -0.3830
14669TIP3   OH243949   0.268   4.833   2.569  0.1280  0.4951 -0.1377
14669TIP3    H143950   0.340   4.888   2.539  0.3569  0.7199  0.8009
14669TIP3    H243951   0.244   4.869   2.655 -1.4226  0.7341 -0.6342
14670TIP3   OH243952   1.121   6.928   3.191  0.1457 -0.1284 -0.1275
14670TIP3    H143953   1.148   6.991   3.257 -1.6530  0.8824 -0.2809
14670TIP3    H243954   1.072   6.862   3.239  1.2715 -0.9618 -0.0908
14671TIP3   OH243955   3.184   5.903   4.490  0.3138 -0.8168 -0.2503
14671TIP3    H143956   3.111   5.961   4.511  0.7047  0.3803 -1.9908
14671TIP3    H243957   3.255   5.931   4.549 -0.3700 -1.5223  0.9523
14672TIP3   OH243958   2.190   5.730   1.022  0.8363 -0.3010  0.1622
14672TIP3    H143959   2.249   5.791   1.067  0.4520 -0.1372  0.4499
14672TIP3    H243960   2.108   5.779   1.013  0.6377 -0.6497  0.0737
14673TIP3   OH243961   5.152   1.601   5.670  0.6234  0.0552 -0.5154
14673TIP3    H143962   5.188   1.538   5.608 -0.0183 -2.0653  1.1046
14673TIP3    H243963   5.069   1.629   5.631  0.1393 -1.3829 -0.5845
14674TIP3   OH243964   1.733   1.019   5.307 -0.6818 -0.6264 -0.1316
14674TIP3    H143965   1.733   1.070   5.226  1.4145  0.9838  0.7708
14674TIP3    H243966   1.642   1.019   5.336 -0.9853  1.3123 -0.9635
14675TIP3   OH243967   4.477   2.055   0.829  0.1920  0.3525  0.7852
14675TIP3    H143968   4.499   2.095   0.913 -0.7816  1.4495  0.5579
14675TIP3    H243969   4.381   2.046   0.831  0.2642 -0.6411  0.2400
14676TIP3   OH243970   2.787   3.267   1.386 -0.4504 -0.4931  0.2846
14676TIP3    H143971   2.698   3.276   1.351 -0.4056  1.3389  0.5348
14676TIP3    H243972   2.824   3.193   1.339 -1.3932  0.0687 -1.4234
14677TIP3   OH243973   0.557   3.282   4.101 -0.0899  0.2013 -0.6076
14677TIP3    H143974   0.518   3.283   4.189  2.4504 -0.1272  0.6235
14677TIP3    H243975   0.521   3.204   4.059 -0.3143 -0.4109  0.6786
14678TIP3   OH243976   2.005   7.261   3.279 -0.1708 -0.3973 -0.4795
14678TIP3    H143977   2.033   7.174   3.306 -1.7511 -0.4422  1.2059
14678TIP3    H243978   2.059   7.322   3.329 -0.7535 -0.4478  0.2202
14679TIP3   OH243979   6.943   0.187   6.009 -0.5659  0.6313 -0.0714
14679TIP3    H143980   6.937   0.238   5.928 -0.6220 -0.0087 -0.4790
14679TIP3    H243981   6.967   0.099   5.980  0.5027  0.6493  0.6944
14680TIP3   OH243982   2.662   0.527   0.886 -0.0092  0.1124 -0.5310
14680TIP3    H143983   2.691   0.480   0.964  1.9860  0.0098 -1.2756
14680TIP3    H243984   2.664   0.619   0.911  0.0304  0.0442 -0.2824
14681TIP3   OH243985   5.202   4.979   6.728 -0.1481  0.2167 -0.0741
14681TIP3    H143986   5.242   5.035   6.662 -1.5432 -1.0198 -2.0639
14681TIP3    H243987   5.250   4.999   6.808  2.1911  1.1415 -1.6124
14682TIP3   OH243988   6.327   7.784   6.137 -0.0417 -0.2202  0.1779
14682TIP3    H143989   6.346   7.814   6.048 -0.2229  0.2518  0.2944
14682TIP3    H243990   6.318   7.865   6.188  1.0074 -0.5036  0.8314
14683TIP3   OH243991   1.199   1.017   6.672  0.3286  0.1013 -0.1255
14683TIP3    H143992   1.228   0.963   6.599 -2.2728 -1.5494 -0.0260
14683TIP3    H243993   1.263   1.089   6.675  2.3074 -1.4529 -1.9900
14684TIP3   OH243994   1.685   7.231   5.957 -0.0314 -0.1683 -0.8349
14684TIP3    H143995   1.688   7.196   6.046  0.3062  2.1584  0.1397
14684TIP3    H243996   1.731   7.166   5.904 -0.0817 -1.5206  0.6921
14685TIP3   OH243997   3.594   4.453   2.982  0.3500  0.2568  0.7491
14685TIP3    H143998   3.598   4.358   2.976  0.5695  0.2118  1.4568
14685TIP3    H243999   3.682   4.482   2.959  0.1053  0.3339 -0.1075
14686TIP3   OH244000   2.869   6.971   5.507 -0.3981  0.2510  0.3129
14686TIP3    H144001   2.837   7.061   5.500 -0.4120  0.3642  1.5705
14686TIP3    H244002   2.933   6.973   5.578  0.2155 -0.5789 -0.1944
14687TIP3   OH244003   4.454   3.008   5.830 -1.1519 -0.7046  0.1880
14687TIP3    H144004   4.413   2.981   5.747 -3.3346 -1.2813  1.3799
14687TIP3    H244005   4.500   3.089   5.808 -2.1887 -0.5154 -1.4793
14688TIP3   OH244006   7.886   1.034   4.245 -0.1095  0.4771 -0.0587
14688TIP3    H144007   7.967   1.072   4.212 -1.3018  2.4441 -0.9389
14688TIP3    H244008   7.817   1.076   4.192 -1.7241 -0.6913  1.0282
14689TIP3   OH244009   6.875   2.176   2.284 -0.2656 -0.1123 -0.6282
14689TIP3    H144010   6.792   2.129   2.276  0.5233 -1.5889 -0.5407
14689TIP3    H244011   6.909   2.180   2.195  0.4729 -1.3016 -0.4334
14690TIP3   OH244012   7.028   1.120   3.745  0.1696 -0.5043 -0.2181
14690TIP3    H144013   6.964   1.077   3.802 -0.0059 -2.1194 -1.5714
14690TIP3    H244014   7.105   1.063   3.749 -0.1140 -1.0961 -2.1566
14691TIP3   OH244015   7.544   4.816   1.355 -0.1845 -0.0539  0.2961
14691TIP3    H144016   7.513   4.828   1.445  1.3275 -1.2385  1.0234
14691TIP3    H244017   7.581   4.902   1.331 -2.6479  0.9791 -0.1132
14692TIP3   OH244018   8.331   3.304   3.198  0.1675 -0.2492 -0.6994
14692TIP3    H144019   8.256   3.271   3.247  1.3823  0.2680  1.6715
14692TIP3    H244020   8.309   3.395   3.178  0.5558  0.2604  1.0059
14693TIP3   OH244021   1.676   0.687   4.667 -0.1346  0.5667  0.7402
14693TIP3    H144022   1.674   0.591   4.674  0.9269  0.5331  0.8024
14693TIP3    H244023   1.767   0.710   4.685 -0.3741  1.5927  0.6988
14694TIP3   OH244024   4.561   1.413   6.549  0.5834 -0.2596  0.1692
14694TIP3    H144025   4.475   1.370   6.539 -0.1777  0.7232  1.9556
14694TIP3    H244026   4.612   1.351   6.602 -0.0181  0.3511  1.5060
14695TIP3   OH244027   2.770   2.199   3.650  0.6632  0.0144  0.3238
14695TIP3    H144028   2.848   2.166   3.695  1.5945 -0.0787 -1.2681
14695TIP3    H244029   2.796   2.285   3.617 -0.1155  0.2361  0.2767
14696TIP3   OH244030   6.275   0.113   3.036 -0.1071  0.3954 -0.1338
14696TIP3    H144031   6.218   0.038   3.022  0.5851  0.3525 -3.3422
14696TIP3    H244032   6.343   0.080   3.095  1.5575 -2.3923 -3.3263
14697TIP3   OH244033   2.457   4.957   2.586  0.1091  0.5577 -0.4075
14697TIP3    H144034   2.454   5.001   2.671 -1.4840  0.2890 -0.3030
14697TIP3    H244035   2.516   4.883   2.599  0.5522  1.0109  0.2172
14698TIP3   OH244036   3.624   7.564   2.456 -0.4875 -0.4900  0.0077
14698TIP3    H144037   3.639   7.659   2.459 -1.6996 -0.2241 -1.1326
14698TIP3    H244038   3.709   7.527   2.435  0.2016  0.2576  1.3619
14699TIP3   OH244039   6.864   6.910   0.486  0.1685  0.5033  0.1122
14699TIP3    H144040   6.891   6.912   0.577 -0.5135  0.1493  0.3315
14699TIP3    H244041   6.776   6.872   0.488  0.9898 -1.6545 -0.8801
14700TIP3   OH244042   6.517   2.194   1.238 -0.7403  1.0935  0.4644
14700TIP3    H144043   6.479   2.275   1.204 -0.1976  1.2193  0.1613
14700TIP3    H244044   6.560   2.154   1.163  0.3780  1.3280  0.9690
14701TIP3   OH244045   1.396   2.381   1.856  0.2223 -0.5607 -0.3238
14701TIP3    H144046   1.426   2.323   1.926  1.2285  0.5628  0.2173
14701TIP3    H244047   1.476   2.403   1.808 -0.5777 -2.2455 -2.6297
14702TIP3   OH244048   7.861   5.517   6.349  0.0533 -0.4459  0.0508
14702TIP3    H144049   7.905   5.476   6.276 -0.6943  0.2056 -0.7897
14702TIP3    H244050   7.839   5.445   6.408  1.3565 -0.8807  0.0319
14703TIP3   OH244051   0.433   4.188   3.685  0.7078  0.1777 -0.2338
14703TIP3    H144052   0.502   4.130   3.715  1.1902  1.2658  0.8608
14703TIP3    H244053   0.402   4.149   3.603 -0.4599 -2.7849  1.4370
14704TIP3   OH244054   4.436   7.140   3.591 -0.3743  0.1907 -0.0844
14704TIP3    H144055   4.493   7.076   3.633 -1.0197 -0.1931  0.2094
14704TIP3    H244056   4.397   7.190   3.663 -2.9874 -1.7274 -0.0221
14705TIP3   OH244057   6.482   2.806   6.595  0.0227  0.4501  0.1437
14705TIP3    H144058   6.498   2.897   6.567  1.3954 -0.2492 -1.5680
14705TIP3    H244059   6.388   2.795   6.587  0.1319  0.7747 -3.1501
14706TIP3   OH244060   1.712   2.045   6.290  0.4259  0.4848 -0.0014
14706TIP3    H144061   1.687   1.953   6.285  1.0010  0.3288 -0.0323
14706TIP3    H244062   1.668   2.078   6.368  1.3367 -0.1698  0.8107
14707TIP3   OH244063   6.801   5.323   5.277 -0.6230 -0.6399 -0.1306
14707TIP3    H144064   6.745   5.368   5.340 -0.6304 -0.3471 -0.3435
14707TIP3    H244065   6.879   5.298   5.327  0.3930  1.5459 -0.4717
14708TIP3   OH244066   2.814   4.958   4.377 -0.1405  0.0740  0.1107
14708TIP3    H144067   2.826   5.040   4.425  0.3377  0.4808 -0.6779
14708TIP3    H244068   2.792   4.894   4.444  1.3841  0.4394  1.0033
14709TIP3   OH244069   5.948   1.187   6.272  0.7134  0.2656 -0.6512
14709TIP3    H144070   5.994   1.147   6.199  1.5455  0.1902 -0.1063
14709TIP3    H244071   5.985   1.275   6.279  0.6185  0.2828 -0.3366
14710TIP3   OH244072   1.139   6.565   4.907 -0.3501 -0.2225  0.0111
14710TIP3    H144073   1.050   6.600   4.896 -0.0489  0.1537 -1.2922
14710TIP3    H244074   1.133   6.513   4.988 -1.5636  0.3878  0.3477
14711TIP3   OH244075   4.608   6.737   0.821 -0.6387 -0.0772  0.0565
14711TIP3    H144076   4.580   6.765   0.734  0.8266  0.7876 -0.1752
14711TIP3    H244077   4.689   6.786   0.837 -0.2011 -1.1615  1.3853
14712TIP3   OH244078   1.192   1.133   1.336  0.8677  0.3389  0.5096
14712TIP3    H144079   1.224   1.084   1.260  0.9094 -0.3092  0.9345
14712TIP3    H244080   1.213   1.077   1.411 -2.2287 -0.6984  0.7561
14713TIP3   OH244081   6.069   3.461   3.002 -0.4234  0.6860 -0.4916
14713TIP3    H144082   6.060   3.514   2.922  1.1066 -0.2843 -1.3607
14713TIP3    H244083   6.076   3.371   2.970  2.2176  0.4495  0.5451
14714TIP3   OH244084  -0.008   2.568   5.643  0.9481  0.4863 -0.0460
14714TIP3    H144085  -0.008   2.584   5.738  3.7744  1.0546 -0.0422
14714TIP3    H244086   0.029   2.647   5.605 -1.5118  0.8879 -1.8697
14715TIP3   OH244087   5.442   3.393   4.670  0.0706 -0.1564 -0.4222
14715TIP3    H144088   5.533   3.417   4.654  0.4852 -1.2620  0.1641
14715TIP3    H244089   5.437   3.382   4.765 -0.5016 -0.7610 -0.5150
14716TIP3   OH244090   1.440   7.818   6.468  0.5168 -0.1624 -0.2358
14716TIP3    H144091   1.511   7.873   6.436  1.2851 -0.9914  0.0002
14716TIP3    H244092   1.419   7.760   6.395 -0.6925  0.7858 -0.6900
14717TIP3   OH244093   1.579   5.118   3.012 -0.8099 -0.3284 -0.4876
14717TIP3    H144094   1.490   5.127   3.048 -0.3907  0.0496  0.4945
14717TIP3    H244095   1.590   5.195   2.956 -1.5672 -1.0574 -1.6714
14718TIP3   OH244096   7.439   6.711   2.266  0.2217 -0.0659  0.0299
14718TIP3    H144097   7.477   6.787   2.223 -0.4484  0.1368 -0.2183
14718TIP3    H244098   7.464   6.636   2.212 -0.7927  0.2095 -0.8563
14719TIP3   OH244099   6.506   2.865   5.459 -0.3546  0.2980  0.2527
14719TIP3    H144100   6.555   2.830   5.534 -0.8184  0.2081  0.5154
14719TIP3    H244101   6.416   2.871   5.490 -0.4161  0.9800 -0.0575
14720TIP3   OH244102   0.555   3.470   3.919 -0.2147 -0.1818 -0.0270
14720TIP3    H144103   0.594   3.445   3.835 -1.1201  1.5752 -1.0203
14720TIP3    H244104   0.591   3.406   3.981  4.0715  1.0559 -0.8527
14721TIP3   OH244105   7.802   1.077   5.551  0.1436  0.0643  0.0624
14721TIP3    H144106   7.852   1.114   5.478  0.3391  0.5122  0.4227
14721TIP3    H244107   7.724   1.132   5.557 -1.1626 -1.5128 -1.4526
14722TIP3   OH244108   0.036   4.892   3.637 -1.0888  0.0092 -0.2869
14722TIP3    H144109   0.073   4.929   3.557  0.2224 -2.3568 -0.8357
14722TIP3    H244110  -0.057   4.883   3.618 -1.2404  1.7388 -0.5832
14723TIP3   OH244111   5.950   5.649   4.372 -0.0904 -0.8691  0.1160
14723TIP3    H144112   5.929   5.703   4.448  1.9747 -2.6937  2.1422
14723TIP3    H244113   5.931   5.559   4.399 -0.0903 -1.5231 -1.8580
14724TIP3   OH244114   5.501   0.256   6.225 -0.2035  0.7766  0.4142
14724TIP3    H144115   5.417   0.214   6.247 -0.8049  1.6562 -0.1508
14724TIP3    H244116   5.509   0.328   6.287  0.4260  0.3467  0.8428
14725TIP3   OH244117   2.692   6.290   5.542  0.9500  0.3969 -0.1361
14725TIP3    H144118   2.620   6.230   5.519  0.4501  1.2173 -0.7786
14725TIP3    H244119   2.725   6.320   5.458  0.6940  1.5967  0.1765
14726TIP3   OH244120   5.268   2.411   2.510  0.1756 -0.0618 -0.1147
14726TIP3    H144121   5.203   2.476   2.484 -0.0375 -0.6670 -1.1777
14726TIP3    H244122   5.229   2.327   2.483  0.9319 -0.5258  0.2136
14727TIP3   OH244123   2.677   2.136   6.720 -0.4877 -0.7867 -0.2402
14727TIP3    H144124   2.729   2.178   6.788  0.8796 -1.3134 -0.8993
14727TIP3    H244125   2.650   2.207   6.662  0.6305 -0.6219 -0.5871
14728TIP3   OH244126   5.712   1.480   0.966 -0.1070  0.3716  0.6159
14728TIP3    H144127   5.672   1.547   0.910 -0.1237 -1.0350 -1.1601
14728TIP3    H244128   5.643   1.416   0.980  0.4592 -0.2516  0.6186
14729TIP3   OH244129   8.097   1.296   2.077 -0.2453 -0.0993 -0.9579
14729TIP3    H144130   8.124   1.380   2.113 -1.7573  0.0053 -0.0164
14729TIP3    H244131   8.141   1.231   2.131  0.1255  0.0654 -1.0562
14730TIP3   OH244132   4.638   4.989   4.881 -0.0341  0.3176 -0.7058
14730TIP3    H144133   4.695   4.927   4.836  1.1961  2.8374 -2.9231
14730TIP3    H244134   4.666   5.075   4.849 -1.7347  2.0613  2.0362
14731TIP3   OH244135   1.259   6.153   1.213  0.4537 -0.0033  0.4084
14731TIP3    H144136   1.333   6.168   1.155 -0.0817  0.8031 -0.0870
14731TIP3    H244137   1.186   6.200   1.172 -0.5552 -1.5019  0.4335
14732TIP3   OH244138   1.742   6.454   3.616 -0.2234 -0.1098  0.6247
14732TIP3    H144139   1.821   6.508   3.621  0.2085 -0.8177  2.0018
14732TIP3    H244140   1.771   6.373   3.574 -0.5630  0.1926 -0.2073
14733TIP3   OH244141   2.411   3.622   4.941 -0.4005  0.2744  0.6379
14733TIP3    H144142   2.467   3.612   4.865  0.5047  1.6396  1.0811
14733TIP3    H244143   2.443   3.701   4.984 -2.4782  0.9507  1.0736
14734TIP3   OH244144   1.059   1.307   3.195 -0.6072 -0.1298  0.2252
14734TIP3    H144145   1.067   1.286   3.102 -1.0328  0.1158  0.1321
14734TIP3    H244146   1.129   1.257   3.237 -0.1422  0.0969 -0.2759
14735TIP3   OH244147   7.394   5.192   2.393  0.3633  0.1035 -0.5115
14735TIP3    H144148   7.353   5.247   2.460 -1.7434 -0.3185 -1.3514
14735TIP3    H244149   7.454   5.135   2.441  1.7728  2.3161  0.5204
14736TIP3   OH244150   2.717   7.402   3.585  0.2293  0.3283  0.1477
14736TIP3    H144151   2.806   7.388   3.551  0.3126 -0.6882  0.7148
14736TIP3    H244152   2.673   7.318   3.570 -0.5956  0.7813 -0.0022
14737TIP3   OH244153   0.855   5.781   0.450  0.3735  0.3553  0.0433
14737TIP3    H144154   0.788   5.738   0.396  1.1026  0.6652 -1.1507
14737TIP3    H244155   0.821   5.775   0.540 -0.1203 -1.6060 -0.2314
14738TIP3   OH244156   4.918   4.969   0.046  0.6465  0.2798 -0.2227
14738TIP3    H144157   4.936   4.878   0.021  0.5499  0.6001 -1.5832
14738TIP3    H244158   4.842   4.994  -0.007  0.2493  0.9537  0.6311
14739TIP3   OH244159   0.049   2.531   0.636 -0.2326  0.1744 -0.6242
14739TIP3    H144160  -0.032   2.557   0.593 -0.4861  0.8985  0.2685
14739TIP3    H244161   0.082   2.611   0.677 -0.0109 -0.4944  0.5420
14740TIP3   OH244162   5.732   0.780   5.788  0.8091 -0.1665 -0.3907
14740TIP3    H144163   5.669   0.852   5.787  2.8404  1.7131 -0.6653
14740TIP3    H244164   5.678   0.701   5.783 -1.5193  1.3054 -0.0777
14741TIP3   OH244165   3.344   6.607   6.369  0.3667 -0.3317 -0.1642
14741TIP3    H144166   3.327   6.655   6.288  1.0115  0.2638  0.0387
14741TIP3    H244167   3.361   6.517   6.340  0.7239 -0.0974 -0.7135
14742TIP3   OH244168   6.840   3.669   3.709  0.3607 -0.7807  0.2362
14742TIP3    H144169   6.889   3.747   3.734 -0.6859  0.0400 -0.2116
14742TIP3    H244170   6.887   3.633   3.634  0.0453  0.2488 -0.4728
14743TIP3   OH244171   6.558   0.329   0.483  0.0681  0.0269  1.0182
14743TIP3    H144172   6.601   0.337   0.568 -0.0697 -0.7746  1.1702
14743TIP3    H244173   6.607   0.261   0.438 -0.0015  0.2911  0.5430
14744TIP3   OH244174   7.537   7.209   4.665 -0.0238 -0.1978 -0.0029
14744TIP3    H144175   7.595   7.197   4.740  0.4541 -0.8594 -0.4694
14744TIP3    H244176   7.449   7.196   4.701  0.2598 -1.6101  0.2347
14745TIP3   OH244177   7.463   0.898   5.420  0.3081  0.7828 -0.4434
14745TIP3    H144178   7.393   0.859   5.367  0.1866 -0.7712  0.7761
14745TIP3    H244179   7.531   0.830   5.422  0.8626  1.3447  0.2817
14746TIP3   OH244180   1.087   0.862   1.656  0.3656  0.3227  0.4800
14746TIP3    H144181   1.001   0.905   1.656 -0.9026 -1.9959  1.7911
14746TIP3    H244182   1.112   0.859   1.748  1.1038 -0.4451  0.2646
14747TIP3   OH244183   7.498   1.291   4.653 -0.0541 -0.3711  0.0631
14747TIP3    H144184   7.589   1.318   4.664  0.1945 -1.5226  1.0230
14747TIP3    H244185   7.501   1.224   4.585  0.1716 -2.0593  1.6857
14748TIP3   OH244186   3.094   0.031   4.311  0.2354 -0.0067 -0.1668
14748TIP3    H144187   3.069  -0.026   4.238  1.7790 -0.5658 -0.2810
14748TIP3    H244188   3.184   0.058   4.292  0.0234  1.3677  0.5935
14749TIP3   OH244189   0.254   2.536   3.092 -0.3020  0.3476  0.7796
14749TIP3    H144190   0.185   2.513   3.154 -0.6625  0.3346  0.3789
14749TIP3    H244191   0.211   2.538   3.007  0.5987 -1.6847  0.2141
14750TIP3   OH244192   6.785   5.666   6.584 -0.4644  0.2669  0.0177
14750TIP3    H144193   6.853   5.606   6.554  0.3189  1.8594 -1.6156
14750TIP3    H244194   6.771   5.644   6.676  0.6386 -1.5777 -0.2127
14751TIP3   OH244195   6.366   1.284   2.746 -0.1706  0.4425 -0.2273
14751TIP3    H144196   6.329   1.353   2.691 -0.2998 -0.5503 -1.4439
14751TIP3    H244197   6.291   1.246   2.791 -0.2105  0.5617 -0.1950
14752TIP3   OH244198   6.055   0.863   0.267  0.2286 -0.0895  0.7575
14752TIP3    H144199   6.103   0.850   0.185  0.5839 -0.6234  1.0476
14752TIP3    H244200   6.010   0.947   0.255  1.1134  0.3514  0.4291
14753TIP3   OH244201   8.196   2.162   2.852 -0.5081  0.3519 -0.5465
14753TIP3    H144202   8.264   2.125   2.908 -0.0628  0.3955 -1.0437
14753TIP3    H244203   8.236   2.241   2.815 -1.0511  0.7160 -0.3710
14754TIP3   OH244204   5.744   4.052   5.423 -0.2086  0.7422  0.3422
14754TIP3    H144205   5.836   4.070   5.405 -0.3654  0.3159 -1.0090
14754TIP3    H244206   5.702   4.138   5.423 -0.0591  0.8268 -0.6308
14755TIP3   OH244207   4.056   7.734   4.791 -0.3196  0.2521  0.0703
14755TIP3    H144208   4.092   7.678   4.722  1.2752  0.9870  0.2633
14755TIP3    H244209   4.075   7.686   4.872 -1.0439 -0.0004  0.1006
14756TIP3   OH244210   0.223   3.208   5.666  0.0473  0.1299  0.3103
14756TIP3    H144211   0.252   3.272   5.731 -1.1558 -0.5197  1.5440
14756TIP3    H244212   0.128   3.215   5.667 -0.1833 -2.2723  1.1508
14757TIP3   OH244213   2.994   7.838   0.282 -0.0679 -0.4159 -0.3728
14757TIP3    H144214   2.940   7.798   0.214 -0.7637  0.3885 -0.3102
14757TIP3    H244215   3.065   7.775   0.297 -0.2695 -0.8937 -1.3730
14758TIP3   OH244216   7.228   0.158   1.768  0.7241 -0.2997  0.2413
14758TIP3    H144217   7.152   0.154   1.709 -0.4635  1.5301  1.5499
14758TIP3    H244218   7.197   0.118   1.849  1.5640 -0.6233  0.4064
14759TIP3   OH244219   2.064   5.294   4.425  0.1807 -0.2386 -0.5287
14759TIP3    H144220   2.050   5.388   4.440  0.4346 -0.3141  0.2517
14759TIP3    H244221   2.013   5.274   4.347  0.5965  0.6694 -1.0399
14760TIP3   OH244222   7.395   5.146   3.845 -0.8381  0.4228 -0.1980
14760TIP3    H144223   7.472   5.180   3.890 -1.0325  0.1736  0.3401
14760TIP3    H244224   7.323   5.202   3.875 -0.8856  0.5809 -0.6047
14761TIP3   OH244225   3.736   7.324   1.130 -0.2548  0.0821 -0.3528
14761TIP3    H144226   3.816   7.293   1.087  0.8212  1.3410  0.6420
14761TIP3    H244227   3.734   7.418   1.112 -1.4450  0.0945 -0.2310
14762TIP3   OH244228   6.173   2.441   4.308  0.1336 -0.2223 -0.1612
14762TIP3    H144229   6.254   2.469   4.351 -0.4557  2.5801 -0.6841
14762TIP3    H244230   6.202   2.392   4.231  1.2752 -0.7636  0.5952
14763TIP3   OH244231   3.570   4.087   1.388 -0.1795 -0.9336  0.2530
14763TIP3    H144232   3.514   4.122   1.457 -0.1576 -0.5219  0.0617
14763TIP3    H244233   3.646   4.145   1.387 -0.2189 -0.8895 -0.1777
14764TIP3   OH244234   6.470   5.674   3.087  0.2244  0.1533 -0.2592
14764TIP3    H144235   6.454   5.768   3.091 -1.3482  0.0520 -2.3200
14764TIP3    H244236   6.387   5.635   3.114  1.4685 -0.7708  2.6343
14765TIP3   OH244237   4.681   7.356   4.935 -0.3660  0.2440  0.0098
14765TIP3    H144238   4.715   7.269   4.955 -1.7259  0.2597  2.7707
14765TIP3    H244239   4.758   7.412   4.935  0.1769 -0.4784  1.2660
14766TIP3   OH244240   2.300   6.290   6.577 -0.3923 -0.4232  0.3547
14766TIP3    H144241   2.208   6.280   6.604  0.0358  0.4685  2.2896
14766TIP3    H244242   2.344   6.213   6.614 -0.1948 -0.3565  0.2553
14767TIP3   OH244243   1.237   4.051   5.455 -0.3704  0.8179  0.2134
14767TIP3    H144244   1.165   4.113   5.440  1.5009  2.5696 -2.3331
14767TIP3    H244245   1.281   4.045   5.371  1.3593 -1.7277  1.1899
14768TIP3   OH244246   3.138   5.646   3.724 -0.7691 -0.0766 -0.4673
14768TIP3    H144247   3.093   5.569   3.689  0.6133 -2.2174  2.0327
14768TIP3    H244248   3.229   5.635   3.697 -0.6761  1.0543 -0.6356
14769TIP3   OH244249   1.456   6.445   5.164  0.0659 -0.0938 -0.5096
14769TIP3    H144250   1.385   6.500   5.129  0.7363  0.1508 -1.5128
14769TIP3    H244251   1.506   6.419   5.087  0.9563 -0.4311  0.1752
14770TIP3   OH244252   4.004   6.419   2.231 -0.2158 -0.2167 -0.3316
14770TIP3    H144253   3.919   6.377   2.217 -1.4461  0.4849  3.7601
14770TIP3    H244254   4.056   6.352   2.276  1.2386 -0.4097 -2.2044
14771TIP3   OH244255   8.179   0.007   2.354 -0.1035 -0.4411 -0.0037
14771TIP3    H144256   8.174   0.093   2.395  0.7944 -0.9538  1.2287
14771TIP3    H244257   8.241  -0.042   2.408 -1.0301 -2.0491 -0.3440
14772TIP3   OH244258   6.309   1.003   3.622  0.4093 -0.9852  0.1095
14772TIP3    H144259   6.397   1.026   3.591 -0.0800 -1.4190 -1.7750
14772TIP3    H244260   6.291   1.065   3.692  1.9485 -0.4501  0.0797
14773TIP3   OH244261   2.650   6.381   1.742  0.1326  0.3146 -0.1098
14773TIP3    H144262   2.704   6.460   1.737  1.1201 -0.3358 -0.0872
14773TIP3    H244263   2.713   6.309   1.737 -0.6135 -0.4749  1.3014
14774TIP3   OH244264   5.560   7.716   2.558  0.1378 -0.6878 -0.2851
14774TIP3    H144265   5.648   7.717   2.520  0.2801 -0.4390  0.0439
14774TIP3    H244266   5.574   7.732   2.652 -0.3742  1.1457 -0.4799
14775TIP3   OH244267   7.816   6.703   6.492  0.1682  0.6582 -0.4432
14775TIP3    H144268   7.867   6.667   6.565 -0.0244  0.1896 -0.5319
14775TIP3    H244269   7.839   6.646   6.418  1.0807  1.6881 -0.9880
14776TIP3   OH244270   2.262   3.503   5.896  0.4170 -0.3927 -0.2696
14776TIP3    H144271   2.340   3.462   5.858  0.6852  0.3152 -0.4909
14776TIP3    H244272   2.296   3.555   5.969  0.1282 -0.2214 -0.2569
14777TIP3   OH244273   5.908   2.072   4.155  0.1753 -0.4169  0.2048
14777TIP3    H144274   5.989   2.032   4.122  0.8761 -0.5421  1.9974
14777TIP3    H244275   5.929   2.165   4.163 -0.8661  0.0906 -2.1884
14778TIP3   OH244276   6.044   6.650   3.228 -0.4051  0.1456  0.5350
14778TIP3    H144277   6.052   6.566   3.273  0.0563  0.5859  1.3120
14778TIP3    H244278   5.949   6.666   3.222 -0.5150 -0.7445 -0.2523
14779TIP3   OH244279   5.198   7.256   4.093  0.2207 -0.0309  0.2255
14779TIP3    H144280   5.155   7.313   4.030  0.6847  1.7054  1.3869
14779TIP3    H244281   5.143   7.261   4.171  1.3484  0.5268  1.0238
14780TIP3   OH244282   4.781   4.133   1.283  0.5676 -0.7418  0.4084
14780TIP3    H144283   4.694   4.104   1.309  0.5648 -1.5172 -0.3905
14780TIP3    H244284   4.819   4.056   1.239  2.0923 -0.8084  1.7527
14781TIP3   OH244285   3.312   2.534   2.296 -0.2727  0.0073  0.8466
14781TIP3    H144286   3.293   2.606   2.356 -0.1977 -0.0925  0.9942
14781TIP3    H244287   3.400   2.504   2.322  0.2235  0.6696 -0.0303
14782TIP3   OH244288   4.431   3.366   4.455 -0.0295 -0.0871  0.6865
14782TIP3    H144289   4.432   3.271   4.443  1.8184  0.0522 -0.8628
14782TIP3    H244290   4.346   3.394   4.420 -0.2553 -1.0866  0.4074
14783TIP3   OH244291   0.567   3.063   6.624  0.5979 -0.9385  0.0128
14783TIP3    H144292   0.487   3.016   6.649  0.6072 -0.8675  0.1800
14783TIP3    H244293   0.539   3.123   6.555 -0.3681  1.8744  2.6155
14784TIP3   OH244294   1.650   0.401   0.915 -0.1726  0.0222  0.2211
14784TIP3    H144295   1.717   0.401   0.847 -0.5814 -0.8447 -0.1894
14784TIP3    H244296   1.588   0.469   0.888  1.3810  2.1210  1.5047
14785TIP3   OH244297   5.513   0.322   5.015  0.0843  0.0548  0.4629
14785TIP3    H144298   5.494   0.323   5.108  1.7649 -1.3207  0.8671
14785TIP3    H244299   5.559   0.239   5.000  1.8251  1.2331 -1.1620
14786TIP3   OH244300   2.087   7.416   6.731  0.1182  0.6473 -0.0452
14786TIP3    H144301   2.010   7.388   6.682  1.1465  0.1632 -1.4345
14786TIP3    H244302   2.090   7.357   6.806 -0.4764  0.2276 -0.3364
14787TIP3   OH244303   2.248   7.161   3.694 -0.4083  0.1975  0.0376
14787TIP3    H144304   2.302   7.149   3.772 -2.1215 -0.9725  1.1390
14787TIP3    H244305   2.235   7.256   3.688 -0.4076  0.2984  1.3073
14788TIP3   OH244306   0.952   0.626   3.748  0.1009 -0.0857  0.1335
14788TIP3    H144307   1.045   0.649   3.759 -0.0643  1.6766 -1.6070
14788TIP3    H244308   0.907   0.710   3.744 -1.4449 -0.8947 -0.1484
14789TIP3   OH244309   1.132   1.846   4.481 -0.3968 -0.1567 -0.4620
14789TIP3    H144310   1.086   1.831   4.564  0.7150  1.1261  0.4335
14789TIP3    H244311   1.201   1.780   4.480 -0.8546 -0.6332 -0.7143
14790TIP3   OH244312   0.769   0.149   1.289 -0.2571  0.0380 -0.5959
14790TIP3    H144313   0.681   0.115   1.272 -0.2276 -0.3130 -0.0592
14790TIP3    H244314   0.755   0.243   1.306 -0.4726  0.0737 -0.9558
14791TIP3   OH244315   2.411   5.275   6.296  0.4540  0.1616  0.0668
14791TIP3    H144316   2.464   5.307   6.369 -1.1961  2.4823  0.3302
14791TIP3    H244317   2.439   5.328   6.221  0.1843 -0.2738 -0.3499
14792TIP3   OH244318   1.270   1.715   5.514 -0.2600  0.0045  0.6170
14792TIP3    H144319   1.289   1.748   5.602  2.1365 -0.4126  0.3386
14792TIP3    H244320   1.306   1.783   5.456 -2.3945  0.5947 -0.1018
14793TIP3   OH244321   2.101   5.746   3.476 -0.2268 -0.4218  0.0779
14793TIP3    H144322   2.059   5.799   3.543  0.9771 -0.6884  1.0834
14793TIP3    H244323   2.097   5.800   3.397  0.0413  0.7365  0.8242
14794TIP3   OH244324   0.425   0.866   5.877  0.0180 -0.2400  0.6596
14794TIP3    H144325   0.412   0.800   5.945  1.2924 -0.2744  0.9032
14794TIP3    H244326   0.515   0.852   5.847 -0.6094 -0.4614 -1.3125
14795TIP3   OH244327   3.135   4.456   4.022  0.4636 -0.4774  0.1078
14795TIP3    H144328   3.223   4.467   4.058  0.7995 -1.5045 -0.3596
14795TIP3    H244329   3.092   4.541   4.037  1.6523  0.1658 -0.0114
14796TIP3   OH244330   7.381   0.674   3.944  0.0923  0.3400 -0.0409
14796TIP3    H144331   7.474   0.655   3.954  0.3241  0.7154 -1.2536
14796TIP3    H244332   7.347   0.676   4.033  1.1153 -0.4135  0.3876
14797TIP3   OH244333   5.676   5.139   1.621  0.2045  0.0788 -0.2689
14797TIP3    H144334   5.583   5.128   1.601  0.4088  1.4560 -2.2391
14797TIP3    H244335   5.678   5.207   1.689 -0.2631 -1.0411  0.9058
14798TIP3   OH244336   4.120   6.777   2.403  0.0929 -0.1989  0.9691
14798TIP3    H144337   4.133   6.864   2.365 -0.1433 -0.4651  0.2474
14798TIP3    H244338   4.160   6.717   2.339 -1.0430 -0.7209  0.7110
14799TIP3   OH244339   1.455   0.570   5.425 -0.0100 -0.2488 -0.2702
14799TIP3    H144340   1.399   0.590   5.500 -1.1997 -1.1286 -0.8877
14799TIP3    H244341   1.431   0.480   5.401  1.1596 -0.3833 -1.0126
14800TIP3   OH244342   3.756   6.669   1.849  0.2862 -0.0317  0.5278
14800TIP3    H144343   3.785   6.726   1.921 -1.8270  1.0210  0.6149
14800TIP3    H244344   3.665   6.649   1.869  0.6837 -2.7173 -0.0315
14801TIP3   OH244345   2.989   7.299   5.148 -0.1825  0.0904 -0.2282
14801TIP3    H144346   3.018   7.342   5.229  0.1235  1.0267 -0.8242
14801TIP3    H244347   2.909   7.345   5.124  0.8458  1.2331 -1.5771
14802TIP3   OH244348   2.091   6.199   0.190  0.0262 -0.4431 -0.3244
14802TIP3    H144349   1.997   6.180   0.190 -0.4744  1.6514  1.1348
14802TIP3    H244350   2.105   6.249   0.109 -1.2469  3.4878  1.6140
14803TIP3   OH244351   6.819   1.737   1.329  0.2891 -0.3737 -0.1894
14803TIP3    H144352   6.871   1.668   1.370  0.1802 -0.3672 -0.0378
14803TIP3    H244353   6.775   1.694   1.256  3.5099  0.4066 -2.8612
14804TIP3   OH244354   4.597   6.154   2.688 -0.2106  0.0828  0.3706
14804TIP3    H144355   4.565   6.076   2.735  0.8658 -1.4026 -1.2401
14804TIP3    H244356   4.553   6.151   2.603  1.2817  0.1319 -0.4314
14805TIP3   OH244357   7.885   1.762   5.693 -0.2626 -0.1073  0.3843
14805TIP3    H144358   7.952   1.806   5.745 -0.3536  2.0042 -1.1771
14805TIP3    H244359   7.928   1.684   5.658  0.2722 -0.6808  2.2011
14806TIP3   OH244360   3.315   3.505   1.549  0.2661 -0.4884  0.5336
14806TIP3    H144361   3.254   3.441   1.585  1.4437 -1.7724  0.3021
14806TIP3    H244362   3.360   3.542   1.625  0.7050 -1.0968  0.5727
14807TIP3   OH244363   2.321   7.117   3.984  0.0131  0.5819  0.0976
14807TIP3    H144364   2.250   7.093   4.043 -0.6030  1.3981 -0.2749
14807TIP3    H244365   2.400   7.080   4.023 -0.8793 -2.4855 -0.7212
14808TIP3   OH244366   2.223   3.449   5.179  0.1274  0.3838 -0.3374
14808TIP3    H144367   2.256   3.379   5.235  1.4671  0.8760 -0.4682
14808TIP3    H244368   2.235   3.417   5.090  2.3231  1.3687 -0.4699
14809TIP3   OH244369   7.539   1.774   4.211  0.1452 -0.4075  0.3886
14809TIP3    H144370   7.498   1.768   4.297  1.6353 -0.0965  1.1335
14809TIP3    H244371   7.597   1.698   4.206  0.3377 -0.2329 -0.1987
14810TIP3   OH244372   6.099   6.458   4.597  0.4828  0.2188  0.1092
14810TIP3    H144373   6.126   6.368   4.617  0.7392  0.6005  1.6271
14810TIP3    H244374   6.048   6.485   4.673 -0.1250  1.1590 -0.6120
14811TIP3   OH244375   1.012   5.974   1.590  0.0187 -0.4133  0.3453
14811TIP3    H144376   1.078   5.906   1.576 -1.2150 -1.4728 -0.6866
14811TIP3    H244377   0.994   6.008   1.502 -0.7792 -0.1393  0.6020
14812TIP3   OH244378   6.417   7.340   0.652  0.2414 -0.5434  0.0855
14812TIP3    H144379   6.397   7.306   0.564  0.3989  1.0740 -0.6047
14812TIP3    H244380   6.402   7.265   0.710 -0.3429 -1.5155 -1.2579
14813TIP3   OH244381   5.765   2.829   6.759 -0.3941  0.0264  0.0016
14813TIP3    H144382   5.671   2.849   6.761 -0.6515 -1.0865  0.0318
14813TIP3    H244383   5.806   2.903   6.803 -1.2572  0.5556 -0.0506
14814TIP3   OH244384   0.551   0.852   3.163  0.0933  0.4497  0.1969
14814TIP3    H144385   0.490   0.894   3.223  0.3371 -1.8098  2.1714
14814TIP3    H244386   0.638   0.871   3.198  0.2858 -0.1207  0.0517
14815TIP3   OH244387   1.203   2.755   6.634  0.2367 -0.5603 -0.2043
14815TIP3    H144388   1.223   2.788   6.721 -2.3826  0.9903 -0.0834
14815TIP3    H244389   1.141   2.684   6.648 -1.0739  0.4087 -0.7465
14816TIP3   OH244390   8.167   6.440   0.944 -0.4251 -0.0459  0.3540
14816TIP3    H144391   8.167   6.445   0.848  1.3009  0.6832  0.3403
14816TIP3    H244392   8.101   6.375   0.965 -0.8286 -0.2368 -1.3354
14817TIP3   OH244393   4.900   6.752   0.870  0.4964 -0.7846  1.4537
14817TIP3    H144394   4.876   6.744   0.963  0.2242  1.8525  1.7011
14817TIP3    H244395   4.992   6.778   0.871  0.9418 -2.2696  0.8821
14818TIP3   OH244396   2.877   6.490   5.653 -0.6300  0.2475  0.2700
14818TIP3    H144397   2.809   6.430   5.621  0.6309 -0.2645 -1.5925
14818TIP3    H244398   2.846   6.577   5.627  0.2283 -0.1273 -2.3355
14819TIP3   OH244399   1.310   1.925   1.521  0.1106 -0.3158  0.2992
14819TIP3    H144400   1.264   1.884   1.447  0.6954  0.3063 -0.4260
14819TIP3    H244401   1.291   2.018   1.513  3.5161  0.3901 -1.6162
14820TIP3   OH244402   3.437   1.845   5.016 -0.0320 -0.6203 -0.2119
14820TIP3    H144403   3.474   1.925   5.052 -2.3477  0.5447 -0.2060
14820TIP3    H244404   3.389   1.806   5.089 -2.9961  0.6524 -1.2942
14821TIP3   OH244405   1.878   3.282   0.140  0.3840  0.4182 -0.3596
14821TIP3    H144406   1.855   3.203   0.189  0.5058 -0.0857 -1.0863
14821TIP3    H244407   1.825   3.351   0.179 -1.6402 -0.4994 -1.2863
14822TIP3   OH244408   2.729   5.200   6.493  0.2731  0.0950 -0.2566
14822TIP3    H144409   2.677   5.125   6.523 -1.6939  1.5402  0.1458
14822TIP3    H244410   2.716   5.202   6.398  0.6746 -0.3096 -0.3223
14823TIP3   OH244411   6.313   1.898   0.103  0.1847 -0.2530  0.2513
14823TIP3    H144412   6.401   1.936   0.099  0.1110 -0.1384 -0.3918
14823TIP3    H244413   6.254   1.973   0.109  0.0625 -0.2741 -0.5936
14824TIP3   OH244414   3.217   2.177   1.453  0.4279 -0.2485  0.1639
14824TIP3    H144415   3.275   2.123   1.506 -0.0218  0.6793  1.6730
14824TIP3    H244416   3.214   2.134   1.368  2.4086 -0.9505  0.3954
14825TIP3   OH244417   7.726   4.555   3.222  0.4916  0.3463 -0.4431
14825TIP3    H144418   7.809   4.517   3.252  0.8580  2.1608  0.9799
14825TIP3    H244419   7.672   4.479   3.198  1.9792 -0.9404  0.1319
14826TIP3   OH244420   3.866   3.396   6.275  0.3059  0.3501  0.5416
14826TIP3    H144421   3.905   3.479   6.247 -4.0606  2.7251  0.5710
14826TIP3    H244422   3.834   3.414   6.364 -3.4550 -0.1116 -0.5473
14827TIP3   OH244423   4.178   6.900   6.582 -0.1273  0.3314 -0.2642
14827TIP3    H144424   4.197   6.809   6.563  0.7148  0.8573 -2.1535
14827TIP3    H244425   4.088   6.913   6.551  0.1171  0.3929 -0.9530
14828TIP3   OH244426   6.824   3.608   6.677  0.0138  0.7486 -0.3090
14828TIP3    H144427   6.853   3.584   6.765 -0.6529 -1.4217 -0.6367
14828TIP3    H244428   6.731   3.629   6.687  0.1619  1.4406 -0.3439
14829TIP3   OH244429   0.335   6.069   5.618 -0.1441  0.5711 -0.3244
14829TIP3    H144430   0.356   6.112   5.535  0.7759  0.2328 -0.2766
14829TIP3    H244431   0.400   5.999   5.627  0.2316  1.0546  1.0287
14830TIP3   OH244432   5.594   3.552   2.390  0.2672 -0.3952 -0.3055
14830TIP3    H144433   5.632   3.497   2.321 -0.3032 -1.5498  0.2666
14830TIP3    H244434   5.542   3.617   2.344  0.7735 -0.4755 -0.9976
   8.30260   7.82776   6.77904   0.00000   0.00000  -2.76753   0.00000  -2.76753  -3.91388
