;;
;; Generated by CHARMM-GUI FF-Converter
;;
;; Correspondance:
;; jul316@lehigh.edu or wonpil@lehigh.edu
;;
;; GROMACS topology file for PROA
;;


[ moleculetype ]
; name	nrexcl
PROA	     3

[ atoms ]
; nr	type	resnr	residu	atom	cgnr	charge	mass
     1        NH3      1      GLY      N      1    -0.300000    14.0070   ; qtot -0.300
     2         HC      1      GLY    HT1      2     0.330000     1.0080   ; qtot  0.030
     3         HC      1      GLY    HT2      3     0.330000     1.0080   ; qtot  0.360
     4         HC      1      GLY    HT3      4     0.330000     1.0080   ; qtot  0.690
     5        CT2      1      GLY     CA      5     0.130000    12.0110   ; qtot  0.820
     6        HB2      1      GLY    HA1      6     0.090000     1.0080   ; qtot  0.910
     7        HB2      1      GLY    HA2      7     0.090000     1.0080   ; qtot  1.000
     8          C      1      GLY      C      8     0.510000    12.0110   ; qtot  1.510
     9          O      1      GLY      O      9    -0.510000    15.9994   ; qtot  1.000
    10          N      2      PRO      N     10    -0.290000    14.0070   ; qtot  0.710
    11        CP3      2      PRO     CD     11     0.000000    12.0110   ; qtot  0.710
    12        HA2      2      PRO    HD1     12     0.090000     1.0080   ; qtot  0.800
    13        HA2      2      PRO    HD2     13     0.090000     1.0080   ; qtot  0.890
    14        CP1      2      PRO     CA     14     0.020000    12.0110   ; qtot  0.910
    15        HB1      2      PRO     HA     15     0.090000     1.0080   ; qtot  1.000
    16        CP2      2      PRO     CB     16    -0.180000    12.0110   ; qtot  0.820
    17        HA2      2      PRO    HB1     17     0.090000     1.0080   ; qtot  0.910
    18        HA2      2      PRO    HB2     18     0.090000     1.0080   ; qtot  1.000
    19        CP2      2      PRO     CG     19    -0.180000    12.0110   ; qtot  0.820
    20        HA2      2      PRO    HG1     20     0.090000     1.0080   ; qtot  0.910
    21        HA2      2      PRO    HG2     21     0.090000     1.0080   ; qtot  1.000
    22          C      2      PRO      C     22     0.510000    12.0110   ; qtot  1.510
    23          O      2      PRO      O     23    -0.510000    15.9994   ; qtot  1.000
    24        NH1      3      GLY      N     24    -0.470000    14.0070   ; qtot  0.530
    25          H      3      GLY     HN     25     0.310000     1.0080   ; qtot  0.840
    26        CT2      3      GLY     CA     26    -0.020000    12.0110   ; qtot  0.820
    27        HB2      3      GLY    HA1     27     0.090000     1.0080   ; qtot  0.910
    28        HB2      3      GLY    HA2     28     0.090000     1.0080   ; qtot  1.000
    29          C      3      GLY      C     29     0.510000    12.0110   ; qtot  1.510
    30          O      3      GLY      O     30    -0.510000    15.9994   ; qtot  1.000
    31        NH1      4      ASP      N     31    -0.470000    14.0070   ; qtot  0.530
    32          H      4      ASP     HN     32     0.310000     1.0080   ; qtot  0.840
    33        CT1      4      ASP     CA     33     0.070000    12.0110   ; qtot  0.910
    34        HB1      4      ASP     HA     34     0.090000     1.0080   ; qtot  1.000
    35       CT2A      4      ASP     CB     35    -0.280000    12.0110   ; qtot  0.720
    36        HA2      4      ASP    HB1     36     0.090000     1.0080   ; qtot  0.810
    37        HA2      4      ASP    HB2     37     0.090000     1.0080   ; qtot  0.900
    38         CC      4      ASP     CG     38     0.620000    12.0110   ; qtot  1.520
    39         OC      4      ASP    OD1     39    -0.760000    15.9994   ; qtot  0.760
    40         OC      4      ASP    OD2     40    -0.760000    15.9994   ; qtot -0.000
    41          C      4      ASP      C     41     0.510000    12.0110   ; qtot  0.510
    42          O      4      ASP      O     42    -0.510000    15.9994   ; qtot -0.000
    43          N      5      PRO      N     43    -0.290000    14.0070   ; qtot -0.290
    44        CP3      5      PRO     CD     44     0.000000    12.0110   ; qtot -0.290
    45        HA2      5      PRO    HD1     45     0.090000     1.0080   ; qtot -0.200
    46        HA2      5      PRO    HD2     46     0.090000     1.0080   ; qtot -0.110
    47        CP1      5      PRO     CA     47     0.020000    12.0110   ; qtot -0.090
    48        HB1      5      PRO     HA     48     0.090000     1.0080   ; qtot -0.000
    49        CP2      5      PRO     CB     49    -0.180000    12.0110   ; qtot -0.180
    50        HA2      5      PRO    HB1     50     0.090000     1.0080   ; qtot -0.090
    51        HA2      5      PRO    HB2     51     0.090000     1.0080   ; qtot -0.000
    52        CP2      5      PRO     CG     52    -0.180000    12.0110   ; qtot -0.180
    53        HA2      5      PRO    HG1     53     0.090000     1.0080   ; qtot -0.090
    54        HA2      5      PRO    HG2     54     0.090000     1.0080   ; qtot -0.000
    55          C      5      PRO      C     55     0.510000    12.0110   ; qtot  0.510
    56          O      5      PRO      O     56    -0.510000    15.9994   ; qtot -0.000
    57        NH1      6      GLY      N     57    -0.470000    14.0070   ; qtot -0.470
    58          H      6      GLY     HN     58     0.310000     1.0080   ; qtot -0.160
    59        CT2      6      GLY     CA     59    -0.020000    12.0110   ; qtot -0.180
    60        HB2      6      GLY    HA1     60     0.090000     1.0080   ; qtot -0.090
    61        HB2      6      GLY    HA2     61     0.090000     1.0080   ; qtot -0.000
    62          C      6      GLY      C     62     0.510000    12.0110   ; qtot  0.510
    63          O      6      GLY      O     63    -0.510000    15.9994   ; qtot -0.000
    64          N      7      PRO      N     64    -0.290000    14.0070   ; qtot -0.290
    65        CP3      7      PRO     CD     65     0.000000    12.0110   ; qtot -0.290
    66        HA2      7      PRO    HD1     66     0.090000     1.0080   ; qtot -0.200
    67        HA2      7      PRO    HD2     67     0.090000     1.0080   ; qtot -0.110
    68        CP1      7      PRO     CA     68     0.020000    12.0110   ; qtot -0.090
    69        HB1      7      PRO     HA     69     0.090000     1.0080   ; qtot -0.000
    70        CP2      7      PRO     CB     70    -0.180000    12.0110   ; qtot -0.180
    71        HA2      7      PRO    HB1     71     0.090000     1.0080   ; qtot -0.090
    72        HA2      7      PRO    HB2     72     0.090000     1.0080   ; qtot -0.000
    73        CP2      7      PRO     CG     73    -0.180000    12.0110   ; qtot -0.180
    74        HA2      7      PRO    HG1     74     0.090000     1.0080   ; qtot -0.090
    75        HA2      7      PRO    HG2     75     0.090000     1.0080   ; qtot -0.000
    76          C      7      PRO      C     76     0.510000    12.0110   ; qtot  0.510
    77          O      7      PRO      O     77    -0.510000    15.9994   ; qtot -0.000
    78        NH1      8      GLY      N     78    -0.470000    14.0070   ; qtot -0.470
    79          H      8      GLY     HN     79     0.310000     1.0080   ; qtot -0.160
    80        CT2      8      GLY     CA     80    -0.020000    12.0110   ; qtot -0.180
    81        HB2      8      GLY    HA1     81     0.090000     1.0080   ; qtot -0.090
    82        HB2      8      GLY    HA2     82     0.090000     1.0080   ; qtot -0.000
    83          C      8      GLY      C     83     0.510000    12.0110   ; qtot  0.510
    84          O      8      GLY      O     84    -0.510000    15.9994   ; qtot -0.000
    85        NH1      9      ASP      N     85    -0.470000    14.0070   ; qtot -0.470
    86          H      9      ASP     HN     86     0.310000     1.0080   ; qtot -0.160
    87        CT1      9      ASP     CA     87     0.070000    12.0110   ; qtot -0.090
    88        HB1      9      ASP     HA     88     0.090000     1.0080   ; qtot -0.000
    89       CT2A      9      ASP     CB     89    -0.280000    12.0110   ; qtot -0.280
    90        HA2      9      ASP    HB1     90     0.090000     1.0080   ; qtot -0.190
    91        HA2      9      ASP    HB2     91     0.090000     1.0080   ; qtot -0.100
    92         CC      9      ASP     CG     92     0.620000    12.0110   ; qtot  0.520
    93         OC      9      ASP    OD1     93    -0.760000    15.9994   ; qtot -0.240
    94         OC      9      ASP    OD2     94    -0.760000    15.9994   ; qtot -1.000
    95          C      9      ASP      C     95     0.510000    12.0110   ; qtot -0.490
    96          O      9      ASP      O     96    -0.510000    15.9994   ; qtot -1.000
    97          N     10      PRO      N     97    -0.290000    14.0070   ; qtot -1.290
    98        CP3     10      PRO     CD     98     0.000000    12.0110   ; qtot -1.290
    99        HA2     10      PRO    HD1     99     0.090000     1.0080   ; qtot -1.200
   100        HA2     10      PRO    HD2    100     0.090000     1.0080   ; qtot -1.110
   101        CP1     10      PRO     CA    101     0.020000    12.0110   ; qtot -1.090
   102        HB1     10      PRO     HA    102     0.090000     1.0080   ; qtot -1.000
   103        CP2     10      PRO     CB    103    -0.180000    12.0110   ; qtot -1.180
   104        HA2     10      PRO    HB1    104     0.090000     1.0080   ; qtot -1.090
   105        HA2     10      PRO    HB2    105     0.090000     1.0080   ; qtot -1.000
   106        CP2     10      PRO     CG    106    -0.180000    12.0110   ; qtot -1.180
   107        HA2     10      PRO    HG1    107     0.090000     1.0080   ; qtot -1.090
   108        HA2     10      PRO    HG2    108     0.090000     1.0080   ; qtot -1.000
   109          C     10      PRO      C    109     0.510000    12.0110   ; qtot -0.490
   110          O     10      PRO      O    110    -0.510000    15.9994   ; qtot -1.000
   111        NH1     11      GLY      N    111    -0.470000    14.0070   ; qtot -1.470
   112          H     11      GLY     HN    112     0.310000     1.0080   ; qtot -1.160
   113        CT2     11      GLY     CA    113    -0.020000    12.0110   ; qtot -1.180
   114        HB2     11      GLY    HA1    114     0.090000     1.0080   ; qtot -1.090
   115        HB2     11      GLY    HA2    115     0.090000     1.0080   ; qtot -1.000
   116          C     11      GLY      C    116     0.510000    12.0110   ; qtot -0.490
   117          O     11      GLY      O    117    -0.510000    15.9994   ; qtot -1.000
   118          N     12      PRO      N    118    -0.290000    14.0070   ; qtot -1.290
   119        CP3     12      PRO     CD    119     0.000000    12.0110   ; qtot -1.290
   120        HA2     12      PRO    HD1    120     0.090000     1.0080   ; qtot -1.200
   121        HA2     12      PRO    HD2    121     0.090000     1.0080   ; qtot -1.110
   122        CP1     12      PRO     CA    122     0.020000    12.0110   ; qtot -1.090
   123        HB1     12      PRO     HA    123     0.090000     1.0080   ; qtot -1.000
   124        CP2     12      PRO     CB    124    -0.180000    12.0110   ; qtot -1.180
   125        HA2     12      PRO    HB1    125     0.090000     1.0080   ; qtot -1.090
   126        HA2     12      PRO    HB2    126     0.090000     1.0080   ; qtot -1.000
   127        CP2     12      PRO     CG    127    -0.180000    12.0110   ; qtot -1.180
   128        HA2     12      PRO    HG1    128     0.090000     1.0080   ; qtot -1.090
   129        HA2     12      PRO    HG2    129     0.090000     1.0080   ; qtot -1.000
   130          C     12      PRO      C    130     0.510000    12.0110   ; qtot -0.490
   131          O     12      PRO      O    131    -0.510000    15.9994   ; qtot -1.000
   132        NH1     13      GLY      N    132    -0.470000    14.0070   ; qtot -1.470
   133          H     13      GLY     HN    133     0.310000     1.0080   ; qtot -1.160
   134        CT2     13      GLY     CA    134    -0.020000    12.0110   ; qtot -1.180
   135        HB2     13      GLY    HA1    135     0.090000     1.0080   ; qtot -1.090
   136        HB2     13      GLY    HA2    136     0.090000     1.0080   ; qtot -1.000
   137          C     13      GLY      C    137     0.510000    12.0110   ; qtot -0.490
   138          O     13      GLY      O    138    -0.510000    15.9994   ; qtot -1.000
   139        NH1     14      ASP      N    139    -0.470000    14.0070   ; qtot -1.470
   140          H     14      ASP     HN    140     0.310000     1.0080   ; qtot -1.160
   141        CT1     14      ASP     CA    141     0.070000    12.0110   ; qtot -1.090
   142        HB1     14      ASP     HA    142     0.090000     1.0080   ; qtot -1.000
   143       CT2A     14      ASP     CB    143    -0.280000    12.0110   ; qtot -1.280
   144        HA2     14      ASP    HB1    144     0.090000     1.0080   ; qtot -1.190
   145        HA2     14      ASP    HB2    145     0.090000     1.0080   ; qtot -1.100
   146         CC     14      ASP     CG    146     0.620000    12.0110   ; qtot -0.480
   147         OC     14      ASP    OD1    147    -0.760000    15.9994   ; qtot -1.240
   148         OC     14      ASP    OD2    148    -0.760000    15.9994   ; qtot -2.000
   149          C     14      ASP      C    149     0.510000    12.0110   ; qtot -1.490
   150          O     14      ASP      O    150    -0.510000    15.9994   ; qtot -2.000
   151          N     15      PRO      N    151    -0.290000    14.0070   ; qtot -2.290
   152        CP3     15      PRO     CD    152     0.000000    12.0110   ; qtot -2.290
   153        HA2     15      PRO    HD1    153     0.090000     1.0080   ; qtot -2.200
   154        HA2     15      PRO    HD2    154     0.090000     1.0080   ; qtot -2.110
   155        CP1     15      PRO     CA    155     0.020000    12.0110   ; qtot -2.090
   156        HB1     15      PRO     HA    156     0.090000     1.0080   ; qtot -2.000
   157        CP2     15      PRO     CB    157    -0.180000    12.0110   ; qtot -2.180
   158        HA2     15      PRO    HB1    158     0.090000     1.0080   ; qtot -2.090
   159        HA2     15      PRO    HB2    159     0.090000     1.0080   ; qtot -2.000
   160        CP2     15      PRO     CG    160    -0.180000    12.0110   ; qtot -2.180
   161        HA2     15      PRO    HG1    161     0.090000     1.0080   ; qtot -2.090
   162        HA2     15      PRO    HG2    162     0.090000     1.0080   ; qtot -2.000
   163         CC     15      PRO      C    163     0.340000    12.0110   ; qtot -1.660
   164         OC     15      PRO    OT1    164    -0.670000    15.9994   ; qtot -2.330
   165         OC     15      PRO    OT2    165    -0.670000    15.9994   ; qtot -3.000

[ bonds ]
; ai	aj	funct	b0	Kb
    2     1     1
    3     1     1
    4     1     1
    1     5     1
    5     6     1
    5     7     1
    8     5     1
    9     8     1
    8    10     1
   10    11     1
   10    14     1
   12    11     1
   13    11     1
   19    11     1
   15    14     1
   14    16     1
   22    14     1
   17    16     1
   18    16     1
   16    19     1
   20    19     1
   21    19     1
   23    22     1
   22    24     1
   24    25     1
   24    26     1
   26    27     1
   26    28     1
   29    26     1
   30    29     1
   29    31     1
   31    32     1
   31    33     1
   33    34     1
   35    33     1
   41    33     1
   35    36     1
   35    37     1
   38    35     1
   38    39     1
   40    38     1
   42    41     1
   41    43     1
   43    44     1
   43    47     1
   45    44     1
   46    44     1
   52    44     1
   48    47     1
   47    49     1
   55    47     1
   50    49     1
   51    49     1
   49    52     1
   53    52     1
   54    52     1
   56    55     1
   55    57     1
   57    58     1
   57    59     1
   59    60     1
   59    61     1
   62    59     1
   63    62     1
   62    64     1
   64    65     1
   64    68     1
   66    65     1
   67    65     1
   73    65     1
   69    68     1
   68    70     1
   76    68     1
   71    70     1
   72    70     1
   70    73     1
   74    73     1
   75    73     1
   77    76     1
   76    78     1
   78    79     1
   78    80     1
   80    81     1
   80    82     1
   83    80     1
   84    83     1
   83    85     1
   85    86     1
   85    87     1
   87    88     1
   89    87     1
   95    87     1
   89    90     1
   89    91     1
   92    89     1
   92    93     1
   94    92     1
   96    95     1
   95    97     1
   97    98     1
   97   101     1
   99    98     1
  100    98     1
  106    98     1
  102   101     1
  101   103     1
  109   101     1
  104   103     1
  105   103     1
  103   106     1
  107   106     1
  108   106     1
  110   109     1
  109   111     1
  111   112     1
  111   113     1
  113   114     1
  113   115     1
  116   113     1
  117   116     1
  116   118     1
  118   119     1
  118   122     1
  120   119     1
  121   119     1
  127   119     1
  123   122     1
  122   124     1
  130   122     1
  125   124     1
  126   124     1
  124   127     1
  128   127     1
  129   127     1
  131   130     1
  130   132     1
  132   133     1
  132   134     1
  134   135     1
  134   136     1
  137   134     1
  138   137     1
  137   139     1
  139   140     1
  139   141     1
  141   142     1
  143   141     1
  149   141     1
  143   144     1
  143   145     1
  146   143     1
  146   147     1
  148   146     1
  150   149     1
  149   151     1
  151   152     1
  151   155     1
  153   152     1
  154   152     1
  160   152     1
  156   155     1
  155   157     1
  163   155     1
  158   157     1
  159   157     1
  157   160     1
  161   160     1
  162   160     1
  163   164     1
  163   165     1

[ pairs ]
; ai	aj	funct	c6	c12 or
; ai	aj	funct	fudgeQQ	q1	q2	c6	c12
    1     9     1
    1    10     1
    2     6     1
    2     7     1
    2     8     1
    3     6     1
    3     7     1
    3     8     1
    4     6     1
    4     7     1
    4     8     1
    5    11     1
    5    14     1
    6     9     1
    6    10     1
    7     9     1
    7    10     1
    8    12     1
    8    13     1
    8    15     1
    8    16     1
    8    19     1
    8    22     1
    9    11     1
    9    14     1
   10    17     1
   10    18     1
   10    20     1
   10    21     1
   10    23     1
   10    24     1
   11    15     1
   11    17     1
   11    18     1
   11    22     1
   12    14     1
   12    16     1
   12    20     1
   12    21     1
   13    14     1
   13    16     1
   13    20     1
   13    21     1
   14    20     1
   14    21     1
   14    25     1
   14    26     1
   15    17     1
   15    18     1
   15    19     1
   15    23     1
   15    24     1
   16    23     1
   16    24     1
   17    20     1
   17    21     1
   17    22     1
   18    20     1
   18    21     1
   18    22     1
   19    22     1
   22    27     1
   22    28     1
   22    29     1
   23    25     1
   23    26     1
   24    30     1
   24    31     1
   25    27     1
   25    28     1
   25    29     1
   26    32     1
   26    33     1
   27    30     1
   27    31     1
   28    30     1
   28    31     1
   29    34     1
   29    35     1
   29    41     1
   30    32     1
   30    33     1
   31    36     1
   31    37     1
   31    38     1
   31    42     1
   31    43     1
   32    34     1
   32    35     1
   32    41     1
   33    39     1
   33    40     1
   33    44     1
   33    47     1
   34    36     1
   34    37     1
   34    38     1
   34    42     1
   34    43     1
   35    42     1
   35    43     1
   36    39     1
   36    40     1
   36    41     1
   37    39     1
   37    40     1
   37    41     1
   38    41     1
   41    45     1
   41    46     1
   41    48     1
   41    49     1
   41    52     1
   41    55     1
   42    44     1
   42    47     1
   43    50     1
   43    51     1
   43    53     1
   43    54     1
   43    56     1
   43    57     1
   44    48     1
   44    50     1
   44    51     1
   44    55     1
   45    47     1
   45    49     1
   45    53     1
   45    54     1
   46    47     1
   46    49     1
   46    53     1
   46    54     1
   47    53     1
   47    54     1
   47    58     1
   47    59     1
   48    50     1
   48    51     1
   48    52     1
   48    56     1
   48    57     1
   49    56     1
   49    57     1
   50    53     1
   50    54     1
   50    55     1
   51    53     1
   51    54     1
   51    55     1
   52    55     1
   55    60     1
   55    61     1
   55    62     1
   56    58     1
   56    59     1
   57    63     1
   57    64     1
   58    60     1
   58    61     1
   58    62     1
   59    65     1
   59    68     1
   60    63     1
   60    64     1
   61    63     1
   61    64     1
   62    66     1
   62    67     1
   62    69     1
   62    70     1
   62    73     1
   62    76     1
   63    65     1
   63    68     1
   64    71     1
   64    72     1
   64    74     1
   64    75     1
   64    77     1
   64    78     1
   65    69     1
   65    71     1
   65    72     1
   65    76     1
   66    68     1
   66    70     1
   66    74     1
   66    75     1
   67    68     1
   67    70     1
   67    74     1
   67    75     1
   68    74     1
   68    75     1
   68    79     1
   68    80     1
   69    71     1
   69    72     1
   69    73     1
   69    77     1
   69    78     1
   70    77     1
   70    78     1
   71    74     1
   71    75     1
   71    76     1
   72    74     1
   72    75     1
   72    76     1
   73    76     1
   76    81     1
   76    82     1
   76    83     1
   77    79     1
   77    80     1
   78    84     1
   78    85     1
   79    81     1
   79    82     1
   79    83     1
   80    86     1
   80    87     1
   81    84     1
   81    85     1
   82    84     1
   82    85     1
   83    88     1
   83    89     1
   83    95     1
   84    86     1
   84    87     1
   85    90     1
   85    91     1
   85    92     1
   85    96     1
   85    97     1
   86    88     1
   86    89     1
   86    95     1
   87    93     1
   87    94     1
   87    98     1
   87   101     1
   88    90     1
   88    91     1
   88    92     1
   88    96     1
   88    97     1
   89    96     1
   89    97     1
   90    93     1
   90    94     1
   90    95     1
   91    93     1
   91    94     1
   91    95     1
   92    95     1
   95    99     1
   95   100     1
   95   102     1
   95   103     1
   95   106     1
   95   109     1
   96    98     1
   96   101     1
   97   104     1
   97   105     1
   97   107     1
   97   108     1
   97   110     1
   97   111     1
   98   102     1
   98   104     1
   98   105     1
   98   109     1
   99   101     1
   99   103     1
   99   107     1
   99   108     1
  100   101     1
  100   103     1
  100   107     1
  100   108     1
  101   107     1
  101   108     1
  101   112     1
  101   113     1
  102   104     1
  102   105     1
  102   106     1
  102   110     1
  102   111     1
  103   110     1
  103   111     1
  104   107     1
  104   108     1
  104   109     1
  105   107     1
  105   108     1
  105   109     1
  106   109     1
  109   114     1
  109   115     1
  109   116     1
  110   112     1
  110   113     1
  111   117     1
  111   118     1
  112   114     1
  112   115     1
  112   116     1
  113   119     1
  113   122     1
  114   117     1
  114   118     1
  115   117     1
  115   118     1
  116   120     1
  116   121     1
  116   123     1
  116   124     1
  116   127     1
  116   130     1
  117   119     1
  117   122     1
  118   125     1
  118   126     1
  118   128     1
  118   129     1
  118   131     1
  118   132     1
  119   123     1
  119   125     1
  119   126     1
  119   130     1
  120   122     1
  120   124     1
  120   128     1
  120   129     1
  121   122     1
  121   124     1
  121   128     1
  121   129     1
  122   128     1
  122   129     1
  122   133     1
  122   134     1
  123   125     1
  123   126     1
  123   127     1
  123   131     1
  123   132     1
  124   131     1
  124   132     1
  125   128     1
  125   129     1
  125   130     1
  126   128     1
  126   129     1
  126   130     1
  127   130     1
  130   135     1
  130   136     1
  130   137     1
  131   133     1
  131   134     1
  132   138     1
  132   139     1
  133   135     1
  133   136     1
  133   137     1
  134   140     1
  134   141     1
  135   138     1
  135   139     1
  136   138     1
  136   139     1
  137   142     1
  137   143     1
  137   149     1
  138   140     1
  138   141     1
  139   144     1
  139   145     1
  139   146     1
  139   150     1
  139   151     1
  140   142     1
  140   143     1
  140   149     1
  141   147     1
  141   148     1
  141   152     1
  141   155     1
  142   144     1
  142   145     1
  142   146     1
  142   150     1
  142   151     1
  143   150     1
  143   151     1
  144   147     1
  144   148     1
  144   149     1
  145   147     1
  145   148     1
  145   149     1
  146   149     1
  149   153     1
  149   154     1
  149   156     1
  149   157     1
  149   160     1
  149   163     1
  150   152     1
  150   155     1
  151   158     1
  151   159     1
  151   161     1
  151   162     1
  151   164     1
  151   165     1
  152   156     1
  152   158     1
  152   159     1
  152   163     1
  153   155     1
  153   157     1
  153   161     1
  153   162     1
  154   155     1
  154   157     1
  154   161     1
  154   162     1
  155   161     1
  155   162     1
  156   158     1
  156   159     1
  156   160     1
  156   164     1
  156   165     1
  157   164     1
  157   165     1
  158   161     1
  158   162     1
  158   163     1
  159   161     1
  159   162     1
  159   163     1
  160   163     1

[ angles ] 
; ai	aj	ak	funct	th0	cth	S0	Kub
    2     1     3     5
    2     1     4     5
    2     1     5     5
    3     1     4     5
    3     1     5     5
    4     1     5     5
    1     5     6     5
    1     5     7     5
    1     5     8     5
    6     5     7     5
    6     5     8     5
    7     5     8     5
    5     8     9     5
    5     8    10     5
    9     8    10     5
    8    10    11     5
    8    10    14     5
   11    10    14     5
   10    11    12     5
   10    11    13     5
   10    11    19     5
   12    11    13     5
   12    11    19     5
   13    11    19     5
   10    14    15     5
   10    14    16     5
   10    14    22     5
   15    14    16     5
   15    14    22     5
   16    14    22     5
   14    16    17     5
   14    16    18     5
   14    16    19     5
   17    16    18     5
   17    16    19     5
   18    16    19     5
   11    19    16     5
   11    19    20     5
   11    19    21     5
   16    19    20     5
   16    19    21     5
   20    19    21     5
   14    22    23     5
   14    22    24     5
   23    22    24     5
   22    24    25     5
   22    24    26     5
   25    24    26     5
   24    26    27     5
   24    26    28     5
   24    26    29     5
   27    26    28     5
   27    26    29     5
   28    26    29     5
   26    29    30     5
   26    29    31     5
   30    29    31     5
   29    31    32     5
   29    31    33     5
   32    31    33     5
   31    33    34     5
   31    33    35     5
   31    33    41     5
   34    33    35     5
   34    33    41     5
   35    33    41     5
   33    35    36     5
   33    35    37     5
   33    35    38     5
   36    35    37     5
   36    35    38     5
   37    35    38     5
   35    38    39     5
   35    38    40     5
   39    38    40     5
   33    41    42     5
   33    41    43     5
   42    41    43     5
   41    43    44     5
   41    43    47     5
   44    43    47     5
   43    44    45     5
   43    44    46     5
   43    44    52     5
   45    44    46     5
   45    44    52     5
   46    44    52     5
   43    47    48     5
   43    47    49     5
   43    47    55     5
   48    47    49     5
   48    47    55     5
   49    47    55     5
   47    49    50     5
   47    49    51     5
   47    49    52     5
   50    49    51     5
   50    49    52     5
   51    49    52     5
   44    52    49     5
   44    52    53     5
   44    52    54     5
   49    52    53     5
   49    52    54     5
   53    52    54     5
   47    55    56     5
   47    55    57     5
   56    55    57     5
   55    57    58     5
   55    57    59     5
   58    57    59     5
   57    59    60     5
   57    59    61     5
   57    59    62     5
   60    59    61     5
   60    59    62     5
   61    59    62     5
   59    62    63     5
   59    62    64     5
   63    62    64     5
   62    64    65     5
   62    64    68     5
   65    64    68     5
   64    65    66     5
   64    65    67     5
   64    65    73     5
   66    65    67     5
   66    65    73     5
   67    65    73     5
   64    68    69     5
   64    68    70     5
   64    68    76     5
   69    68    70     5
   69    68    76     5
   70    68    76     5
   68    70    71     5
   68    70    72     5
   68    70    73     5
   71    70    72     5
   71    70    73     5
   72    70    73     5
   65    73    70     5
   65    73    74     5
   65    73    75     5
   70    73    74     5
   70    73    75     5
   74    73    75     5
   68    76    77     5
   68    76    78     5
   77    76    78     5
   76    78    79     5
   76    78    80     5
   79    78    80     5
   78    80    81     5
   78    80    82     5
   78    80    83     5
   81    80    82     5
   81    80    83     5
   82    80    83     5
   80    83    84     5
   80    83    85     5
   84    83    85     5
   83    85    86     5
   83    85    87     5
   86    85    87     5
   85    87    88     5
   85    87    89     5
   85    87    95     5
   88    87    89     5
   88    87    95     5
   89    87    95     5
   87    89    90     5
   87    89    91     5
   87    89    92     5
   90    89    91     5
   90    89    92     5
   91    89    92     5
   89    92    93     5
   89    92    94     5
   93    92    94     5
   87    95    96     5
   87    95    97     5
   96    95    97     5
   95    97    98     5
   95    97   101     5
   98    97   101     5
   97    98    99     5
   97    98   100     5
   97    98   106     5
   99    98   100     5
   99    98   106     5
  100    98   106     5
   97   101   102     5
   97   101   103     5
   97   101   109     5
  102   101   103     5
  102   101   109     5
  103   101   109     5
  101   103   104     5
  101   103   105     5
  101   103   106     5
  104   103   105     5
  104   103   106     5
  105   103   106     5
   98   106   103     5
   98   106   107     5
   98   106   108     5
  103   106   107     5
  103   106   108     5
  107   106   108     5
  101   109   110     5
  101   109   111     5
  110   109   111     5
  109   111   112     5
  109   111   113     5
  112   111   113     5
  111   113   114     5
  111   113   115     5
  111   113   116     5
  114   113   115     5
  114   113   116     5
  115   113   116     5
  113   116   117     5
  113   116   118     5
  117   116   118     5
  116   118   119     5
  116   118   122     5
  119   118   122     5
  118   119   120     5
  118   119   121     5
  118   119   127     5
  120   119   121     5
  120   119   127     5
  121   119   127     5
  118   122   123     5
  118   122   124     5
  118   122   130     5
  123   122   124     5
  123   122   130     5
  124   122   130     5
  122   124   125     5
  122   124   126     5
  122   124   127     5
  125   124   126     5
  125   124   127     5
  126   124   127     5
  119   127   124     5
  119   127   128     5
  119   127   129     5
  124   127   128     5
  124   127   129     5
  128   127   129     5
  122   130   131     5
  122   130   132     5
  131   130   132     5
  130   132   133     5
  130   132   134     5
  133   132   134     5
  132   134   135     5
  132   134   136     5
  132   134   137     5
  135   134   136     5
  135   134   137     5
  136   134   137     5
  134   137   138     5
  134   137   139     5
  138   137   139     5
  137   139   140     5
  137   139   141     5
  140   139   141     5
  139   141   142     5
  139   141   143     5
  139   141   149     5
  142   141   143     5
  142   141   149     5
  143   141   149     5
  141   143   144     5
  141   143   145     5
  141   143   146     5
  144   143   145     5
  144   143   146     5
  145   143   146     5
  143   146   147     5
  143   146   148     5
  147   146   148     5
  141   149   150     5
  141   149   151     5
  150   149   151     5
  149   151   152     5
  149   151   155     5
  152   151   155     5
  151   152   153     5
  151   152   154     5
  151   152   160     5
  153   152   154     5
  153   152   160     5
  154   152   160     5
  151   155   156     5
  151   155   157     5
  151   155   163     5
  156   155   157     5
  156   155   163     5
  157   155   163     5
  155   157   158     5
  155   157   159     5
  155   157   160     5
  158   157   159     5
  158   157   160     5
  159   157   160     5
  152   160   157     5
  152   160   161     5
  152   160   162     5
  157   160   161     5
  157   160   162     5
  161   160   162     5
  155   163   164     5
  155   163   165     5
  164   163   165     5

[ dihedrals ]
; ai	aj	ak	al	funct	phi0	cp	mult
    2     1     5     6     9
    2     1     5     7     9
    2     1     5     8     9
    3     1     5     6     9
    3     1     5     7     9
    3     1     5     8     9
    4     1     5     6     9
    4     1     5     7     9
    4     1     5     8     9
    1     5     8     9     9
    1     5     8    10     9
    6     5     8     9     9
    6     5     8    10     9
    7     5     8     9     9
    7     5     8    10     9
    5     8    10    11     9
    5     8    10    14     9
    9     8    10    11     9
    9     8    10    14     9
    8    10    11    12     9
    8    10    11    13     9
    8    10    11    19     9
   14    10    11    19     9
    8    10    14    15     9
    8    10    14    16     9
    8    10    14    22     9
   11    10    14    15     9
   11    10    14    16     9
   11    10    14    22     9
   12    11    10    14     9
   13    11    10    14     9
   10    11    19    16     9
   10    11    19    20     9
   10    11    19    21     9
   12    11    19    16     9
   12    11    19    20     9
   12    11    19    21     9
   13    11    19    16     9
   13    11    19    20     9
   13    11    19    21     9
   10    14    16    17     9
   10    14    16    18     9
   10    14    16    19     9
   15    14    16    17     9
   15    14    16    18     9
   15    14    16    19     9
   10    14    22    23     9
   10    14    22    24     9
   15    14    22    23     9
   15    14    22    24     9
   16    14    22    23     9
   16    14    22    24     9
   17    16    14    22     9
   18    16    14    22     9
   19    16    14    22     9
   14    16    19    20     9
   14    16    19    21     9
   17    16    19    20     9
   17    16    19    21     9
   18    16    19    20     9
   18    16    19    21     9
   11    19    16    14     9
   11    19    16    17     9
   11    19    16    18     9
   14    22    24    25     9
   14    22    24    26     9
   23    22    24    25     9
   23    22    24    26     9
   22    24    26    27     9
   22    24    26    28     9
   22    24    26    29     9
   25    24    26    27     9
   25    24    26    28     9
   25    24    26    29     9
   24    26    29    30     9
   24    26    29    31     9
   27    26    29    30     9
   27    26    29    31     9
   28    26    29    30     9
   28    26    29    31     9
   26    29    31    32     9
   26    29    31    33     9
   30    29    31    32     9
   30    29    31    33     9
   29    31    33    34     9
   29    31    33    35     9
   29    31    33    41     9
   32    31    33    34     9
   32    31    33    35     9
   32    31    33    41     9
   31    33    35    36     9
   31    33    35    37     9
   31    33    35    38     9
   34    33    35    36     9
   34    33    35    37     9
   34    33    35    38     9
   31    33    41    42     9
   31    33    41    43     9
   34    33    41    42     9
   34    33    41    43     9
   35    33    41    42     9
   35    33    41    43     9
   36    35    33    41     9
   37    35    33    41     9
   38    35    33    41     9
   33    35    38    39     9
   33    35    38    40     9
   36    35    38    39     9
   36    35    38    40     9
   37    35    38    39     9
   37    35    38    40     9
   33    41    43    44     9
   33    41    43    47     9
   42    41    43    44     9
   42    41    43    47     9
   41    43    44    45     9
   41    43    44    46     9
   41    43    44    52     9
   47    43    44    52     9
   41    43    47    48     9
   41    43    47    49     9
   41    43    47    55     9
   44    43    47    48     9
   44    43    47    49     9
   44    43    47    55     9
   45    44    43    47     9
   46    44    43    47     9
   43    44    52    49     9
   43    44    52    53     9
   43    44    52    54     9
   45    44    52    49     9
   45    44    52    53     9
   45    44    52    54     9
   46    44    52    49     9
   46    44    52    53     9
   46    44    52    54     9
   43    47    49    50     9
   43    47    49    51     9
   43    47    49    52     9
   48    47    49    50     9
   48    47    49    51     9
   48    47    49    52     9
   43    47    55    56     9
   43    47    55    57     9
   48    47    55    56     9
   48    47    55    57     9
   49    47    55    56     9
   49    47    55    57     9
   50    49    47    55     9
   51    49    47    55     9
   52    49    47    55     9
   47    49    52    53     9
   47    49    52    54     9
   50    49    52    53     9
   50    49    52    54     9
   51    49    52    53     9
   51    49    52    54     9
   44    52    49    47     9
   44    52    49    50     9
   44    52    49    51     9
   47    55    57    58     9
   47    55    57    59     9
   56    55    57    58     9
   56    55    57    59     9
   55    57    59    60     9
   55    57    59    61     9
   55    57    59    62     9
   58    57    59    60     9
   58    57    59    61     9
   58    57    59    62     9
   57    59    62    63     9
   57    59    62    64     9
   60    59    62    63     9
   60    59    62    64     9
   61    59    62    63     9
   61    59    62    64     9
   59    62    64    65     9
   59    62    64    68     9
   63    62    64    65     9
   63    62    64    68     9
   62    64    65    66     9
   62    64    65    67     9
   62    64    65    73     9
   68    64    65    73     9
   62    64    68    69     9
   62    64    68    70     9
   62    64    68    76     9
   65    64    68    69     9
   65    64    68    70     9
   65    64    68    76     9
   66    65    64    68     9
   67    65    64    68     9
   64    65    73    70     9
   64    65    73    74     9
   64    65    73    75     9
   66    65    73    70     9
   66    65    73    74     9
   66    65    73    75     9
   67    65    73    70     9
   67    65    73    74     9
   67    65    73    75     9
   64    68    70    71     9
   64    68    70    72     9
   64    68    70    73     9
   69    68    70    71     9
   69    68    70    72     9
   69    68    70    73     9
   64    68    76    77     9
   64    68    76    78     9
   69    68    76    77     9
   69    68    76    78     9
   70    68    76    77     9
   70    68    76    78     9
   71    70    68    76     9
   72    70    68    76     9
   73    70    68    76     9
   68    70    73    74     9
   68    70    73    75     9
   71    70    73    74     9
   71    70    73    75     9
   72    70    73    74     9
   72    70    73    75     9
   65    73    70    68     9
   65    73    70    71     9
   65    73    70    72     9
   68    76    78    79     9
   68    76    78    80     9
   77    76    78    79     9
   77    76    78    80     9
   76    78    80    81     9
   76    78    80    82     9
   76    78    80    83     9
   79    78    80    81     9
   79    78    80    82     9
   79    78    80    83     9
   78    80    83    84     9
   78    80    83    85     9
   81    80    83    84     9
   81    80    83    85     9
   82    80    83    84     9
   82    80    83    85     9
   80    83    85    86     9
   80    83    85    87     9
   84    83    85    86     9
   84    83    85    87     9
   83    85    87    88     9
   83    85    87    89     9
   83    85    87    95     9
   86    85    87    88     9
   86    85    87    89     9
   86    85    87    95     9
   85    87    89    90     9
   85    87    89    91     9
   85    87    89    92     9
   88    87    89    90     9
   88    87    89    91     9
   88    87    89    92     9
   85    87    95    96     9
   85    87    95    97     9
   88    87    95    96     9
   88    87    95    97     9
   89    87    95    96     9
   89    87    95    97     9
   90    89    87    95     9
   91    89    87    95     9
   92    89    87    95     9
   87    89    92    93     9
   87    89    92    94     9
   90    89    92    93     9
   90    89    92    94     9
   91    89    92    93     9
   91    89    92    94     9
   87    95    97    98     9
   87    95    97   101     9
   96    95    97    98     9
   96    95    97   101     9
   95    97    98    99     9
   95    97    98   100     9
   95    97    98   106     9
  101    97    98   106     9
   95    97   101   102     9
   95    97   101   103     9
   95    97   101   109     9
   98    97   101   102     9
   98    97   101   103     9
   98    97   101   109     9
   99    98    97   101     9
  100    98    97   101     9
   97    98   106   103     9
   97    98   106   107     9
   97    98   106   108     9
   99    98   106   103     9
   99    98   106   107     9
   99    98   106   108     9
  100    98   106   103     9
  100    98   106   107     9
  100    98   106   108     9
   97   101   103   104     9
   97   101   103   105     9
   97   101   103   106     9
  102   101   103   104     9
  102   101   103   105     9
  102   101   103   106     9
   97   101   109   110     9
   97   101   109   111     9
  102   101   109   110     9
  102   101   109   111     9
  103   101   109   110     9
  103   101   109   111     9
  104   103   101   109     9
  105   103   101   109     9
  106   103   101   109     9
  101   103   106   107     9
  101   103   106   108     9
  104   103   106   107     9
  104   103   106   108     9
  105   103   106   107     9
  105   103   106   108     9
   98   106   103   101     9
   98   106   103   104     9
   98   106   103   105     9
  101   109   111   112     9
  101   109   111   113     9
  110   109   111   112     9
  110   109   111   113     9
  109   111   113   114     9
  109   111   113   115     9
  109   111   113   116     9
  112   111   113   114     9
  112   111   113   115     9
  112   111   113   116     9
  111   113   116   117     9
  111   113   116   118     9
  114   113   116   117     9
  114   113   116   118     9
  115   113   116   117     9
  115   113   116   118     9
  113   116   118   119     9
  113   116   118   122     9
  117   116   118   119     9
  117   116   118   122     9
  116   118   119   120     9
  116   118   119   121     9
  116   118   119   127     9
  122   118   119   127     9
  116   118   122   123     9
  116   118   122   124     9
  116   118   122   130     9
  119   118   122   123     9
  119   118   122   124     9
  119   118   122   130     9
  120   119   118   122     9
  121   119   118   122     9
  118   119   127   124     9
  118   119   127   128     9
  118   119   127   129     9
  120   119   127   124     9
  120   119   127   128     9
  120   119   127   129     9
  121   119   127   124     9
  121   119   127   128     9
  121   119   127   129     9
  118   122   124   125     9
  118   122   124   126     9
  118   122   124   127     9
  123   122   124   125     9
  123   122   124   126     9
  123   122   124   127     9
  118   122   130   131     9
  118   122   130   132     9
  123   122   130   131     9
  123   122   130   132     9
  124   122   130   131     9
  124   122   130   132     9
  125   124   122   130     9
  126   124   122   130     9
  127   124   122   130     9
  122   124   127   128     9
  122   124   127   129     9
  125   124   127   128     9
  125   124   127   129     9
  126   124   127   128     9
  126   124   127   129     9
  119   127   124   122     9
  119   127   124   125     9
  119   127   124   126     9
  122   130   132   133     9
  122   130   132   134     9
  131   130   132   133     9
  131   130   132   134     9
  130   132   134   135     9
  130   132   134   136     9
  130   132   134   137     9
  133   132   134   135     9
  133   132   134   136     9
  133   132   134   137     9
  132   134   137   138     9
  132   134   137   139     9
  135   134   137   138     9
  135   134   137   139     9
  136   134   137   138     9
  136   134   137   139     9
  134   137   139   140     9
  134   137   139   141     9
  138   137   139   140     9
  138   137   139   141     9
  137   139   141   142     9
  137   139   141   143     9
  137   139   141   149     9
  140   139   141   142     9
  140   139   141   143     9
  140   139   141   149     9
  139   141   143   144     9
  139   141   143   145     9
  139   141   143   146     9
  142   141   143   144     9
  142   141   143   145     9
  142   141   143   146     9
  139   141   149   150     9
  139   141   149   151     9
  142   141   149   150     9
  142   141   149   151     9
  143   141   149   150     9
  143   141   149   151     9
  144   143   141   149     9
  145   143   141   149     9
  146   143   141   149     9
  141   143   146   147     9
  141   143   146   148     9
  144   143   146   147     9
  144   143   146   148     9
  145   143   146   147     9
  145   143   146   148     9
  141   149   151   152     9
  141   149   151   155     9
  150   149   151   152     9
  150   149   151   155     9
  149   151   152   153     9
  149   151   152   154     9
  149   151   152   160     9
  155   151   152   160     9
  149   151   155   156     9
  149   151   155   157     9
  149   151   155   163     9
  152   151   155   156     9
  152   151   155   157     9
  152   151   155   163     9
  153   152   151   155     9
  154   152   151   155     9
  151   152   160   157     9
  151   152   160   161     9
  151   152   160   162     9
  153   152   160   157     9
  153   152   160   161     9
  153   152   160   162     9
  154   152   160   157     9
  154   152   160   161     9
  154   152   160   162     9
  151   155   157   158     9
  151   155   157   159     9
  151   155   157   160     9
  156   155   157   158     9
  156   155   157   159     9
  156   155   157   160     9
  151   155   163   164     9
  151   155   163   165     9
  156   155   163   164     9
  156   155   163   165     9
  157   155   163   164     9
  157   155   163   165     9
  158   157   155   163     9
  159   157   155   163     9
  160   157   155   163     9
  155   157   160   161     9
  155   157   160   162     9
  158   157   160   161     9
  158   157   160   162     9
  159   157   160   161     9
  159   157   160   162     9
  152   160   157   155     9
  152   160   157   158     9
  152   160   157   159     9

[ dihedrals ]
; ai	aj	ak	al	funct	q0	cq
    8     5    10     9     2
   10     8    14    11     2
   22    14    24    23     2
   24    22    26    25     2
   29    26    31    30     2
   31    29    33    32     2
   38    35    40    39     2
   41    33    43    42     2
   43    41    47    44     2
   55    47    57    56     2
   57    55    59    58     2
   62    59    64    63     2
   64    62    68    65     2
   76    68    78    77     2
   78    76    80    79     2
   83    80    85    84     2
   85    83    87    86     2
   92    89    94    93     2
   95    87    97    96     2
   97    95   101    98     2
  109   101   111   110     2
  111   109   113   112     2
  116   113   118   117     2
  118   116   122   119     2
  130   122   132   131     2
  132   130   134   133     2
  137   134   139   138     2
  139   137   141   140     2
  146   143   148   147     2
  149   141   151   150     2
  151   149   155   152     2
  163   155   165   164     2

[ cmap ] 
; ai	aj	ak	al	am	funct
    8    10    14    22    24     1
   22    24    26    29    31     1
   29    31    33    41    43     1
   41    43    47    55    57     1
   55    57    59    62    64     1
   62    64    68    76    78     1
   76    78    80    83    85     1
   83    85    87    95    97     1
   95    97   101   109   111     1
  109   111   113   116   118     1
  116   118   122   130   132     1
  130   132   134   137   139     1
  137   139   141   149   151     1

#ifdef POSRES
[ position_restraints ]
    1     1    POSRES_FC_BB    POSRES_FC_BB    POSRES_FC_BB   
    5     1    POSRES_FC_BB    POSRES_FC_BB    POSRES_FC_BB   
    8     1    POSRES_FC_BB    POSRES_FC_BB    POSRES_FC_BB   
    9     1    POSRES_FC_BB    POSRES_FC_BB    POSRES_FC_BB   
   10     1    POSRES_FC_BB    POSRES_FC_BB    POSRES_FC_BB   
   11     1    POSRES_FC_SC    POSRES_FC_SC    POSRES_FC_SC   
   14     1    POSRES_FC_BB    POSRES_FC_BB    POSRES_FC_BB   
   16     1    POSRES_FC_SC    POSRES_FC_SC    POSRES_FC_SC   
   19     1    POSRES_FC_SC    POSRES_FC_SC    POSRES_FC_SC   
   22     1    POSRES_FC_BB    POSRES_FC_BB    POSRES_FC_BB   
   23     1    POSRES_FC_BB    POSRES_FC_BB    POSRES_FC_BB   
   24     1    POSRES_FC_BB    POSRES_FC_BB    POSRES_FC_BB   
   26     1    POSRES_FC_BB    POSRES_FC_BB    POSRES_FC_BB   
   29     1    POSRES_FC_BB    POSRES_FC_BB    POSRES_FC_BB   
   30     1    POSRES_FC_BB    POSRES_FC_BB    POSRES_FC_BB   
   31     1    POSRES_FC_BB    POSRES_FC_BB    POSRES_FC_BB   
   33     1    POSRES_FC_BB    POSRES_FC_BB    POSRES_FC_BB   
   35     1    POSRES_FC_SC    POSRES_FC_SC    POSRES_FC_SC   
   38     1    POSRES_FC_SC    POSRES_FC_SC    POSRES_FC_SC   
   39     1    POSRES_FC_SC    POSRES_FC_SC    POSRES_FC_SC   
   40     1    POSRES_FC_SC    POSRES_FC_SC    POSRES_FC_SC   
   41     1    POSRES_FC_BB    POSRES_FC_BB    POSRES_FC_BB   
   42     1    POSRES_FC_BB    POSRES_FC_BB    POSRES_FC_BB   
   43     1    POSRES_FC_BB    POSRES_FC_BB    POSRES_FC_BB   
   44     1    POSRES_FC_SC    POSRES_FC_SC    POSRES_FC_SC   
   47     1    POSRES_FC_BB    POSRES_FC_BB    POSRES_FC_BB   
   49     1    POSRES_FC_SC    POSRES_FC_SC    POSRES_FC_SC   
   52     1    POSRES_FC_SC    POSRES_FC_SC    POSRES_FC_SC   
   55     1    POSRES_FC_BB    POSRES_FC_BB    POSRES_FC_BB   
   56     1    POSRES_FC_BB    POSRES_FC_BB    POSRES_FC_BB   
   57     1    POSRES_FC_BB    POSRES_FC_BB    POSRES_FC_BB   
   59     1    POSRES_FC_BB    POSRES_FC_BB    POSRES_FC_BB   
   62     1    POSRES_FC_BB    POSRES_FC_BB    POSRES_FC_BB   
   63     1    POSRES_FC_BB    POSRES_FC_BB    POSRES_FC_BB   
   64     1    POSRES_FC_BB    POSRES_FC_BB    POSRES_FC_BB   
   65     1    POSRES_FC_SC    POSRES_FC_SC    POSRES_FC_SC   
   68     1    POSRES_FC_BB    POSRES_FC_BB    POSRES_FC_BB   
   70     1    POSRES_FC_SC    POSRES_FC_SC    POSRES_FC_SC   
   73     1    POSRES_FC_SC    POSRES_FC_SC    POSRES_FC_SC   
   76     1    POSRES_FC_BB    POSRES_FC_BB    POSRES_FC_BB   
   77     1    POSRES_FC_BB    POSRES_FC_BB    POSRES_FC_BB   
   78     1    POSRES_FC_BB    POSRES_FC_BB    POSRES_FC_BB   
   80     1    POSRES_FC_BB    POSRES_FC_BB    POSRES_FC_BB   
   83     1    POSRES_FC_BB    POSRES_FC_BB    POSRES_FC_BB   
   84     1    POSRES_FC_BB    POSRES_FC_BB    POSRES_FC_BB   
   85     1    POSRES_FC_BB    POSRES_FC_BB    POSRES_FC_BB   
   87     1    POSRES_FC_BB    POSRES_FC_BB    POSRES_FC_BB   
   89     1    POSRES_FC_SC    POSRES_FC_SC    POSRES_FC_SC   
   92     1    POSRES_FC_SC    POSRES_FC_SC    POSRES_FC_SC   
   93     1    POSRES_FC_SC    POSRES_FC_SC    POSRES_FC_SC   
   94     1    POSRES_FC_SC    POSRES_FC_SC    POSRES_FC_SC   
   95     1    POSRES_FC_BB    POSRES_FC_BB    POSRES_FC_BB   
   96     1    POSRES_FC_BB    POSRES_FC_BB    POSRES_FC_BB   
   97     1    POSRES_FC_BB    POSRES_FC_BB    POSRES_FC_BB   
   98     1    POSRES_FC_SC    POSRES_FC_SC    POSRES_FC_SC   
  101     1    POSRES_FC_BB    POSRES_FC_BB    POSRES_FC_BB   
  103     1    POSRES_FC_SC    POSRES_FC_SC    POSRES_FC_SC   
  106     1    POSRES_FC_SC    POSRES_FC_SC    POSRES_FC_SC   
  109     1    POSRES_FC_BB    POSRES_FC_BB    POSRES_FC_BB   
  110     1    POSRES_FC_BB    POSRES_FC_BB    POSRES_FC_BB   
  111     1    POSRES_FC_BB    POSRES_FC_BB    POSRES_FC_BB   
  113     1    POSRES_FC_BB    POSRES_FC_BB    POSRES_FC_BB   
  116     1    POSRES_FC_BB    POSRES_FC_BB    POSRES_FC_BB   
  117     1    POSRES_FC_BB    POSRES_FC_BB    POSRES_FC_BB   
  118     1    POSRES_FC_BB    POSRES_FC_BB    POSRES_FC_BB   
  119     1    POSRES_FC_SC    POSRES_FC_SC    POSRES_FC_SC   
  122     1    POSRES_FC_BB    POSRES_FC_BB    POSRES_FC_BB   
  124     1    POSRES_FC_SC    POSRES_FC_SC    POSRES_FC_SC   
  127     1    POSRES_FC_SC    POSRES_FC_SC    POSRES_FC_SC   
  130     1    POSRES_FC_BB    POSRES_FC_BB    POSRES_FC_BB   
  131     1    POSRES_FC_BB    POSRES_FC_BB    POSRES_FC_BB   
  132     1    POSRES_FC_BB    POSRES_FC_BB    POSRES_FC_BB   
  134     1    POSRES_FC_BB    POSRES_FC_BB    POSRES_FC_BB   
  137     1    POSRES_FC_BB    POSRES_FC_BB    POSRES_FC_BB   
  138     1    POSRES_FC_BB    POSRES_FC_BB    POSRES_FC_BB   
  139     1    POSRES_FC_BB    POSRES_FC_BB    POSRES_FC_BB   
  141     1    POSRES_FC_BB    POSRES_FC_BB    POSRES_FC_BB   
  143     1    POSRES_FC_SC    POSRES_FC_SC    POSRES_FC_SC   
  146     1    POSRES_FC_SC    POSRES_FC_SC    POSRES_FC_SC   
  147     1    POSRES_FC_SC    POSRES_FC_SC    POSRES_FC_SC   
  148     1    POSRES_FC_SC    POSRES_FC_SC    POSRES_FC_SC   
  149     1    POSRES_FC_BB    POSRES_FC_BB    POSRES_FC_BB   
  150     1    POSRES_FC_BB    POSRES_FC_BB    POSRES_FC_BB   
  151     1    POSRES_FC_BB    POSRES_FC_BB    POSRES_FC_BB   
  152     1    POSRES_FC_SC    POSRES_FC_SC    POSRES_FC_SC   
  155     1    POSRES_FC_BB    POSRES_FC_BB    POSRES_FC_BB   
  157     1    POSRES_FC_SC    POSRES_FC_SC    POSRES_FC_SC   
  160     1    POSRES_FC_SC    POSRES_FC_SC    POSRES_FC_SC   
  163     1    POSRES_FC_BB    POSRES_FC_BB    POSRES_FC_BB   
  164     1    POSRES_FC_SC    POSRES_FC_SC    POSRES_FC_SC   
  165     1    POSRES_FC_SC    POSRES_FC_SC    POSRES_FC_SC   
#endif
