* GENERATED BY CHARMM-GUI (HTTP://WWW.CHARMM-GUI.ORG) V3.7 ON JUN, 13. 2026. JOB
* READ PDB, MANIPULATE STRUCTURE IF NEEDED, AND GENERATE TOPOLOGY FILE
*  DATE:     6/13/26     10:34:45      CREATED BY USER: charmm-gui
*
       195  EXT
         1         1  GLY       N              -8.0110000000      -16.3790000000      -25.0730000000  PROA      1              97.8500000000
         2         1  GLY       HT1            -8.4620542122      -17.2984372469      -25.2540669675  PROA      1               0.0000000000
         3         1  GLY       HT2            -7.0570133637      -16.5307630298      -24.6876727150  PROA      1               0.0000000000
         4         1  GLY       HT3            -7.9440245157      -15.8445338869      -25.9626403175  PROA      1               0.0000000000
         5         1  GLY       CA             -8.8070000000      -15.6280000000      -24.1150000000  PROA      1              98.1600000000
         6         1  GLY       HA1            -9.0059213825      -16.2784301876      -23.2761467877  PROA      1               0.0000000000
         7         1  GLY       HA2            -9.7293129065      -15.3513397020      -24.6039804076  PROA      1               0.0000000000
         8         1  GLY       C              -8.1140000000      -14.3740000000      -23.6170000000  PROA      1              98.3500000000
         9         1  GLY       O              -6.9300000000      -14.1630000000      -23.8880000000  PROA      1              98.0800000000
        10         2  PRO       N              -8.7620000000      -13.3430000000      -22.9310000000  PROA      2              98.6200000000
        11         2  PRO       CD            -10.0710000000      -13.5380000000      -22.5890000000  PROA      2              96.1500000000
        12         2  PRO       HD1           -10.1603046022      -14.4547763521      -21.9685688554  PROA      2               0.0000000000
        13         2  PRO       HD2           -10.6838210684      -13.6426486048      -23.5092651816  PROA      2               0.0000000000
        14         2  PRO       CA             -8.1450000000      -12.1420000000      -22.3620000000  PROA      2              98.6400000000
        15         2  PRO       HA             -7.5499595411      -11.6369976898      -23.1059016090  PROA      2               0.0000000000
        16         2  PRO       CB             -9.3420000000      -11.3390000000      -21.8480000000  PROA      2              98.5600000000
        17         2  PRO       HB1            -9.5743249426      -10.4956552185      -22.5327397079  PROA      2               0.0000000000
        18         2  PRO       HB2            -9.1382055020      -10.9326735038      -20.8343726779  PROA      2               0.0000000000
        19         2  PRO       CG            -10.4710000000      -12.3180000000      -21.8100000000  PROA      2              97.8800000000
        20         2  PRO       HG1           -10.6929339937      -12.5977450650      -20.7579630098  PROA      2               0.0000000000
        21         2  PRO       HG2           -11.3797601614      -11.8639787591      -22.2597927407  PROA      2               0.0000000000
        22         2  PRO       C              -7.1740000000      -12.4600000000      -21.2270000000  PROA      2              98.6900000000
        23         2  PRO       O              -7.2750000000      -13.5190000000      -20.6020000000  PROA      2              98.6100000000
        24         3  GLY       N              -6.0530000000      -11.5140000000      -21.1130000000  PROA      3              98.5900000000
        25         3  GLY       HN             -5.8997874969      -10.7668171474      -21.7550473211  PROA      3               0.0000000000
        26         3  GLY       CA             -5.1080000000      -11.6560000000      -20.0170000000  PROA      3              98.5800000000
        27         3  GLY       HA1            -4.3711147067      -10.8723839786      -20.1130930791  PROA      3               0.0000000000
        28         3  GLY       HA2            -4.6372818329      -12.6234583874      -20.1104695680  PROA      3               0.0000000000
        29         3  GLY       C              -5.7590000000      -11.5550000000      -18.6510000000  PROA      3              98.6800000000
        30         3  GLY       O              -6.8990000000      -11.1000000000      -18.5330000000  PROA      3              98.6200000000
        31         4  ALA       N              -5.1180000000      -11.9490000000      -17.6390000000  PROA      4              98.4500000000
        32         4  ALA       HN             -4.2295050664      -12.3882130976      -17.7392806966  PROA      4               0.0000000000
        33         4  ALA       CA             -5.5800000000      -11.8150000000      -16.2600000000  PROA      4              98.4300000000
        34         4  ALA       HA             -6.6077169894      -12.1437844878      -16.2167056925  PROA      4               0.0000000000
        35         4  ALA       CB             -4.7130000000      -12.6550000000      -15.3250000000  PROA      4              98.2500000000
        36         4  ALA       HB1            -3.6554096437      -12.3192268467      -15.3804979987  PROA      4               0.0000000000
        37         4  ALA       HB2            -4.7617654353      -13.7241992131      -15.6228071118  PROA      4               0.0000000000
        38         4  ALA       HB3            -5.0665862366      -12.5418080941      -14.2778999731  PROA      4               0.0000000000
        39         4  ALA       C              -5.5730000000      -10.3550000000      -15.8190000000  PROA      4              98.5600000000
        40         4  ALA       O              -4.8220000000       -9.5400000000      -16.3600000000  PROA      4              98.4800000000
        41         5  PRO       N              -6.3900000000       -9.9360000000      -14.8310000000  PROA      5              98.3600000000
        42         5  PRO       CD             -7.5050000000      -10.6820000000      -14.4590000000  PROA      5              97.1400000000
        43         5  PRO       HD1            -7.1808508960      -11.5976687471      -13.9208472973  PROA      5               0.0000000000
        44         5  PRO       HD2            -8.0883463667      -10.9599790253      -15.3620863223  PROA      5               0.0000000000
        45         5  PRO       CA             -6.3480000000       -8.5760000000      -14.2880000000  PROA      5              98.3500000000
        46         5  PRO       HA             -6.4902660663       -7.8524906733      -15.0746568580  PROA      5               0.0000000000
        47         5  PRO       CB             -7.4480000000       -8.5880000000      -13.2230000000  PROA      5              98.2900000000
        48         5  PRO       HB1            -8.0458801996       -7.6525898108      -13.2633115993  PROA      5               0.0000000000
        49         5  PRO       HB2            -7.0115500747       -8.6915120784      -12.2066955710  PROA      5               0.0000000000
        50         5  PRO       CG             -8.2940000000       -9.7730000000      -13.5600000000  PROA      5              97.6700000000
        51         5  PRO       HG1            -8.5756587445      -10.3125317105      -12.6305546021  PROA      5               0.0000000000
        52         5  PRO       HG2            -9.2198477518       -9.4413307150      -14.0768135917  PROA      5               0.0000000000
        53         5  PRO       C              -4.9960000000       -8.2290000000      -13.6700000000  PROA      5              98.5300000000
        54         5  PRO       O              -4.2540000000       -9.1240000000      -13.2570000000  PROA      5              98.4800000000
        55         6  GLY       N              -4.6990000000       -7.0200000000      -13.7540000000  PROA      6              98.6200000000
        56         6  GLY       HN             -5.2597919323       -6.3511962650      -14.2358717641  PROA      6               0.0000000000
        57         6  GLY       CA             -3.4790000000       -6.5380000000      -13.1260000000  PROA      6              98.5900000000
        58         6  GLY       HA1            -3.3882031931       -5.4847292053      -13.3466021289  PROA      6               0.0000000000
        59         6  GLY       HA2            -2.6501208336       -7.0812490606      -13.5551019832  PROA      6               0.0000000000
        60         6  GLY       C              -3.4670000000       -6.7290000000      -11.6210000000  PROA      6              98.7000000000
        61         6  GLY       O              -4.4880000000       -7.0800000000      -11.0260000000  PROA      6              98.6400000000
        62         7  SER       N              -2.4030000000       -6.4550000000      -11.1900000000  PROA      7              98.6200000000
        63         7  SER       HN             -1.6095424846       -6.2113881984      -11.7413251266  PROA      7               0.0000000000
        64         7  SER       CA             -2.2710000000       -6.4840000000       -9.7370000000  PROA      7              98.5900000000
        65         7  SER       HA             -2.7200887251       -7.3980841436       -9.3779230556  PROA      7               0.0000000000
        66         7  SER       CB             -0.7980000000       -6.4200000000       -9.3310000000  PROA      7              98.4400000000
        67         7  SER       HB1            -0.7129421313       -6.4825805082       -8.2250709125  PROA      7               0.0000000000
        68         7  SER       HB2            -0.3555371163       -5.4634618170       -9.6824137284  PROA      7               0.0000000000
        69         7  SER       OG             -0.0720000000       -7.4940000000       -9.9040000000  PROA      7              95.6300000000
        70         7  SER       HG1            -0.4796375280       -8.2966538880       -9.5705657758  PROA      7               0.0000000000
        71         7  SER       C              -3.0350000000       -5.3340000000       -9.0900000000  PROA      7              98.7100000000
        72         7  SER       O              -3.2660000000       -4.3010000000       -9.7230000000  PROA      7              98.6600000000
        73         8  GLY       N              -3.5280000000       -5.6020000000       -7.8260000000  PROA      8              98.4300000000
        74         8  GLY       HN             -3.4585204385       -6.4874795266       -7.3735959145  PROA      8               0.0000000000
        75         8  GLY       CA             -4.1890000000       -4.5180000000       -7.1170000000  PROA      8              98.3600000000
        76         8  GLY       HA1            -4.6675730775       -4.9378606293       -6.2446632169  PROA      8               0.0000000000
        77         8  GLY       HA2            -4.9286017049       -4.0931989919       -7.7794349201  PROA      8               0.0000000000
        78         8  GLY       C              -3.2360000000       -3.4240000000       -6.6770000000  PROA      8              98.5000000000
        79         8  GLY       O              -2.0200000000       -3.5530000000       -6.8320000000  PROA      8              98.3800000000
        80         9  PRO       N              -3.6960000000       -2.4570000000       -6.1710000000  PROA      9              98.7000000000
        81         9  PRO       CD             -5.1010000000       -2.3880000000       -5.7060000000  PROA      9              98.1600000000
        82         9  PRO       HD1            -5.3086825518       -3.2229353939       -5.0041685133  PROA      9               0.0000000000
        83         9  PRO       HD2            -5.7901906383       -2.4428045498       -6.5748091363  PROA      9               0.0000000000
        84         9  PRO       CA             -2.8960000000       -1.3500000000       -5.6420000000  PROA      9              98.7000000000
        85         9  PRO       HA             -2.1559933107       -1.0426758786       -6.3634322960  PROA      9               0.0000000000
        86         9  PRO       CB             -3.9440000000       -0.2860000000       -5.3080000000  PROA      9              98.6800000000
        87         9  PRO       HB1            -4.0963189138        0.4009453968       -6.1676377979  PROA      9               0.0000000000
        88         9  PRO       HB2            -3.6331433977        0.3095872689       -4.4232875319  PROA      9               0.0000000000
        89         9  PRO       CG             -5.1920000000       -1.0570000000       -5.0170000000  PROA      9              98.3900000000
        90         9  PRO       HG1            -5.2974114273       -1.2054183840       -3.9210272735  PROA      9               0.0000000000
        91         9  PRO       HG2            -6.0768292693       -0.4982528662       -5.3900611311  PROA      9               0.0000000000
        92         9  PRO       C              -2.0990000000       -1.7390000000       -4.3990000000  PROA      9              98.8000000000
        93         9  PRO       O              -2.4580000000       -2.6930000000       -3.7040000000  PROA      9              98.7700000000
        94        10  GLY       N              -1.0280000000       -0.9930000000       -4.2270000000  PROA      10             98.6000000000
        95        10  GLY       HN             -0.7432148620       -0.2725194692       -4.8542855160  PROA      10              0.0000000000
        96        10  GLY       CA             -0.2110000000       -1.2360000000       -3.0490000000  PROA      10             98.5600000000
        97        10  GLY       HA1             0.6956861237       -0.6583248254       -3.1514635967  PROA      10              0.0000000000
        98        10  GLY       HA2             0.0204470386       -2.2904517753       -3.0198307582  PROA      10              0.0000000000
        99        10  GLY       C              -0.8990000000       -0.8470000000       -1.7550000000  PROA      10             98.6900000000
       100        10  GLY       O              -1.9180000000       -0.1540000000       -1.7720000000  PROA      10             98.6500000000
       101        11  ALA       N              -0.4630000000       -1.2590000000       -0.6770000000  PROA      11             98.6500000000
       102        11  ALA       HN              0.3101177182       -1.8859147962       -0.6629749401  PROA      11              0.0000000000
       103        11  ALA       CA             -0.9710000000       -0.9200000000        0.6490000000  PROA      11             98.6300000000
       104        11  ALA       HA             -2.0439407861       -1.0419281895        0.6387035773  PROA      11              0.0000000000
       105        11  ALA       CB             -0.3430000000       -1.8250000000        1.7070000000  PROA      11             98.5200000000
       106        11  ALA       HB1             0.7612838878       -1.7030242103        1.7070434344  PROA      11              0.0000000000
       107        11  ALA       HB2            -0.5825063235       -2.8871943440        1.4864688291  PROA      11              0.0000000000
       108        11  ALA       HB3            -0.7296602752       -1.5554016662        2.7130142497  PROA      11              0.0000000000
       109        11  ALA       C              -0.7030000000        0.5450000000        0.9810000000  PROA      11             98.7500000000
       110        11  ALA       O               0.2240000000        1.1520000000        0.4390000000  PROA      11             98.7200000000
       111        12  PRO       N              -1.5840000000        1.1220000000        1.9780000000  PROA      12             98.7000000000
       112        12  PRO       CD             -2.7690000000        0.5970000000        2.4080000000  PROA      12             97.9500000000
       113        12  PRO       HD1            -2.5751998584       -0.2466717321        3.1035290806  PROA      12              0.0000000000
       114        12  PRO       HD2            -3.3600105428        0.2420748434        1.5374623156  PROA      12              0.0000000000
       115        12  PRO       CA             -1.2950000000        2.4910000000        2.4110000000  PROA      12             98.6800000000
       116        12  PRO       HA             -1.2038801764        3.1436102980        1.5575987973  PROA      12              0.0000000000
       117        12  PRO       CB             -2.4620000000        2.8200000000        3.3460000000  PROA      12             98.6700000000
       118        12  PRO       HB1            -2.8957351068        3.8129957750        3.1012607128  PROA      12              0.0000000000
       119        12  PRO       HB2            -2.1290516191        2.8250687035        4.4058036396  PROA      12              0.0000000000
       120        12  PRO       CG             -3.4590000000        1.7320000000        3.1080000000  PROA      12             98.3300000000
       121        12  PRO       HG1            -3.8738245251        1.3814635999        4.0771944157  PROA      12              0.0000000000
       122        12  PRO       HG2            -4.2912051689        2.1136185648        2.4786393737  PROA      12              0.0000000000
       123        12  PRO       C               0.0400000000        2.6090000000        3.1440000000  PROA      12             98.7800000000
       124        12  PRO       O               0.5350000000        1.6220000000        3.6940000000  PROA      12             98.7500000000
       125        13  GLY       N               0.6170000000        3.7780000000        3.0120000000  PROA      13             98.6000000000
       126        13  GLY       HN              0.2531159116        4.5121964048        2.4441648268  PROA      13              0.0000000000
       127        13  GLY       CA              1.8570000000        4.0310000000        3.7280000000  PROA      13             98.5900000000
       128        13  GLY       HA1             2.1919345105        5.0238906043        3.4667129058  PROA      13              0.0000000000
       129        13  GLY       HA2             2.5800784653        3.2968645303        3.4047563316  PROA      13              0.0000000000
       130        13  GLY       C               1.7060000000        3.9430000000        5.2350000000  PROA      13             98.7200000000
       131        13  GLY       O               0.5870000000        3.8880000000        5.7490000000  PROA      13             98.6900000000
       132        14  SER       N               2.8120000000        4.0080000000        5.8840000000  PROA      14             98.6600000000
       133        14  SER       HN              3.7065997601        4.0279459466        5.4444050050  PROA      14              0.0000000000
       134        14  SER       CA              2.7780000000        4.0560000000        7.3420000000  PROA      14             98.6200000000
       135        14  SER       HA              2.0820182968        3.3053572003        7.6859671438  PROA      14              0.0000000000
       136        14  SER       CB              4.1700000000        3.7950000000        7.9190000000  PROA      14             98.5300000000
       137        14  SER       HB1             4.1129506029        3.7577895392        9.0278682680  PROA      14              0.0000000000
       138        14  SER       HB2             4.8598568665        4.6096453817        7.6113012941  PROA      14              0.0000000000
       139        14  SER       OG              4.6860000000        2.5610000000        7.4490000000  PROA      14             96.4600000000
       140        14  SER       HG1             4.0677512004        1.8871957454        7.7411579167  PROA      14              0.0000000000
       141        14  SER       C               2.2560000000        5.3990000000        7.8400000000  PROA      14             98.7500000000
       142        14  SER       O               2.3700000000        6.4110000000        7.1450000000  PROA      14             98.7100000000
       143        15  GLY       N               1.4590000000        5.3900000000        8.9550000000  PROA      15             98.4400000000
       144        15  GLY       HN              1.1584992167        4.5502738096        9.4006098340  PROA      15              0.0000000000
       145        15  GLY       CA              1.0130000000        6.6440000000        9.5410000000  PROA      15             98.4100000000
       146        15  GLY       HA1             0.3673005111        6.4077702438       10.3737994989  PROA      15              0.0000000000
       147        15  GLY       HA2             0.4630084804        7.1843504396        8.7848134729  PROA      15              0.0000000000
       148        15  GLY       C               2.1550000000        7.5120000000       10.0340000000  PROA      15             98.5500000000
       149        15  GLY       O               3.3090000000        7.0770000000       10.0530000000  PROA      15             98.4800000000
       150        16  PRO       N               2.0910000000        8.6550000000       10.3410000000  PROA      16             98.6800000000
       151        16  PRO       CD              0.6750000000        9.2480000000       10.4400000000  PROA      16             97.9200000000
       152        16  PRO       HD1             0.0097784110        8.5697060314       11.0137102055  PROA      16              0.0000000000
       153        16  PRO       HD2             0.2565476997        9.4238177522        9.4272158864  PROA      16              0.0000000000
       154        16  PRO       CA              3.0980000000        9.5390000000       10.9320000000  PROA      16             98.6700000000
       155        16  PRO       HA              3.9913402474        9.5474054784       10.3283640351  PROA      16              0.0000000000
       156        16  PRO       CB              2.3760000000       10.8850000000       11.0240000000  PROA      16             98.6600000000
       157        16  PRO       HB1             2.5437360844       11.4859823950       10.1048919796  PROA      16              0.0000000000
       158        16  PRO       HB2             2.7328579408       11.4645981457       11.9019482820  PROA      16              0.0000000000
       159        16  PRO       CG              0.9300000000       10.5340000000       11.1720000000  PROA      16             98.3300000000
       160        16  PRO       HG1             0.6788479331       10.4127507065       12.2474150184  PROA      16              0.0000000000
       161        16  PRO       HG2             0.2993016654       11.3429997188       10.7453440737  PROA      16              0.0000000000
       162        16  PRO       C               3.5570000000        9.0710000000       12.3110000000  PROA      16             98.7700000000
       163        16  PRO       O               2.8280000000        8.3490000000       12.9960000000  PROA      16             98.7500000000
       164        17  GLY       N               4.9540000000        9.3780000000       12.7480000000  PROA      17             98.6300000000
       165        17  GLY       HN              5.6042933536        9.8039209565       12.1247243952  PROA      17              0.0000000000
       166        17  GLY       CA              5.4730000000        9.0930000000       14.0760000000  PROA      17             98.6300000000
       167        17  GLY       HA1             6.5166222738        9.3704399010       14.0889727145  PROA      17              0.0000000000
       168        17  GLY       HA2             5.3672735939        8.0325888468       14.2510392916  PROA      17              0.0000000000
       169        17  GLY       C               4.7490000000        9.8480000000       15.1740000000  PROA      17             98.7300000000
       170        17  GLY       O               4.0400000000       10.8190000000       14.9040000000  PROA      17             98.7200000000
       171        18  ALA       N               4.7360000000        9.5270000000       16.2350000000  PROA      18             98.6800000000
       172        18  ALA       HN              5.1796310796        8.6699673687       16.4707368267  PROA      18              0.0000000000
       173        18  ALA       CA              4.1490000000       10.1820000000       17.4010000000  PROA      18             98.6400000000
       174        18  ALA       HA              3.1358203258       10.4623047217       17.1538767871  PROA      18              0.0000000000
       175        18  ALA       CB              4.1620000000        9.2410000000       18.6030000000  PROA      18             98.5400000000
       176        18  ALA       HB1             5.2054660550        8.9480200536       18.8472587624  PROA      18              0.0000000000
       177        18  ALA       HB2             3.5809443075        8.3229903992       18.3708647900  PROA      18              0.0000000000
       178        18  ALA       HB3             3.7204442155        9.7498401088       19.4863823258  PROA      18              0.0000000000
       179        18  ALA       C               4.8890000000       11.4750000000       17.7340000000  PROA      18             98.7100000000
       180        18  ALA       O               6.0710000000       11.6220000000       17.4130000000  PROA      18             98.6600000000
       181        19  PRO       N               4.0150000000       12.6910000000       18.1150000000  PROA      19             98.5200000000
       182        19  PRO       CD              2.7040000000       12.5890000000       18.1920000000  PROA      19             97.4300000000
       183        19  PRO       HD1             2.4335288922       11.9082157877       19.0267609376  PROA      19              0.0000000000
       184        19  PRO       HD2             2.3063152439       12.1904451030       17.2346868769  PROA      19              0.0000000000
       185        19  PRO       CA              4.5970000000       13.9910000000       18.4560000000  PROA      19             98.4000000000
       186        19  PRO       HA              5.2285521202       14.3415876676       17.6555380525  PROA      19              0.0000000000
       187        19  PRO       CB              3.3710000000       14.8650000000       18.7330000000  PROA      19             98.3600000000
       188        19  PRO       HB1             3.3638357628       15.7560390229       18.0696251250  PROA      19              0.0000000000
       189        19  PRO       HB2             3.3596738993       15.2047693247       19.7905900042  PROA      19              0.0000000000
       190        19  PRO       CG              2.2000000000       13.9810000000       18.4470000000  PROA      19             97.8500000000
       191        19  PRO       HG1             1.5075834848       13.9786312611       19.3158197695  PROA      19              0.0000000000
       192        19  PRO       HG2             1.6541461619       14.3543897140       17.5542975063  PROA      19              0.0000000000
       193        19  PRO       C               5.5090000000       13.9270000000       19.6790000000  PROA      19             98.4100000000
       194        19  PRO       OT1             5.6614980189       12.8118981036       20.2454734018  PROA      19              0.0000000000
       195        19  PRO       OT2             6.0631132088       14.9925151435       20.0600984528  PROA      19              0.0000000000
