Title t=  32.00000 step= 16000
44502
    1GLY      N    1   3.728   4.671   3.386
    1GLY    HT1    2   3.813   4.645   3.439
    1GLY    HT2    3   3.736   4.618   3.297
    1GLY    HT3    4   3.650   4.624   3.437
    1GLY     CA    5   3.727   4.820   3.366
    1GLY    HA1    6   3.641   4.838   3.304
    1GLY    HA2    7   3.823   4.850   3.325
    1GLY      C    8   3.713   4.888   3.500
    1GLY      O    9   3.726   4.821   3.603
    2PRO      N   10   3.700   5.020   3.502
    2PRO     CD   11   3.725   5.102   3.382
    2PRO    HD1   12   3.650   5.082   3.302
    2PRO    HD2   13   3.825   5.082   3.338
    2PRO     CA   14   3.638   5.092   3.609
    2PRO     HA   15   3.719   5.098   3.680
    2PRO     CB   16   3.611   5.230   3.543
    2PRO    HB1   17   3.603   5.312   3.618
    2PRO    HB2   18   3.515   5.218   3.488
    2PRO     CG   19   3.721   5.246   3.439
    2PRO    HG1   20   3.713   5.313   3.351
    2PRO    HG2   21   3.817   5.276   3.485
    2PRO      C   22   3.525   5.044   3.694
    2PRO      O   23   3.429   4.995   3.637
    3GLY      N   24   3.539   5.068   3.829
    3GLY     HN   25   3.622   5.116   3.858
    3GLY     CA   26   3.439   5.033   3.926
    3GLY    HA1   27   3.487   5.045   4.022
    3GLY    HA2   28   3.425   4.928   3.904
    3GLY      C   29   3.310   5.106   3.929
    3GLY      O   30   3.270   5.175   3.841
    4ASN      N   31   3.237   5.096   4.040
    4ASN     HN   32   3.276   5.041   4.113
    4ASN     CA   33   3.133   5.191   4.076
    4ASN     HA   34   3.041   5.167   4.024
    4ASN     CB   35   3.098   5.164   4.227
    4ASN    HB1   36   3.167   5.213   4.299
    4ASN    HB2   37   3.123   5.056   4.239
    4ASN     CG   38   2.954   5.204   4.269
    4ASN    OD1   39   2.879   5.265   4.184
    4ASN    ND2   40   2.928   5.187   4.398
    4ASN   HD21   41   2.841   5.221   4.435
    4ASN   HD22   42   2.999   5.137   4.448
    4ASN      C   43   3.162   5.343   4.060
    4ASN      O   44   3.257   5.391   4.118
    5PRO      N   45   3.082   5.423   3.990
    5PRO     CD   46   2.992   5.379   3.880
    5PRO    HD1   47   2.887   5.359   3.909
    5PRO    HD2   48   3.044   5.295   3.831
    5PRO     CA   49   3.096   5.568   3.987
    5PRO     HA   50   3.194   5.600   3.953
    5PRO     CB   51   2.997   5.617   3.880
    5PRO    HB1   52   3.040   5.706   3.828
    5PRO    HB2   53   2.889   5.621   3.903
    5PRO     CG   54   2.995   5.500   3.781
    5PRO    HG1   55   2.906   5.503   3.715
    5PRO    HG2   56   3.093   5.501   3.729
    5PRO      C   57   3.057   5.627   4.118
    5PRO      O   58   3.112   5.734   4.158
    6GLY      N   59   2.971   5.551   4.192
    6GLY     HN   60   2.948   5.461   4.155
    6GLY     CA   61   2.922   5.586   4.322
    6GLY    HA1   62   2.824   5.541   4.328
    6GLY    HA2   63   2.912   5.693   4.322
    6GLY      C   64   3.016   5.540   4.434
    6GLY      O   65   3.120   5.477   4.409
    7PRO      N   66   2.965   5.561   4.553
    7PRO     CD   67   2.836   5.628   4.582
    7PRO    HD1   68   2.739   5.588   4.546
    7PRO    HD2   69   2.833   5.737   4.557
    7PRO     CA   70   3.039   5.549   4.679
    7PRO     HA   71   3.136   5.591   4.661
    7PRO     CB   72   2.962   5.623   4.788
    7PRO    HB1   73   3.004   5.726   4.794
    7PRO    HB2   74   2.975   5.584   4.891
    7PRO     CG   75   2.820   5.620   4.736
    7PRO    HG1   76   2.779   5.520   4.763
    7PRO    HG2   77   2.752   5.699   4.774
    7PRO      C   78   3.063   5.404   4.725
    7PRO      O   79   3.171   5.377   4.776
    8GLY      N   80   2.957   5.322   4.717
    8GLY     HN   81   2.867   5.349   4.684
    8GLY     CA   82   2.963   5.187   4.765
    8GLY    HA1   83   2.863   5.149   4.777
    8GLY    HA2   84   3.021   5.195   4.856
    8GLY      C   85   3.036   5.083   4.678
    8GLY      O   86   3.116   5.111   4.584
    9ASN      N   87   3.031   4.953   4.708
    9ASN     HN   88   2.979   4.930   4.790
    9ASN     CA   89   3.096   4.847   4.631
    9ASN     HA   90   3.197   4.876   4.605
    9ASN     CB   91   3.101   4.710   4.715
    9ASN    HB1   92   3.123   4.619   4.655
    9ASN    HB2   93   3.010   4.692   4.776
    9ASN     CG   94   3.215   4.722   4.810
    9ASN    OD1   95   3.317   4.785   4.796
    9ASN    ND2   96   3.203   4.642   4.916
    9ASN   HD21   97   3.283   4.642   4.976
    9ASN   HD22   98   3.132   4.573   4.907
    9ASN      C   99   3.019   4.836   4.495
    9ASN      O  100   2.899   4.854   4.504
   10PRO      N  101   3.076   4.812   4.381
   10PRO     CD  102   3.221   4.792   4.378
   10PRO    HD1  103   3.258   4.721   4.456
   10PRO    HD2  104   3.276   4.888   4.383
   10PRO     CA  105   3.004   4.759   4.266
   10PRO     HA  106   2.918   4.819   4.242
   10PRO     CB  107   3.119   4.743   4.159
   10PRO    HB1  108   3.109   4.837   4.099
   10PRO    HB2  109   3.109   4.656   4.090
   10PRO     CG  110   3.249   4.741   4.235
   10PRO    HG1  111   3.279   4.635   4.251
   10PRO    HG2  112   3.336   4.790   4.186
   10PRO      C  113   2.945   4.618   4.300
   10PRO      O  114   3.005   4.540   4.375
   11GLY      N  115   2.824   4.582   4.242
   11GLY     HN  116   2.774   4.642   4.180
   11GLY     CA  117   2.757   4.451   4.267
   11GLY    HA1  118   2.658   4.480   4.236
   11GLY    HA2  119   2.760   4.415   4.368
   11GLY      C  120   2.812   4.345   4.175
   11GLY      O  121   2.927   4.350   4.134
   12PRO      N  122   2.740   4.239   4.144
   12PRO     CD  123   2.618   4.224   4.224
   12PRO    HD1  124   2.549   4.304   4.189
   12PRO    HD2  125   2.624   4.223   4.335
   12PRO     CA  126   2.785   4.125   4.066
   12PRO     HA  127   2.850   4.075   4.136
   12PRO     CB  128   2.644   4.057   4.051
   12PRO    HB1  129   2.649   3.948   4.030
   12PRO    HB2  130   2.586   4.094   3.964
   12PRO     CG  131   2.573   4.083   4.184
   12PRO    HG1  132   2.463   4.074   4.174
   12PRO    HG2  133   2.605   4.001   4.252
   12PRO      C  134   2.850   4.142   3.937
   12PRO      O  135   2.840   4.249   3.874
   13GLY      N  136   2.931   4.043   3.887
   13GLY     HN  137   2.960   3.966   3.943
   13GLY     CA  138   3.003   4.058   3.764
   13GLY    HA1  139   2.933   4.098   3.691
   13GLY    HA2  140   3.038   3.959   3.739
   13GLY      C  141   3.112   4.154   3.764
   13GLY      O  142   3.146   4.211   3.867
   14ASN      N  143   3.173   4.167   3.648
   14ASN     HN  144   3.138   4.124   3.565
   14ASN     CA  145   3.293   4.233   3.633
   14ASN     HA  146   3.348   4.232   3.726
   14ASN     CB  147   3.386   4.175   3.517
   14ASN    HB1  148   3.459   4.255   3.492
   14ASN    HB2  149   3.333   4.158   3.421
   14ASN     CG  150   3.466   4.049   3.555
   14ASN    OD1  151   3.494   4.029   3.673
   14ASN    ND2  152   3.485   3.953   3.460
   14ASN   HD21  153   3.518   3.866   3.495
   14ASN   HD22  154   3.451   3.968   3.367
   14ASN      C  155   3.262   4.377   3.597
   14ASN      O  156   3.182   4.413   3.505
   15PRO      N  157   3.333   4.471   3.658
   15PRO     CD  158   3.383   4.476   3.791
   15PRO    HD1  159   3.493   4.459   3.798
   15PRO    HD2  160   3.330   4.404   3.856
   15PRO     CA  161   3.322   4.607   3.601
   15PRO     HA  162   3.221   4.641   3.583
   15PRO     CB  163   3.381   4.701   3.715
   15PRO    HB1  164   3.323   4.794   3.729
   15PRO    HB2  165   3.490   4.720   3.697
   15PRO     CG  166   3.359   4.622   3.839
   15PRO    HG1  167   3.411   4.665   3.927
   15PRO    HG2  168   3.251   4.625   3.866
   15PRO      C  169   3.400   4.625   3.474
   15PRO    OT1  170   3.509   4.559   3.462
   15PRO    OT2  171   3.355   4.693   3.384
   16SOD    SOD  172   7.164   1.131   0.989
   17SOD    SOD  173   5.389   3.434   3.945
   18SOD    SOD  174   0.077   5.523   6.585
   19SOD    SOD  175   7.101   5.435   2.543
   20SOD    SOD  176   5.451   1.435   3.054
   21SOD    SOD  177   5.963   3.588   5.012
   22SOD    SOD  178   3.090   6.177   6.739
   23SOD    SOD  179   2.528   3.261   2.909
   24SOD    SOD  180   6.530   3.070   2.034
   25SOD    SOD  181   8.294   6.085   5.652
   26SOD    SOD  182   3.055   0.340   0.619
   27SOD    SOD  183   5.747   2.026   3.946
   28SOD    SOD  184   7.492   6.609   0.441
   29SOD    SOD  185   5.617   5.009   3.549
   30SOD    SOD  186   0.770   0.122   6.201
   31SOD    SOD  187   6.094   7.544   5.432
   32SOD    SOD  188   6.579   6.423   5.489
   33SOD    SOD  189   1.248   3.263   5.689
   34SOD    SOD  190   5.687   5.635   0.192
   35SOD    SOD  191   3.870   5.373   5.532
   36SOD    SOD  192   3.872   0.297   4.096
   37SOD    SOD  193   1.742   6.981   4.423
   38SOD    SOD  194   2.912   7.016   6.587
   39SOD    SOD  195   7.037   1.039   3.919
   40SOD    SOD  196   3.609   4.962   1.208
   41SOD    SOD  197   6.999   7.600   3.814
   42SOD    SOD  198   1.660   1.848   4.527
   43SOD    SOD  199   3.038   1.570   1.816
   44SOD    SOD  200   2.850   1.816   4.779
   45SOD    SOD  201   0.955   7.573   6.669
   46SOD    SOD  202   4.003   0.595   0.064
   47SOD    SOD  203   8.292   1.730   4.690
   48SOD    SOD  204   7.260   4.546   0.308
   49SOD    SOD  205   3.925   7.555   4.024
   50SOD    SOD  206   4.536   5.625   2.991
   51SOD    SOD  207   0.237   4.816   3.351
   52SOD    SOD  208   3.440   5.463   5.111
   53SOD    SOD  209   5.642   0.612   4.307
   54SOD    SOD  210   6.949   3.609   1.774
   55SOD    SOD  211   0.971   4.108   5.565
   56SOD    SOD  212   2.278   0.163   1.047
   57SOD    SOD  213   3.754   2.838   5.919
   58CLA    CLA  214   3.651   3.935   2.663
   59CLA    CLA  215   6.858   0.130   4.458
   60CLA    CLA  216   2.745   2.820   6.071
   61CLA    CLA  217   7.799   3.540   1.250
   62CLA    CLA  218   8.273   6.250   1.545
   63CLA    CLA  219   4.281   1.954   6.465
   64CLA    CLA  220   4.905   7.009   4.342
   65CLA    CLA  221   8.127   5.697   5.936
   66CLA    CLA  222   5.698   7.777   5.499
   67CLA    CLA  223   3.632   5.824   6.311
   68CLA    CLA  224   5.544   1.580   4.492
   69CLA    CLA  225   5.992   6.806   4.556
   70CLA    CLA  226   1.307   6.934   4.177
   71CLA    CLA  227   2.107   0.973   5.355
   72CLA    CLA  228   4.514   5.490   4.906
   73CLA    CLA  229   1.355   3.518   5.218
   74CLA    CLA  230   5.200   6.532   3.692
   75CLA    CLA  231   5.097   1.966   3.036
   76CLA    CLA  232   6.095   2.909   5.203
   77CLA    CLA  233   6.802   0.289   0.431
   78CLA    CLA  234   1.264   4.659   5.050
   79CLA    CLA  235   6.629   1.888   3.103
   80CLA    CLA  236   6.389   0.364   2.004
   81CLA    CLA  237   7.341   5.877   3.166
   82CLA    CLA  238   7.510   7.363   0.388
   83CLA    CLA  239   4.845   0.854   2.913
   84CLA    CLA  240   7.357   4.386   6.370
   85CLA    CLA  241   7.872   3.867   2.528
   86CLA    CLA  242   2.167   1.536   3.717
   87CLA    CLA  243   7.242   4.177   1.727
   88CLA    CLA  244   2.548   5.006   3.738
   89CLA    CLA  245   7.078   2.777   2.016
   90CLA    CLA  246   3.704   4.487   3.116
   91CLA    CLA  247   7.196   0.084   2.040
   92CLA    CLA  248   2.709   1.089   0.301
   93CLA    CLA  249   3.229   4.920   0.059
   94CLA    CLA  250   2.321   5.455   5.289
   95CLA    CLA  251   2.382   0.120   0.607
   96CLA    CLA  252   7.804   7.823   3.096
   97CLA    CLA  253   5.686   6.940   6.628
   98CLA    CLA  254   5.881   3.405   1.429
   99CLA    CLA  255   5.487   2.417   0.089
  100TIP3   OH2  256   6.141   6.481   3.853
  100TIP3    H1  257   6.143   6.487   3.949
  100TIP3    H2  258   6.220   6.431   3.832
  101TIP3   OH2  259   6.719   0.082   1.576
  101TIP3    H1  260   6.663   0.100   1.500
  101TIP3    H2  261   6.685   0.140   1.645
  102TIP3   OH2  262   3.871   1.146   2.933
  102TIP3    H1  263   3.966   1.142   2.943
  102TIP3    H2  264   3.843   1.217   2.991
  103TIP3   OH2  265   4.681   2.224   2.047
  103TIP3    H1  266   4.748   2.227   1.979
  103TIP3    H2  267   4.616   2.163   2.014
  104TIP3   OH2  268   6.545   2.260   1.206
  104TIP3    H1  269   6.578   2.349   1.195
  104TIP3    H2  270   6.598   2.223   1.277
  105TIP3   OH2  271   8.034   1.964   5.027
  105TIP3    H1  272   7.975   1.917   4.969
  105TIP3    H2  273   8.014   2.057   5.011
  106TIP3   OH2  274   0.989   7.740   4.558
  106TIP3    H1  275   0.898   7.754   4.531
  106TIP3    H2  276   1.012   7.819   4.606
  107TIP3   OH2  277   2.724   5.187   3.542
  107TIP3    H1  278   2.799   5.135   3.515
  107TIP3    H2  279   2.683   5.136   3.611
  108TIP3   OH2  280   0.848   0.627   0.854
  108TIP3    H1  281   0.826   0.595   0.767
  108TIP3    H2  282   0.840   0.722   0.848
  109TIP3   OH2  283   6.998   0.363   5.214
  109TIP3    H1  284   7.018   0.322   5.130
  109TIP3    H2  285   7.070   0.425   5.228
  110TIP3   OH2  286   1.793   1.999   5.818
  110TIP3    H1  287   1.752   2.016   5.734
  110TIP3    H2  288   1.722   1.965   5.873
  111TIP3   OH2  289   0.183   4.201   3.747
  111TIP3    H1  290   0.222   4.175   3.830
  111TIP3    H2  291   0.220   4.140   3.683
  112TIP3   OH2  292   5.729   6.371   1.945
  112TIP3    H1  293   5.757   6.323   1.867
  112TIP3    H2  294   5.810   6.400   1.986
  113TIP3   OH2  295   0.325   7.811   3.510
  113TIP3    H1  296   0.342   7.717   3.508
  113TIP3    H2  297   0.246   7.823   3.458
  114TIP3   OH2  298   1.805   5.617   5.165
  114TIP3    H1  299   1.757   5.535   5.162
  114TIP3    H2  300   1.897   5.592   5.156
  115TIP3   OH2  301   4.101   4.421   0.681
  115TIP3    H1  302   4.020   4.425   0.630
  115TIP3    H2  303   4.154   4.493   0.646
  116TIP3   OH2  304   2.054   7.318   4.126
  116TIP3    H1  305   1.963   7.348   4.137
  116TIP3    H2  306   2.047   7.223   4.128
  117TIP3   OH2  307   1.683   5.435   3.984
  117TIP3    H1  308   1.644   5.437   3.896
  117TIP3    H2  309   1.715   5.345   3.994
  118TIP3   OH2  310   6.602   4.983   6.442
  118TIP3    H1  311   6.573   4.907   6.493
  118TIP3    H2  312   6.608   5.054   6.506
  119TIP3   OH2  313   5.548   3.604   6.434
  119TIP3    H1  314   5.485   3.650   6.379
  119TIP3    H2  315   5.597   3.548   6.373
  120TIP3   OH2  316   5.638   4.803   3.150
  120TIP3    H1  317   5.597   4.879   3.110
  120TIP3    H2  318   5.617   4.731   3.091
  121TIP3   OH2  319   2.855   6.412   3.367
  121TIP3    H1  320   2.871   6.361   3.287
  121TIP3    H2  321   2.940   6.420   3.408
  122TIP3   OH2  322   1.907   3.038   2.243
  122TIP3    H1  323   1.887   2.946   2.259
  122TIP3    H2  324   2.000   3.047   2.265
  123TIP3   OH2  325   2.351   1.842   5.082
  123TIP3    H1  326   2.344   1.935   5.061
  123TIP3    H2  327   2.334   1.798   4.998
  124TIP3   OH2  328   3.292   7.263   5.874
  124TIP3    H1  329   3.327   7.293   5.958
  124TIP3    H2  330   3.365   7.270   5.814
  125TIP3   OH2  331   7.096   1.282   0.785
  125TIP3    H1  332   7.168   1.312   0.729
  125TIP3    H2  333   7.101   1.338   0.863
  126TIP3   OH2  334   7.838   1.813   3.793
  126TIP3    H1  335   7.818   1.896   3.837
  126TIP3    H2  336   7.820   1.830   3.700
  127TIP3   OH2  337   4.327   2.626   0.497
  127TIP3    H1  338   4.241   2.592   0.521
  127TIP3    H2  339   4.363   2.561   0.436
  128TIP3   OH2  340   0.281   6.215   3.965
  128TIP3    H1  341   0.364   6.263   3.971
  128TIP3    H2  342   0.278   6.184   3.874
  129TIP3   OH2  343   1.888   1.167   4.147
  129TIP3    H1  344   1.905   1.219   4.226
  129TIP3    H2  345   1.844   1.228   4.088
  130TIP3   OH2  346   2.746   7.687   5.666
  130TIP3    H1  347   2.687   7.762   5.670
  130TIP3    H2  348   2.701   7.624   5.609
  131TIP3   OH2  349   3.459   5.902   2.577
  131TIP3    H1  350   3.514   5.942   2.509
  131TIP3    H2  351   3.467   5.961   2.652
  132TIP3   OH2  352   0.822   5.702   0.471
  132TIP3    H1  353   0.728   5.681   0.464
  132TIP3    H2  354   0.830   5.789   0.433
  133TIP3   OH2  355   0.292   1.131   5.225
  133TIP3    H1  356   0.199   1.118   5.205
  133TIP3    H2  357   0.327   1.043   5.235
  134TIP3   OH2  358   4.157   0.213   5.409
  134TIP3    H1  359   4.181   0.210   5.317
  134TIP3    H2  360   4.138   0.305   5.426
  135TIP3   OH2  361   0.676   4.462   4.780
  135TIP3    H1  362   0.745   4.402   4.809
  135TIP3    H2  363   0.721   4.546   4.771
  136TIP3   OH2  364   3.309   2.396   4.113
  136TIP3    H1  365   3.284   2.452   4.039
  136TIP3    H2  366   3.380   2.442   4.156
  137TIP3   OH2  367   4.723   3.557   4.706
  137TIP3    H1  368   4.742   3.642   4.745
  137TIP3    H2  369   4.802   3.506   4.720
  138TIP3   OH2  370   4.863   7.763   5.169
  138TIP3    H1  371   4.894   7.675   5.149
  138TIP3    H2  372   4.797   7.751   5.237
  139TIP3   OH2  373   2.345   1.218   1.089
  139TIP3    H1  374   2.394   1.271   1.152
  139TIP3    H2  375   2.399   1.219   1.009
  140TIP3   OH2  376   2.283   7.657   4.963
  140TIP3    H1  377   2.288   7.581   4.904
  140TIP3    H2  378   2.330   7.727   4.916
  141TIP3   OH2  379   1.117   1.337   5.377
  141TIP3    H1  380   1.206   1.303   5.367
  141TIP3    H2  381   1.126   1.432   5.370
  142TIP3   OH2  382   5.429   5.453   2.931
  142TIP3    H1  383   5.433   5.467   2.837
  142TIP3    H2  384   5.503   5.396   2.950
  143TIP3   OH2  385   4.465   3.205   1.740
  143TIP3    H1  386   4.445   3.118   1.774
  143TIP3    H2  387   4.398   3.220   1.673
  144TIP3   OH2  388   2.613   1.200   2.181
  144TIP3    H1  389   2.520   1.213   2.201
  144TIP3    H2  390   2.658   1.222   2.263
  145TIP3   OH2  391   7.914   7.853   3.943
  145TIP3    H1  392   7.930   7.770   3.898
  145TIP3    H2  393   7.880   7.827   4.029
  146TIP3   OH2  394   4.028   5.708   3.998
  146TIP3    H1  395   3.970   5.686   4.071
  146TIP3    H2  396   4.044   5.802   4.008
  147TIP3   OH2  397   4.642   5.882   2.443
  147TIP3    H1  398   4.582   5.956   2.445
  147TIP3    H2  399   4.592   5.809   2.479
  148TIP3   OH2  400   3.618   2.949   6.519
  148TIP3    H1  401   3.630   2.875   6.460
  148TIP3    H2  402   3.653   2.918   6.603
  149TIP3   OH2  403   7.202   5.953   1.199
  149TIP3    H1  404   7.137   5.997   1.144
  149TIP3    H2  405   7.285   5.997   1.176
  150TIP3   OH2  406   2.269   5.859   4.216
  150TIP3    H1  407   2.304   5.868   4.127
  150TIP3    H2  408   2.199   5.795   4.208
  151TIP3   OH2  409   7.882   2.852   0.281
  151TIP3    H1  410   7.869   2.863   0.375
  151TIP3    H2  411   7.970   2.816   0.273
  152TIP3   OH2  412   3.230   3.247   0.903
  152TIP3    H1  413   3.261   3.171   0.854
  152TIP3    H2  414   3.308   3.283   0.945
  153TIP3   OH2  415   6.518   0.774  -0.020
  153TIP3    H1  416   6.469   0.693  -0.007
  153TIP3    H2  417   6.519   0.816   0.066
  154TIP3   OH2  418   6.323   1.332   2.314
  154TIP3    H1  419   6.259   1.298   2.377
  154TIP3    H2  420   6.381   1.258   2.297
  155TIP3   OH2  421   6.788   3.526   6.109
  155TIP3    H1  422   6.838   3.552   6.031
  155TIP3    H2  423   6.825   3.441   6.134
  156TIP3   OH2  424   1.308   0.075   0.033
  156TIP3    H1  425   1.246   0.005   0.053
  156TIP3    H2  426   1.261   0.132  -0.028
  157TIP3   OH2  427   6.739   4.496   3.986
  157TIP3    H1  428   6.755   4.563   4.052
  157TIP3    H2  429   6.724   4.545   3.905
  158TIP3   OH2  430   3.249   4.441   5.410
  158TIP3    H1  431   3.228   4.482   5.494
  158TIP3    H2  432   3.292   4.359   5.435
  159TIP3   OH2  433   5.973   5.969   4.544
  159TIP3    H1  434   5.928   6.022   4.609
  159TIP3    H2  435   6.049   6.021   4.519
  160TIP3   OH2  436   6.313   1.217   6.738
  160TIP3    H1  437   6.297   1.312   6.734
  160TIP3    H2  438   6.409   1.209   6.736
  161TIP3   OH2  439   6.868   1.163   2.861
  161TIP3    H1  440   6.902   1.241   2.904
  161TIP3    H2  441   6.853   1.191   2.770
  162TIP3   OH2  442   1.174   5.465   4.341
  162TIP3    H1  443   1.160   5.373   4.364
  162TIP3    H2  444   1.092   5.493   4.302
  163TIP3   OH2  445   6.282   2.563   1.064
  163TIP3    H1  446   6.294   2.493   1.000
  163TIP3    H2  447   6.351   2.627   1.043
  164TIP3   OH2  448   6.365   6.544   6.766
  164TIP3    H1  449   6.301   6.565   6.698
  164TIP3    H2  450   6.401   6.460   6.740
  165TIP3   OH2  451   3.164   4.370   2.948
  165TIP3    H1  452   3.179   4.392   3.039
  165TIP3    H2  453   3.245   4.329   2.919
  166TIP3   OH2  454   5.575   3.192   0.977
  166TIP3    H1  455   5.593   3.199   1.071
  166TIP3    H2  456   5.528   3.272   0.956
  167TIP3   OH2  457   5.681   4.041   5.139
  167TIP3    H1  458   5.685   4.132   5.166
  167TIP3    H2  459   5.752   4.031   5.076
  168TIP3   OH2  460   3.964   5.082   6.070
  168TIP3    H1  461   3.909   5.003   6.068
  168TIP3    H2  462   3.941   5.128   5.990
  169TIP3   OH2  463   1.979   4.291   4.423
  169TIP3    H1  464   1.905   4.292   4.361
  169TIP3    H2  465   2.054   4.263   4.370
  170TIP3   OH2  466   4.602   4.762   4.638
  170TIP3    H1  467   4.634   4.842   4.679
  170TIP3    H2  468   4.673   4.699   4.650
  171TIP3   OH2  469   1.346   1.407   5.069
  171TIP3    H1  470   1.403   1.474   5.033
  171TIP3    H2  471   1.295   1.376   4.994
  172TIP3   OH2  472   3.739   7.094   3.889
  172TIP3    H1  473   3.801   7.166   3.897
  172TIP3    H2  474   3.716   7.072   3.979
  173TIP3   OH2  475   6.333   4.932   4.713
  173TIP3    H1  476   6.303   5.006   4.660
  173TIP3    H2  477   6.299   4.950   4.801
  174TIP3   OH2  478   6.304   1.647   0.277
  174TIP3    H1  479   6.342   1.566   0.311
  174TIP3    H2  480   6.375   1.687   0.227
  175TIP3   OH2  481   0.269   3.069  -0.013
  175TIP3    H1  482   0.271   3.020   0.069
  175TIP3    H2  483   0.341   3.132  -0.006
  176TIP3   OH2  484   6.894   7.834   4.325
  176TIP3    H1  485   6.800   7.852   4.327
  176TIP3    H2  486   6.901   7.745   4.292
  177TIP3   OH2  487   4.742   1.545   0.125
  177TIP3    H1  488   4.689   1.470   0.150
  177TIP3    H2  489   4.690   1.591   0.060
  178TIP3   OH2  490   6.986   6.399   5.038
  178TIP3    H1  491   6.893   6.377   5.034
  178TIP3    H2  492   7.017   6.390   4.949
  179TIP3   OH2  493   1.892   5.702   1.115
  179TIP3    H1  494   1.899   5.773   1.179
  179TIP3    H2  495   1.971   5.710   1.062
  180TIP3   OH2  496   6.059   0.737   6.684
  180TIP3    H1  497   6.091   0.749   6.594
  180TIP3    H2  498   5.966   0.757   6.679
  181TIP3   OH2  499   2.671   3.831   0.933
  181TIP3    H1  500   2.699   3.840   1.024
  181TIP3    H2  501   2.703   3.744   0.907
  182TIP3   OH2  502   0.876   0.206   4.818
  182TIP3    H1  503   0.785   0.216   4.845
  182TIP3    H2  504   0.921   0.170   4.895
  183TIP3   OH2  505   7.279   1.629   4.843
  183TIP3    H1  506   7.203   1.661   4.795
  183TIP3    H2  507   7.246   1.612   4.931
  184TIP3   OH2  508   3.045   0.294   4.782
  184TIP3    H1  509   3.092   0.218   4.816
  184TIP3    H2  510   3.021   0.345   4.860
  185TIP3   OH2  511   7.660   0.654   0.037
  185TIP3    H1  512   7.743   0.642   0.084
  185TIP3    H2  513   7.684   0.653  -0.055
  186TIP3   OH2  514   1.787   3.090   3.095
  186TIP3    H1  515   1.816   3.176   3.123
  186TIP3    H2  516   1.701   3.079   3.136
  187TIP3   OH2  517   6.455   4.458   3.965
  187TIP3    H1  518   6.549   4.453   3.952
  187TIP3    H2  519   6.430   4.370   3.994
  188TIP3   OH2  520   2.272   2.688   3.478
  188TIP3    H1  521   2.336   2.699   3.408
  188TIP3    H2  522   2.275   2.771   3.526
  189TIP3   OH2  523   5.358   6.733   3.861
  189TIP3    H1  524   5.353   6.817   3.815
  189TIP3    H2  525   5.333   6.668   3.796
  190TIP3   OH2  526   6.031   6.130   2.029
  190TIP3    H1  527   5.979   6.049   2.028
  190TIP3    H2  528   6.113   6.106   2.073
  191TIP3   OH2  529   7.551   4.515   4.547
  191TIP3    H1  530   7.509   4.601   4.549
  191TIP3    H2  531   7.579   4.504   4.456
  192TIP3   OH2  532   4.465   0.877   0.488
  192TIP3    H1  533   4.419   0.812   0.540
  192TIP3    H2  534   4.499   0.939   0.552
  193TIP3   OH2  535   0.755   3.645   6.051
  193TIP3    H1  536   0.719   3.705   5.986
  193TIP3    H2  537   0.849   3.643   6.032
  194TIP3   OH2  538   0.814   7.344   6.326
  194TIP3    H1  539   0.867   7.306   6.256
  194TIP3    H2  540   0.727   7.306   6.313
  195TIP3   OH2  541   2.179   7.256   3.370
  195TIP3    H1  542   2.192   7.239   3.463
  195TIP3    H2  543   2.090   7.291   3.364
  196TIP3   OH2  544   5.053   5.771   2.586
  196TIP3    H1  545   5.133   5.817   2.561
  196TIP3    H2  546   5.005   5.834   2.640
  197TIP3   OH2  547   6.252   5.086   2.975
  197TIP3    H1  548   6.215   5.047   2.896
  197TIP3    H2  549   6.285   5.011   3.025
  198TIP3   OH2  550   7.296   2.829   4.997
  198TIP3    H1  551   7.336   2.817   5.083
  198TIP3    H2  552   7.250   2.913   5.004
  199TIP3   OH2  553   0.235   0.518   0.567
  199TIP3    H1  554   0.325   0.534   0.539
  199TIP3    H2  555   0.226   0.423   0.568
  200TIP3   OH2  556   0.920   6.152   6.552
  200TIP3    H1  557   0.949   6.075   6.504
  200TIP3    H2  558   0.899   6.216   6.484
  201TIP3   OH2  559   3.194   2.042   3.844
  201TIP3    H1  560   3.170   1.999   3.763
  201TIP3    H2  561   3.126   2.017   3.906
  202TIP3   OH2  562   4.611   2.112   1.722
  202TIP3    H1  563   4.610   2.051   1.796
  202TIP3    H2  564   4.677   2.077   1.662
  203TIP3   OH2  565   5.937   1.597   3.933
  203TIP3    H1  566   6.004   1.634   3.876
  203TIP3    H2  567   5.986   1.555   4.004
  204TIP3   OH2  568   6.331   4.029   2.621
  204TIP3    H1  569   6.412   3.979   2.618
  204TIP3    H2  570   6.297   4.027   2.532
  205TIP3   OH2  571   2.801   7.503   6.529
  205TIP3    H1  572   2.790   7.577   6.470
  205TIP3    H2  573   2.753   7.431   6.487
  206TIP3   OH2  574   6.797   0.411   6.576
  206TIP3    H1  575   6.820   0.453   6.493
  206TIP3    H2  576   6.861   0.339   6.584
  207TIP3   OH2  577   1.691   5.326   6.576
  207TIP3    H1  578   1.660   5.396   6.634
  207TIP3    H2  579   1.786   5.331   6.582
  208TIP3   OH2  580   0.990   6.062   5.726
  208TIP3    H1  581   1.031   5.994   5.673
  208TIP3    H2  582   1.063   6.107   5.768
  209TIP3   OH2  583   3.032   7.445   2.509
  209TIP3    H1  584   3.076   7.527   2.487
  209TIP3    H2  585   3.058   7.384   2.440
  210TIP3   OH2  586   5.848   3.056   3.736
  210TIP3    H1  587   5.846   3.129   3.797
  210TIP3    H2  588   5.831   3.095   3.650
  211TIP3   OH2  589   7.314   5.946   4.737
  211TIP3    H1  590   7.319   5.937   4.642
  211TIP3    H2  591   7.389   6.001   4.760
  212TIP3   OH2  592   3.491   5.212   0.900
  212TIP3    H1  593   3.497   5.300   0.938
  212TIP3    H2  594   3.489   5.154   0.976
  213TIP3   OH2  595   1.594   7.350   3.862
  213TIP3    H1  596   1.550   7.383   3.940
  213TIP3    H2  597   1.633   7.428   3.822
  214TIP3   OH2  598   0.921   3.335   0.045
  214TIP3    H1  599   0.906   3.424   0.012
  214TIP3    H2  600   1.013   3.318   0.026
  215TIP3   OH2  601   0.786   4.838   2.948
  215TIP3    H1  602   0.742   4.861   3.030
  215TIP3    H2  603   0.723   4.783   2.901
  216TIP3   OH2  604   6.684   3.317   5.277
  216TIP3    H1  605   6.726   3.234   5.255
  216TIP3    H2  606   6.698   3.373   5.200
  217TIP3   OH2  607   6.871   4.193   5.250
  217TIP3    H1  608   6.876   4.267   5.311
  217TIP3    H2  609   6.901   4.229   5.166
  218TIP3   OH2  610   2.606   6.908   4.791
  218TIP3    H1  611   2.652   6.914   4.875
  218TIP3    H2  612   2.537   6.844   4.805
  219TIP3   OH2  613   1.207   2.148   5.262
  219TIP3    H1  614   1.237   2.082   5.199
  219TIP3    H2  615   1.219   2.231   5.217
  220TIP3   OH2  616   7.967   0.721   6.666
  220TIP3    H1  617   7.873   0.742   6.668
  220TIP3    H2  618   8.006   0.796   6.620
  221TIP3   OH2  619   4.735   5.582   1.706
  221TIP3    H1  620   4.714   5.521   1.635
  221TIP3    H2  621   4.650   5.602   1.745
  222TIP3   OH2  622   1.213   3.448   1.382
  222TIP3    H1  623   1.171   3.371   1.345
  222TIP3    H2  624   1.287   3.413   1.431
  223TIP3   OH2  625   0.847   7.638   4.911
  223TIP3    H1  626   0.830   7.564   4.969
  223TIP3    H2  627   0.808   7.612   4.827
  224TIP3   OH2  628   8.112   3.965   2.692
  224TIP3    H1  629   8.074   4.013   2.765
  224TIP3    H2  630   8.037   3.927   2.646
  225TIP3   OH2  631   4.007   4.811   2.853
  225TIP3    H1  632   4.061   4.732   2.858
  225TIP3    H2  633   4.019   4.843   2.764
  226TIP3   OH2  634   6.738   3.574   2.706
  226TIP3    H1  635   6.781   3.593   2.790
  226TIP3    H2  636   6.650   3.610   2.715
  227TIP3   OH2  637   0.215   6.233   1.069
  227TIP3    H1  638   0.212   6.150   1.021
  227TIP3    H2  639   0.307   6.244   1.092
  228TIP3   OH2  640   0.749   4.092   3.177
  228TIP3    H1  641   0.773   4.008   3.139
  228TIP3    H2  642   0.804   4.100   3.255
  229TIP3   OH2  643   4.837   3.668   5.048
  229TIP3    H1  644   4.800   3.590   5.088
  229TIP3    H2  645   4.928   3.670   5.079
  230TIP3   OH2  646   7.320   5.036   2.326
  230TIP3    H1  647   7.246   5.068   2.275
  230TIP3    H2  648   7.384   5.005   2.261
  231TIP3   OH2  649   1.121   5.635   1.266
  231TIP3    H1  650   1.139   5.648   1.359
  231TIP3    H2  651   1.051   5.697   1.247
  232TIP3   OH2  652   0.183   4.328   1.796
  232TIP3    H1  653   0.178   4.341   1.890
  232TIP3    H2  654   0.269   4.288   1.782
  233TIP3   OH2  655   3.589   4.608   0.208
  233TIP3    H1  656   3.517   4.671   0.212
  233TIP3    H2  657   3.567   4.543   0.275
  234TIP3   OH2  658   1.721   2.539   4.392
  234TIP3    H1  659   1.799   2.485   4.398
  234TIP3    H2  660   1.719   2.588   4.474
  235TIP3   OH2  661   3.347   4.425   4.625
  235TIP3    H1  662   3.273   4.408   4.567
  235TIP3    H2  663   3.316   4.399   4.712
  236TIP3   OH2  664   2.834   4.527   4.656
  236TIP3    H1  665   2.903   4.508   4.719
  236TIP3    H2  666   2.785   4.599   4.694
  237TIP3   OH2  667   1.409   4.459   1.170
  237TIP3    H1  668   1.482   4.417   1.216
  237TIP3    H2  669   1.436   4.550   1.161
  238TIP3   OH2  670   0.960   0.824   2.599
  238TIP3    H1  671   0.978   0.775   2.679
  238TIP3    H2  672   1.035   0.807   2.542
  239TIP3   OH2  673   4.844   0.040   0.153
  239TIP3    H1  674   4.880  -0.049   0.156
  239TIP3    H2  675   4.806   0.047   0.066
  240TIP3   OH2  676   1.021   1.319   3.526
  240TIP3    H1  677   0.972   1.394   3.559
  240TIP3    H2  678   0.997   1.246   3.584
  241TIP3   OH2  679   0.235   6.557   4.162
  241TIP3    H1  680   0.223   6.632   4.220
  241TIP3    H2  681   0.304   6.505   4.204
  242TIP3   OH2  682   7.226   3.596   5.022
  242TIP3    H1  683   7.236   3.676   4.969
  242TIP3    H2  684   7.280   3.531   4.977
  243TIP3   OH2  685   5.655   6.454   5.694
  243TIP3    H1  686   5.598   6.530   5.707
  243TIP3    H2  687   5.717   6.482   5.627
  244TIP3   OH2  688   2.032   0.426   4.101
  244TIP3    H1  689   2.054   0.338   4.131
  244TIP3    H2  690   1.938   0.421   4.082
  245TIP3   OH2  691   7.788   0.941   1.753
  245TIP3    H1  692   7.783   0.878   1.682
  245TIP3    H2  693   7.788   1.027   1.709
  246TIP3   OH2  694   5.951   0.389   0.155
  246TIP3    H1  695   5.943   0.479   0.124
  246TIP3    H2  696   5.914   0.335   0.085
  247TIP3   OH2  697   6.299   5.446   4.446
  247TIP3    H1  698   6.236   5.388   4.403
  247TIP3    H2  699   6.360   5.471   4.377
  248TIP3   OH2  700   1.760   3.407   2.693
  248TIP3    H1  701   1.799   3.466   2.628
  248TIP3    H2  702   1.710   3.465   2.751
  249TIP3   OH2  703   5.841   0.270   5.708
  249TIP3    H1  704   5.814   0.179   5.722
  249TIP3    H2  705   5.899   0.290   5.781
  250TIP3   OH2  706   6.011   3.394   2.314
  250TIP3    H1  707   5.982   3.335   2.245
  250TIP3    H2  708   6.021   3.337   2.391
  251TIP3   OH2  709   5.601   2.555   2.024
  251TIP3    H1  710   5.510   2.530   2.006
  251TIP3    H2  711   5.638   2.481   2.071
  252TIP3   OH2  712   4.499   4.143   6.604
  252TIP3    H1  713   4.506   4.059   6.651
  252TIP3    H2  714   4.479   4.207   6.672
  253TIP3   OH2  715   3.725   2.693   0.195
  253TIP3    H1  716   3.702   2.614   0.245
  253TIP3    H2  717   3.686   2.679   0.109
  254TIP3   OH2  718   8.297   3.100   2.978
  254TIP3    H1  719   8.237   3.143   2.917
  254TIP3    H2  720   8.369   3.162   2.987
  255TIP3   OH2  721   1.605   0.737   5.482
  255TIP3    H1  722   1.625   0.807   5.420
  255TIP3    H2  723   1.671   0.670   5.464
  256TIP3   OH2  724   2.960   3.045   5.054
  256TIP3    H1  725   3.052   3.048   5.078
  256TIP3    H2  726   2.948   3.120   4.995
  257TIP3   OH2  727   4.370   5.158   3.540
  257TIP3    H1  728   4.434   5.156   3.470
  257TIP3    H2  729   4.301   5.217   3.510
  258TIP3   OH2  730   2.792   7.540   6.792
  258TIP3    H1  731   2.772   7.517   6.702
  258TIP3    H2  732   2.873   7.493   6.811
  259TIP3   OH2  733   5.236   1.400   0.010
  259TIP3    H1  734   5.258   1.473   0.067
  259TIP3    H2  735   5.171   1.435  -0.050
  260TIP3   OH2  736   8.156   4.441   3.801
  260TIP3    H1  737   8.109   4.422   3.882
  260TIP3    H2  738   8.169   4.535   3.802
  261TIP3   OH2  739   3.263   2.127   1.171
  261TIP3    H1  740   3.219   2.160   1.093
  261TIP3    H2  741   3.196   2.128   1.240
  262TIP3   OH2  742   7.378   4.842   6.454
  262TIP3    H1  743   7.416   4.928   6.436
  262TIP3    H2  744   7.410   4.819   6.541
  263TIP3   OH2  745   1.490   5.616   2.997
  263TIP3    H1  746   1.496   5.700   3.043
  263TIP3    H2  747   1.407   5.578   3.026
  264TIP3   OH2  748   4.341   3.907   3.295
  264TIP3    H1  749   4.376   3.996   3.291
  264TIP3    H2  750   4.335   3.880   3.203
  265TIP3   OH2  751   1.658   1.722   0.675
  265TIP3    H1  752   1.664   1.740   0.581
  265TIP3    H2  753   1.701   1.797   0.716
  266TIP3   OH2  754   3.524   6.521   4.481
  266TIP3    H1  755   3.564   6.459   4.542
  266TIP3    H2  756   3.452   6.473   4.442
  267TIP3   OH2  757   3.128   6.029   2.486
  267TIP3    H1  758   3.215   6.042   2.448
  267TIP3    H2  759   3.092   5.954   2.438
  268TIP3   OH2  760   0.780   4.451   3.723
  268TIP3    H1  761   0.867   4.482   3.750
  268TIP3    H2  762   0.752   4.514   3.657
  269TIP3   OH2  763   1.741   4.196   6.475
  269TIP3    H1  764   1.744   4.158   6.563
  269TIP3    H2  765   1.819   4.251   6.470
  270TIP3   OH2  766   4.301   4.361   3.090
  270TIP3    H1  767   4.255   4.337   3.171
  270TIP3    H2  768   4.286   4.456   3.083
  271TIP3   OH2  769   3.884   2.077   1.007
  271TIP3    H1  770   3.883   2.142   1.078
  271TIP3    H2  771   3.872   1.993   1.052
  272TIP3   OH2  772   7.837   5.904   1.364
  272TIP3    H1  773   7.776   5.926   1.293
  272TIP3    H2  774   7.915   5.956   1.346
  273TIP3   OH2  775   6.229   4.483   0.555
  273TIP3    H1  776   6.244   4.393   0.585
  273TIP3    H2  777   6.312   4.527   0.569
  274TIP3   OH2  778   1.670   3.598   4.722
  274TIP3    H1  779   1.752   3.597   4.771
  274TIP3    H2  780   1.631   3.512   4.737
  275TIP3   OH2  781   1.271   3.887   4.491
  275TIP3    H1  782   1.317   3.805   4.512
  275TIP3    H2  783   1.222   3.908   4.570
  276TIP3   OH2  784   7.551   6.642   3.661
  276TIP3    H1  785   7.568   6.735   3.648
  276TIP3    H2  786   7.619   6.614   3.722
  277TIP3   OH2  787   5.682   1.575   0.016
  277TIP3    H1  788   5.677   1.506   0.082
  277TIP3    H2  789   5.758   1.628   0.043
  278TIP3   OH2  790   3.625   3.245   2.381
  278TIP3    H1  791   3.656   3.183   2.448
  278TIP3    H2  792   3.613   3.191   2.303
  279TIP3   OH2  793   1.308   3.488   6.358
  279TIP3    H1  794   1.293   3.509   6.450
  279TIP3    H2  795   1.227   3.445   6.329
  280TIP3   OH2  796   2.373   7.674   0.799
  280TIP3    H1  797   2.382   7.767   0.778
  280TIP3    H2  798   2.387   7.629   0.716
  281TIP3   OH2  799   4.567   1.748   5.202
  281TIP3    H1  800   4.657   1.734   5.233
  281TIP3    H2  801   4.548   1.839   5.223
  282TIP3   OH2  802   0.064   2.993   1.761
  282TIP3    H1  803   0.112   3.059   1.712
  282TIP3    H2  804  -0.013   2.974   1.707
  283TIP3   OH2  805   5.896   0.093   3.855
  283TIP3    H1  806   5.919   0.040   3.932
  283TIP3    H2  807   5.823   0.148   3.885
  284TIP3   OH2  808   4.624   0.171   4.506
  284TIP3    H1  809   4.681   0.094   4.503
  284TIP3    H2  810   4.676   0.237   4.552
  285TIP3   OH2  811   2.084   7.671   0.780
  285TIP3    H1  812   2.063   7.579   0.764
  285TIP3    H2  813   2.176   7.671   0.806
  286TIP3   OH2  814   2.856   1.734   2.985
  286TIP3    H1  815   2.869   1.683   3.065
  286TIP3    H2  816   2.827   1.670   2.920
  287TIP3   OH2  817   2.619   7.497   5.508
  287TIP3    H1  818   2.598   7.409   5.539
  287TIP3    H2  819   2.677   7.483   5.433
  288TIP3   OH2  820   5.385   0.544   2.599
  288TIP3    H1  821   5.293   0.541   2.625
  288TIP3    H2  822   5.410   0.452   2.589
  289TIP3   OH2  823   4.755   1.279   1.751
  289TIP3    H1  824   4.698   1.234   1.813
  289TIP3    H2  825   4.696   1.323   1.691
  290TIP3   OH2  826   7.515   6.882   4.026
  290TIP3    H1  827   7.564   6.892   3.944
  290TIP3    H2  828   7.437   6.831   4.002
  291TIP3   OH2  829   2.902   6.348   1.289
  291TIP3    H1  830   2.962   6.278   1.264
  291TIP3    H2  831   2.821   6.304   1.313
  292TIP3   OH2  832   3.685   6.466   4.695
  292TIP3    H1  833   3.711   6.551   4.659
  292TIP3    H2  834   3.711   6.470   4.787
  293TIP3   OH2  835   1.332   7.705   5.360
  293TIP3    H1  836   1.375   7.735   5.280
  293TIP3    H2  837   1.401   7.706   5.426
  294TIP3   OH2  838   7.538   6.240   1.752
  294TIP3    H1  839   7.588   6.322   1.755
  294TIP3    H2  840   7.593   6.177   1.799
  295TIP3   OH2  841   0.290   0.225   0.492
  295TIP3    H1  842   0.333   0.160   0.547
  295TIP3    H2  843   0.197   0.209   0.504
  296TIP3   OH2  844   6.596   2.207   2.610
  296TIP3    H1  845   6.562   2.120   2.631
  296TIP3    H2  846   6.683   2.209   2.650
  297TIP3   OH2  847   0.096   5.168   0.678
  297TIP3    H1  848   0.002   5.170   0.694
  297TIP3    H2  849   0.134   5.146   0.763
  298TIP3   OH2  850   6.528   4.421   4.340
  298TIP3    H1  851   6.540   4.342   4.288
  298TIP3    H2  852   6.495   4.389   4.424
  299TIP3   OH2  853   1.020   3.658   6.053
  299TIP3    H1  854   1.042   3.568   6.028
  299TIP3    H2  855   1.104   3.702   6.062
  300TIP3   OH2  856   5.258   3.903   5.881
  300TIP3    H1  857   5.210   3.961   5.821
  300TIP3    H2  858   5.341   3.887   5.836
  301TIP3   OH2  859   1.438   6.926   1.345
  301TIP3    H1  860   1.402   6.910   1.432
  301TIP3    H2  861   1.531   6.906   1.353
  302TIP3   OH2  862   1.073   0.649   3.065
  302TIP3    H1  863   1.002   0.662   3.129
  302TIP3    H2  864   1.149   0.690   3.105
  303TIP3   OH2  865   3.216   3.151   5.506
  303TIP3    H1  866   3.166   3.232   5.512
  303TIP3    H2  867   3.292   3.165   5.563
  304TIP3   OH2  868   1.039   7.547   1.955
  304TIP3    H1  869   1.033   7.481   2.024
  304TIP3    H2  870   1.100   7.612   1.988
  305TIP3   OH2  871   7.784   6.260   1.971
  305TIP3    H1  872   7.735   6.265   2.053
  305TIP3    H2  873   7.837   6.340   1.970
  306TIP3   OH2  874   7.712   3.162   4.880
  306TIP3    H1  875   7.682   3.143   4.791
  306TIP3    H2  876   7.635   3.150   4.935
  307TIP3   OH2  877   3.522   1.402   1.201
  307TIP3    H1  878   3.600   1.368   1.245
  307TIP3    H2  879   3.489   1.329   1.150
  308TIP3   OH2  880   1.430   2.911   4.685
  308TIP3    H1  881   1.383   2.994   4.695
  308TIP3    H2  882   1.519   2.930   4.717
  309TIP3   OH2  883   2.776   3.211   4.512
  309TIP3    H1  884   2.766   3.144   4.580
  309TIP3    H2  885   2.826   3.166   4.443
  310TIP3   OH2  886   4.248   1.013   0.788
  310TIP3    H1  887   4.157   1.041   0.775
  310TIP3    H2  888   4.269   1.042   0.877
  311TIP3   OH2  889   5.201   6.352   1.501
  311TIP3    H1  890   5.226   6.353   1.409
  311TIP3    H2  891   5.245   6.428   1.539
  312TIP3   OH2  892   1.997   5.139   4.825
  312TIP3    H1  893   1.994   5.122   4.919
  312TIP3    H2  894   1.974   5.055   4.785
  313TIP3   OH2  895   3.672   7.641   1.929
  313TIP3    H1  896   3.752   7.628   1.878
  313TIP3    H2  897   3.625   7.710   1.882
  314TIP3   OH2  898   3.926   7.842   2.647
  314TIP3    H1  899   3.884   7.764   2.683
  314TIP3    H2  900   3.953   7.893   2.724
  315TIP3   OH2  901   0.511   4.674   0.750
  315TIP3    H1  902   0.536   4.586   0.720
  315TIP3    H2  903   0.563   4.687   0.830
  316TIP3   OH2  904   1.574   2.503   1.673
  316TIP3    H1  905   1.580   2.422   1.622
  316TIP3    H2  906   1.516   2.482   1.746
  317TIP3   OH2  907   3.738   3.057   2.990
  317TIP3    H1  908   3.795   3.019   3.056
  317TIP3    H2  909   3.793   3.068   2.913
  318TIP3   OH2  910   7.304   1.206   4.861
  318TIP3    H1  911   7.353   1.130   4.829
  318TIP3    H2  912   7.367   1.254   4.915
  319TIP3   OH2  913   7.990   0.206   1.509
  319TIP3    H1  914   7.997   0.263   1.586
  319TIP3    H2  915   8.022   0.121   1.540
  320TIP3   OH2  916   0.832   2.379   3.094
  320TIP3    H1  917   0.808   2.300   3.142
  320TIP3    H2  918   0.799   2.365   3.006
  321TIP3   OH2  919   7.527   6.998   2.454
  321TIP3    H1  920   7.483   7.058   2.514
  321TIP3    H2  921   7.550   7.053   2.378
  322TIP3   OH2  922   2.364   5.950   5.194
  322TIP3    H1  923   2.404   5.880   5.245
  322TIP3    H2  924   2.274   5.919   5.179
  323TIP3   OH2  925   0.561   7.741   6.720
  323TIP3    H1  926   0.605   7.820   6.752
  323TIP3    H2  927   0.494   7.773   6.660
  324TIP3   OH2  928   1.454   0.314   5.152
  324TIP3    H1  929   1.391   0.261   5.103
  324TIP3    H2  930   1.539   0.274   5.134
  325TIP3   OH2  931   0.951   7.118   3.994
  325TIP3    H1  932   0.919   7.102   3.905
  325TIP3    H2  933   0.875   7.150   4.041
  326TIP3   OH2  934   6.788   7.090   0.409
  326TIP3    H1  935   6.798   7.186   0.406
  326TIP3    H2  936   6.865   7.057   0.362
  327TIP3   OH2  937   4.207   7.409   2.336
  327TIP3    H1  938   4.171   7.463   2.406
  327TIP3    H2  939   4.157   7.327   2.341
  328TIP3   OH2  940   5.954   0.865   3.363
  328TIP3    H1  941   5.892   0.919   3.314
  328TIP3    H2  942   5.950   0.779   3.320
  329TIP3   OH2  943   1.800   6.457   6.335
  329TIP3    H1  944   1.776   6.365   6.346
  329TIP3    H2  945   1.865   6.456   6.265
  330TIP3   OH2  946   6.013   3.734   5.177
  330TIP3    H1  947   6.064   3.802   5.132
  330TIP3    H2  948   6.071   3.705   5.248
  331TIP3   OH2  949   4.205   4.868   1.378
  331TIP3    H1  950   4.273   4.924   1.416
  331TIP3    H2  951   4.234   4.779   1.397
  332TIP3   OH2  952   6.586   5.443   2.531
  332TIP3    H1  953   6.577   5.364   2.585
  332TIP3    H2  954   6.646   5.418   2.461
  333TIP3   OH2  955   2.948   4.663   5.309
  333TIP3    H1  956   2.952   4.757   5.290
  333TIP3    H2  957   3.039   4.638   5.326
  334TIP3   OH2  958   3.755   3.840   4.651
  334TIP3    H1  959   3.808   3.866   4.576
  334TIP3    H2  960   3.666   3.830   4.616
  335TIP3   OH2  961   7.437   5.032   5.251
  335TIP3    H1  962   7.406   4.988   5.330
  335TIP3    H2  963   7.470   4.960   5.196
  336TIP3   OH2  964   3.319   2.108   0.619
  336TIP3    H1  965   3.296   2.047   0.689
  336TIP3    H2  966   3.266   2.080   0.545
  337TIP3   OH2  967   1.265   1.351   5.867
  337TIP3    H1  968   1.283   1.349   5.773
  337TIP3    H2  969   1.285   1.440   5.893
  338TIP3   OH2  970   3.035   4.856   1.307
  338TIP3    H1  971   2.997   4.852   1.219
  338TIP3    H2  972   2.985   4.792   1.357
  339TIP3   OH2  973   6.888   7.443   2.386
  339TIP3    H1  974   6.967   7.497   2.391
  339TIP3    H2  975   6.897   7.395   2.304
  340TIP3   OH2  976   1.978   2.931   4.878
  340TIP3    H1  977   1.899   2.921   4.825
  340TIP3    H2  978   2.046   2.958   4.816
  341TIP3   OH2  979   6.047   3.617   3.417
  341TIP3    H1  980   6.101   3.696   3.409
  341TIP3    H2  981   6.011   3.604   3.329
  342TIP3   OH2  982   1.454   2.793   2.247
  342TIP3    H1  983   1.498   2.875   2.227
  342TIP3    H2  984   1.402   2.811   2.325
  343TIP3   OH2  985   5.441   1.627   5.217
  343TIP3    H1  986   5.428   1.645   5.124
  343TIP3    H2  987   5.494   1.700   5.248
  344TIP3   OH2  988   2.858   4.478   2.911
  344TIP3    H1  989   2.866   4.550   2.973
  344TIP3    H2  990   2.941   4.430   2.918
  345TIP3   OH2  991   1.813   0.601   5.314
  345TIP3    H1  992   1.766   0.566   5.238
  345TIP3    H2  993   1.842   0.688   5.287
  346TIP3   OH2  994   7.371   7.582   5.556
  346TIP3    H1  995   7.306   7.557   5.622
  346TIP3    H2  996   7.410   7.499   5.528
  347TIP3   OH2  997   2.348   7.788   5.854
  347TIP3    H1  998   2.273   7.729   5.855
  347TIP3    H2  999   2.394   7.769   5.936
  348TIP3   OH2 1000   1.765   7.061   1.056
  348TIP3    H1 1001   1.760   7.029   1.146
  348TIP3    H2 1002   1.766   6.982   1.002
  349TIP3   OH2 1003   7.680   7.394   3.341
  349TIP3    H1 1004   7.653   7.310   3.379
  349TIP3    H2 1005   7.608   7.418   3.283
  350TIP3   OH2 1006   0.740   7.213   2.034
  350TIP3    H1 1007   0.697   7.127   2.040
  350TIP3    H2 1008   0.833   7.193   2.040
  351TIP3   OH2 1009   0.663   4.120   1.841
  351TIP3    H1 1010   0.616   4.058   1.784
  351TIP3    H2 1011   0.756   4.102   1.824
  352TIP3   OH2 1012   6.967   0.794   2.925
  352TIP3    H1 1013   7.009   0.716   2.963
  352TIP3    H2 1014   6.922   0.835   2.999
  353TIP3   OH2 1015   0.420   7.482   3.818
  353TIP3    H1 1016   0.416   7.482   3.723
  353TIP3    H2 1017   0.330   7.496   3.847
  354TIP3   OH2 1018   1.722   3.511   3.047
  354TIP3    H1 1019   1.714   3.527   3.141
  354TIP3    H2 1020   1.694   3.593   3.006
  355TIP3   OH2 1021   0.806   4.414   3.311
  355TIP3    H1 1022   0.821   4.496   3.357
  355TIP3    H2 1023   0.830   4.346   3.374
  356TIP3   OH2 1024   0.780   1.080   6.188
  356TIP3    H1 1025   0.827   0.997   6.194
  356TIP3    H2 1026   0.848   1.146   6.202
  357TIP3   OH2 1027   2.885   1.339   2.550
  357TIP3    H1 1028   2.855   1.395   2.622
  357TIP3    H2 1029   2.806   1.322   2.499
  358TIP3   OH2 1030   2.496   3.757   2.881
  358TIP3    H1 1031   2.455   3.755   2.795
  358TIP3    H2 1032   2.427   3.786   2.940
  359TIP3   OH2 1033   7.011   2.186   0.871
  359TIP3    H1 1034   6.945   2.235   0.920
  359TIP3    H2 1035   7.073   2.156   0.938
  360TIP3   OH2 1036   6.845   7.100   6.419
  360TIP3    H1 1037   6.842   7.097   6.324
  360TIP3    H2 1038   6.910   7.167   6.439
  361TIP3   OH2 1039   6.382   6.072   0.041
  361TIP3    H1 1040   6.349   6.156   0.009
  361TIP3    H2 1041   6.475   6.073   0.021
  362TIP3   OH2 1042   0.601   3.429   5.647
  362TIP3    H1 1043   0.650   3.348   5.660
  362TIP3    H2 1044   0.537   3.430   5.718
  363TIP3   OH2 1045   2.617   0.457   4.413
  363TIP3    H1 1046   2.616   0.539   4.463
  363TIP3    H2 1047   2.693   0.465   4.356
  364TIP3   OH2 1048   4.632   5.738   2.025
  364TIP3    H1 1049   4.588   5.706   1.946
  364TIP3    H2 1050   4.654   5.659   2.074
  365TIP3   OH2 1051   2.282   3.050   4.041
  365TIP3    H1 1052   2.238   3.123   4.083
  365TIP3    H2 1053   2.219   3.019   3.975
  366TIP3   OH2 1054   2.566   0.160   0.332
  366TIP3    H1 1055   2.643   0.104   0.337
  366TIP3    H2 1056   2.528   0.157   0.420
  367TIP3   OH2 1057   3.790   5.111   2.065
  367TIP3    H1 1058   3.714   5.053   2.057
  367TIP3    H2 1059   3.865   5.054   2.047
  368TIP3   OH2 1060   5.208   4.530   1.813
  368TIP3    H1 1061   5.142   4.461   1.808
  368TIP3    H2 1062   5.172   4.602   1.761
  369TIP3   OH2 1063   3.870   3.830   1.370
  369TIP3    H1 1064   3.843   3.739   1.382
  369TIP3    H2 1065   3.812   3.880   1.428
  370TIP3   OH2 1066   7.199   0.219   0.401
  370TIP3    H1 1067   7.217   0.310   0.426
  370TIP3    H2 1068   7.200   0.220   0.306
  371TIP3   OH2 1069   4.989   7.364   0.189
  371TIP3    H1 1070   5.054   7.339   0.255
  371TIP3    H2 1071   5.002   7.459   0.178
  372TIP3   OH2 1072   0.813   3.967   1.434
  372TIP3    H1 1073   0.833   3.874   1.447
  372TIP3    H2 1074   0.867   3.993   1.359
  373TIP3   OH2 1075   4.533   6.502   1.536
  373TIP3    H1 1076   4.533   6.546   1.451
  373TIP3    H2 1077   4.448   6.525   1.574
  374TIP3   OH2 1078   7.290   4.545   6.696
  374TIP3    H1 1079   7.198   4.519   6.697
  374TIP3    H2 1080   7.322   4.518   6.610
  375TIP3   OH2 1081   7.674   0.247   1.941
  375TIP3    H1 1082   7.702   0.332   1.975
  375TIP3    H2 1083   7.601   0.222   1.998
  376TIP3   OH2 1084   5.739   0.878   4.532
  376TIP3    H1 1085   5.682   0.954   4.537
  376TIP3    H2 1086   5.688   0.806   4.569
  377TIP3   OH2 1087   5.045   2.419   1.422
  377TIP3    H1 1088   5.006   2.432   1.336
  377TIP3    H2 1089   5.135   2.447   1.412
  378TIP3   OH2 1090   1.578   5.967   2.899
  378TIP3    H1 1091   1.574   5.938   2.809
  378TIP3    H2 1092   1.616   6.055   2.894
  379TIP3   OH2 1093   6.595   7.524   3.923
  379TIP3    H1 1094   6.610   7.457   3.990
  379TIP3    H2 1095   6.553   7.596   3.970
  380TIP3   OH2 1096   5.460   5.205   0.665
  380TIP3    H1 1097   5.400   5.278   0.647
  380TIP3    H2 1098   5.518   5.239   0.734
  381TIP3   OH2 1099   5.130   1.833   5.141
  381TIP3    H1 1100   5.132   1.894   5.067
  381TIP3    H2 1101   5.086   1.755   5.107
  382TIP3   OH2 1102   7.989   6.374   1.607
  382TIP3    H1 1103   8.075   6.337   1.585
  382TIP3    H2 1104   7.927   6.305   1.582
  383TIP3   OH2 1105   6.863   0.544   5.806
  383TIP3    H1 1106   6.822   0.467   5.768
  383TIP3    H2 1107   6.857   0.530   5.901
  384TIP3   OH2 1108   4.102   4.539   1.101
  384TIP3    H1 1109   4.157   4.475   1.056
  384TIP3    H2 1110   4.163   4.589   1.155
  385TIP3   OH2 1111   1.163   7.536   4.614
  385TIP3    H1 1112   1.098   7.594   4.574
  385TIP3    H2 1113   1.232   7.528   4.548
  386TIP3   OH2 1114   3.129   4.025   5.524
  386TIP3    H1 1115   3.079   3.976   5.589
  386TIP3    H2 1116   3.086   4.006   5.440
  387TIP3   OH2 1117   4.603   4.825   6.729
  387TIP3    H1 1118   4.594   4.916   6.703
  387TIP3    H2 1119   4.692   4.819   6.764
  388TIP3   OH2 1120   1.307   2.124   1.690
  388TIP3    H1 1121   1.212   2.124   1.689
  388TIP3    H2 1122   1.330   2.128   1.783
  389TIP3   OH2 1123   4.878   5.489   5.794
  389TIP3    H1 1124   4.947   5.438   5.753
  389TIP3    H2 1125   4.924   5.558   5.842
  390TIP3   OH2 1126   8.262   0.239   4.270
  390TIP3    H1 1127   8.271   0.301   4.342
  390TIP3    H2 1128   8.168   0.223   4.263
  391TIP3   OH2 1129   7.301   5.114   5.641
  391TIP3    H1 1130   7.320   5.197   5.598
  391TIP3    H2 1131   7.305   5.049   5.570
  392TIP3   OH2 1132   6.168   2.746   1.384
  392TIP3    H1 1133   6.116   2.783   1.312
  392TIP3    H2 1134   6.256   2.781   1.370
  393TIP3   OH2 1135   7.092   1.280   2.335
  393TIP3    H1 1136   7.128   1.333   2.407
  393TIP3    H2 1137   7.081   1.193   2.373
  394TIP3   OH2 1138   2.109   3.523   0.732
  394TIP3    H1 1139   2.146   3.459   0.671
  394TIP3    H2 1140   2.156   3.604   0.714
  395TIP3   OH2 1141   7.185   0.875   1.474
  395TIP3    H1 1142   7.244   0.800   1.465
  395TIP3    H2 1143   7.131   0.872   1.394
  396TIP3   OH2 1144   2.553   0.204   3.890
  396TIP3    H1 1145   2.479   0.147   3.914
  396TIP3    H2 1146   2.532   0.235   3.802
  397TIP3   OH2 1147   8.129   5.184   4.490
  397TIP3    H1 1148   8.203   5.163   4.547
  397TIP3    H2 1149   8.167   5.191   4.403
  398TIP3   OH2 1150   6.765   0.779   4.726
  398TIP3    H1 1151   6.856   0.765   4.699
  398TIP3    H2 1152   6.713   0.752   4.650
  399TIP3   OH2 1153   0.164   1.611   5.243
  399TIP3    H1 1154   0.141   1.683   5.184
  399TIP3    H2 1155   0.203   1.654   5.318
  400TIP3   OH2 1156   6.797   0.569   3.066
  400TIP3    H1 1157   6.777   0.476   3.075
  400TIP3    H2 1158   6.859   0.573   2.992
  401TIP3   OH2 1159   4.517   3.376   0.746
  401TIP3    H1 1160   4.501   3.402   0.655
  401TIP3    H2 1161   4.610   3.393   0.759
  402TIP3   OH2 1162   7.550   7.010   0.020
  402TIP3    H1 1163   7.605   6.933   0.031
  402TIP3    H2 1164   7.611   7.080  -0.005
  403TIP3   OH2 1165   0.677   6.830   1.825
  403TIP3    H1 1166   0.730   6.893   1.777
  403TIP3    H2 1167   0.592   6.830   1.781
  404TIP3   OH2 1168   3.190   1.517   2.941
  404TIP3    H1 1169   3.196   1.438   2.995
  404TIP3    H2 1170   3.242   1.582   2.989
  405TIP3   OH2 1171   2.213   5.758   6.758
  405TIP3    H1 1172   2.142   5.700   6.785
  405TIP3    H2 1173   2.214   5.752   6.662
  406TIP3   OH2 1174   6.752   7.585   1.546
  406TIP3    H1 1175   6.721   7.494   1.547
  406TIP3    H2 1176   6.727   7.617   1.459
  407TIP3   OH2 1177   7.241   2.213   1.757
  407TIP3    H1 1178   7.212   2.185   1.844
  407TIP3    H2 1179   7.169   2.189   1.699
  408TIP3   OH2 1180   3.546   2.473   0.264
  408TIP3    H1 1181   3.490   2.408   0.307
  408TIP3    H2 1182   3.485   2.526   0.213
  409TIP3   OH2 1183   2.071   5.114   0.573
  409TIP3    H1 1184   2.087   5.021   0.556
  409TIP3    H2 1185   1.983   5.117   0.610
  410TIP3   OH2 1186   6.731   3.934   6.351
  410TIP3    H1 1187   6.720   4.021   6.391
  410TIP3    H2 1188   6.744   3.953   6.258
  411TIP3   OH2 1189   7.900   1.041   1.249
  411TIP3    H1 1190   7.993   1.049   1.228
  411TIP3    H2 1191   7.858   1.110   1.197
  412TIP3   OH2 1192   0.473   1.633   3.693
  412TIP3    H1 1193   0.527   1.673   3.761
  412TIP3    H2 1194   0.459   1.703   3.629
  413TIP3   OH2 1195   2.715   6.861   0.905
  413TIP3    H1 1196   2.669   6.938   0.872
  413TIP3    H2 1197   2.715   6.872   1.000
  414TIP3   OH2 1198   2.948   4.252   5.614
  414TIP3    H1 1199   2.993   4.181   5.569
  414TIP3    H2 1200   3.018   4.312   5.639
  415TIP3   OH2 1201   2.889   4.021   2.595
  415TIP3    H1 1202   2.862   3.956   2.659
  415TIP3    H2 1203   2.970   4.059   2.631
  416TIP3   OH2 1204   0.484   7.100   4.405
  416TIP3    H1 1205   0.464   7.071   4.316
  416TIP3    H2 1206   0.516   7.022   4.449
  417TIP3   OH2 1207   8.268   6.588   0.825
  417TIP3    H1 1208   8.215   6.510   0.812
  417TIP3    H2 1209   8.337   6.561   0.884
  418TIP3   OH2 1210   7.252   6.071   4.174
  418TIP3    H1 1211   7.267   6.086   4.081
  418TIP3    H2 1212   7.338   6.054   4.211
  419TIP3   OH2 1213   6.781   5.711   6.711
  419TIP3    H1 1214   6.838   5.777   6.673
  419TIP3    H2 1215   6.752   5.749   6.795
  420TIP3   OH2 1216   3.901   0.721   2.194
  420TIP3    H1 1217   3.846   0.752   2.266
  420TIP3    H2 1218   3.891   0.625   2.196
  421TIP3   OH2 1219   6.101   5.777   1.072
  421TIP3    H1 1220   6.121   5.846   1.134
  421TIP3    H2 1221   6.137   5.808   0.989
  422TIP3   OH2 1222   1.320   2.482   4.447
  422TIP3    H1 1223   1.359   2.547   4.505
  422TIP3    H2 1224   1.371   2.402   4.463
  423TIP3   OH2 1225   5.379   0.349   3.653
  423TIP3    H1 1226   5.437   0.303   3.592
  423TIP3    H2 1227   5.357   0.284   3.719
  424TIP3   OH2 1228   1.040   1.265   3.229
  424TIP3    H1 1229   1.118   1.320   3.224
  424TIP3    H2 1230   1.010   1.274   3.319
  425TIP3   OH2 1231   7.205   0.045   5.628
  425TIP3    H1 1232   7.178   0.130   5.663
  425TIP3    H2 1233   7.284   0.064   5.577
  426TIP3   OH2 1234   2.247   5.710   2.001
  426TIP3    H1 1235   2.190   5.635   2.018
  426TIP3    H2 1236   2.307   5.712   2.076
  427TIP3   OH2 1237   8.091   2.214   6.688
  427TIP3    H1 1238   8.008   2.179   6.720
  427TIP3    H2 1239   8.069   2.255   6.604
  428TIP3   OH2 1240   4.893   7.052   6.344
  428TIP3    H1 1241   4.953   7.089   6.280
  428TIP3    H2 1242   4.806   7.062   6.304
  429TIP3   OH2 1243   8.022   4.994   4.229
  429TIP3    H1 1244   8.072   4.951   4.298
  429TIP3    H2 1245   7.994   5.077   4.267
  430TIP3   OH2 1246   2.262   0.486   6.222
  430TIP3    H1 1247   2.230   0.424   6.288
  430TIP3    H2 1248   2.292   0.562   6.272
  431TIP3   OH2 1249   1.419   6.089   6.549
  431TIP3    H1 1250   1.434   6.113   6.640
  431TIP3    H2 1251   1.423   6.172   6.501
  432TIP3   OH2 1252   3.620   0.470   2.693
  432TIP3    H1 1253   3.552   0.536   2.707
  432TIP3    H2 1254   3.701   0.521   2.681
  433TIP3   OH2 1255   6.655   4.886   0.123
  433TIP3    H1 1256   6.607   4.954   0.171
  433TIP3    H2 1257   6.593   4.855   0.057
  434TIP3   OH2 1258   0.979   0.093   6.328
  434TIP3    H1 1259   0.967   0.013   6.380
  434TIP3    H2 1260   1.001   0.062   6.240
  435TIP3   OH2 1261   2.380   2.544   4.745
  435TIP3    H1 1262   2.367   2.623   4.692
  435TIP3    H2 1263   2.390   2.577   4.835
  436TIP3   OH2 1264   6.265   5.900   3.322
  436TIP3    H1 1265   6.267   5.961   3.395
  436TIP3    H2 1266   6.321   5.828   3.349
  437TIP3   OH2 1267   8.259   4.305   2.750
  437TIP3    H1 1268   8.340   4.259   2.773
  437TIP3    H2 1269   8.207   4.305   2.830
  438TIP3   OH2 1270   5.311   0.625   4.067
  438TIP3    H1 1271   5.396   0.637   4.108
  438TIP3    H2 1272   5.263   0.567   4.127
  439TIP3   OH2 1273   3.193   6.991   4.349
  439TIP3    H1 1274   3.265   7.048   4.375
  439TIP3    H2 1275   3.184   7.006   4.255
  440TIP3   OH2 1276   6.017   6.174   3.129
  440TIP3    H1 1277   6.064   6.097   3.160
  440TIP3    H2 1278   6.009   6.161   3.034
  441TIP3   OH2 1279   5.306   5.922   3.413
  441TIP3    H1 1280   5.399   5.937   3.427
  441TIP3    H2 1281   5.266   5.935   3.499
  442TIP3   OH2 1282   2.781   2.403   4.901
  442TIP3    H1 1283   2.844   2.465   4.865
  442TIP3    H2 1284   2.709   2.457   4.931
  443TIP3   OH2 1285   1.608   3.890   3.955
  443TIP3    H1 1286   1.563   3.847   4.028
  443TIP3    H2 1287   1.537   3.915   3.895
  444TIP3   OH2 1288   1.533   7.717   5.593
  444TIP3    H1 1289   1.578   7.787   5.640
  444TIP3    H2 1290   1.447   7.711   5.634
  445TIP3   OH2 1291   0.043   5.156   2.185
  445TIP3    H1 1292   0.115   5.123   2.238
  445TIP3    H2 1293  -0.035   5.148   2.240
  446TIP3   OH2 1294   5.278   3.089   4.765
  446TIP3    H1 1295   5.371   3.066   4.770
  446TIP3    H2 1296   5.274   3.158   4.699
  447TIP3   OH2 1297   2.103   5.580   5.108
  447TIP3    H1 1298   2.064   5.504   5.066
  447TIP3    H2 1299   2.155   5.544   5.179
  448TIP3   OH2 1300   4.627   0.699   4.606
  448TIP3    H1 1301   4.562   0.743   4.551
  448TIP3    H2 1302   4.703   0.757   4.605
  449TIP3   OH2 1303   4.689   4.901   3.604
  449TIP3    H1 1304   4.723   4.922   3.691
  449TIP3    H2 1305   4.596   4.884   3.618
  450TIP3   OH2 1306   0.525   7.379   3.112
  450TIP3    H1 1307   0.594   7.406   3.051
  450TIP3    H2 1308   0.446   7.420   3.077
  451TIP3   OH2 1309   5.528   6.499   2.928
  451TIP3    H1 1310   5.610   6.512   2.976
  451TIP3    H2 1311   5.557   6.474   2.840
  452TIP3   OH2 1312   2.878   4.299   3.139
  452TIP3    H1 1313   2.831   4.374   3.176
  452TIP3    H2 1314   2.970   4.325   3.139
  453TIP3   OH2 1315   6.836   3.405   4.314
  453TIP3    H1 1316   6.906   3.351   4.275
  453TIP3    H2 1317   6.860   3.494   4.290
  454TIP3   OH2 1318   6.786   7.544   3.743
  454TIP3    H1 1319   6.734   7.586   3.674
  454TIP3    H2 1320   6.723   7.525   3.812
  455TIP3   OH2 1321   4.060   4.629   4.004
  455TIP3    H1 1322   4.146   4.610   3.966
  455TIP3    H2 1323   3.998   4.606   3.935
  456TIP3   OH2 1324   3.411   2.681   3.723
  456TIP3    H1 1325   3.357   2.655   3.797
  456TIP3    H2 1326   3.349   2.718   3.660
  457TIP3   OH2 1327   6.166   4.715   4.744
  457TIP3    H1 1328   6.232   4.658   4.783
  457TIP3    H2 1329   6.216   4.779   4.692
  458TIP3   OH2 1330   5.841   1.890   3.219
  458TIP3    H1 1331   5.903   1.856   3.155
  458TIP3    H2 1332   5.823   1.815   3.277
  459TIP3   OH2 1333   2.495   3.688   3.281
  459TIP3    H1 1334   2.421   3.695   3.221
  459TIP3    H2 1335   2.491   3.768   3.333
  460TIP3   OH2 1336   8.061   6.284   4.053
  460TIP3    H1 1337   7.993   6.223   4.082
  460TIP3    H2 1338   8.030   6.317   3.968
  461TIP3   OH2 1339   0.812   0.612   1.179
  461TIP3    H1 1340   0.858   0.687   1.141
  461TIP3    H2 1341   0.814   0.546   1.110
  462TIP3   OH2 1342   2.553   6.515   6.194
  462TIP3    H1 1343   2.497   6.457   6.142
  462TIP3    H2 1344   2.520   6.603   6.176
  463TIP3   OH2 1345   0.396   0.157   5.605
  463TIP3    H1 1346   0.437   0.104   5.537
  463TIP3    H2 1347   0.304   0.134   5.602
  464TIP3   OH2 1348   5.298   1.115   5.272
  464TIP3    H1 1349   5.345   1.186   5.316
  464TIP3    H2 1350   5.344   1.035   5.297
  465TIP3   OH2 1351   3.011   3.957  -0.032
  465TIP3    H1 1352   2.939   4.019  -0.017
  465TIP3    H2 1353   3.031   3.922   0.055
  466TIP3   OH2 1354   0.836   3.143   4.481
  466TIP3    H1 1355   0.835   3.196   4.402
  466TIP3    H2 1356   0.817   3.205   4.552
  467TIP3   OH2 1357   7.611   5.900   3.019
  467TIP3    H1 1358   7.527   5.912   3.062
  467TIP3    H2 1359   7.600   5.939   2.932
  468TIP3   OH2 1360   0.449   1.129   5.841
  468TIP3    H1 1361   0.441   1.036   5.861
  468TIP3    H2 1362   0.533   1.137   5.796
  469TIP3   OH2 1363   2.116   2.992   6.117
  469TIP3    H1 1364   2.023   2.972   6.105
  469TIP3    H2 1365   2.152   2.991   6.029
  470TIP3   OH2 1366   3.564   1.603   6.570
  470TIP3    H1 1367   3.595   1.614   6.660
  470TIP3    H2 1368   3.616   1.664   6.518
  471TIP3   OH2 1369   8.117   2.900   1.608
  471TIP3    H1 1370   8.137   2.950   1.529
  471TIP3    H2 1371   8.119   2.809   1.580
  472TIP3   OH2 1372   2.577   3.527   6.756
  472TIP3    H1 1373   2.537   3.544   6.671
  472TIP3    H2 1374   2.554   3.436   6.775
  473TIP3   OH2 1375   0.133   6.511   6.244
  473TIP3    H1 1376   0.105   6.441   6.185
  473TIP3    H2 1377   0.054   6.532   6.295
  474TIP3   OH2 1378   0.441   3.775   0.204
  474TIP3    H1 1379   0.475   3.765   0.293
  474TIP3    H2 1380   0.378   3.703   0.194
  475TIP3   OH2 1381   5.663   1.690   6.060
  475TIP3    H1 1382   5.596   1.694   5.992
  475TIP3    H2 1383   5.693   1.599   6.059
  476TIP3   OH2 1384   4.094   2.639   2.698
  476TIP3    H1 1385   4.026   2.639   2.766
  476TIP3    H2 1386   4.160   2.579   2.730
  477TIP3   OH2 1387   4.561   0.021   5.022
  477TIP3    H1 1388   4.494   0.079   5.056
  477TIP3    H2 1389   4.570  -0.046   5.090
  478TIP3   OH2 1390   4.198   1.558   3.467
  478TIP3    H1 1391   4.170   1.626   3.528
  478TIP3    H2 1392   4.117   1.514   3.442
  479TIP3   OH2 1393   3.228   0.228   5.476
  479TIP3    H1 1394   3.252   0.211   5.385
  479TIP3    H2 1395   3.244   0.321   5.489
  480TIP3   OH2 1396   4.455   3.961   4.137
  480TIP3    H1 1397   4.451   3.875   4.096
  480TIP3    H2 1398   4.364   3.988   4.146
  481TIP3   OH2 1399   2.988   5.966   3.409
  481TIP3    H1 1400   2.956   5.878   3.430
  481TIP3    H2 1401   2.951   6.022   3.476
  482TIP3   OH2 1402   2.317   3.865   3.888
  482TIP3    H1 1403   2.301   3.959   3.882
  482TIP3    H2 1404   2.237   3.830   3.928
  483TIP3   OH2 1405   1.718   0.262   5.567
  483TIP3    H1 1406   1.663   0.188   5.541
  483TIP3    H2 1407   1.723   0.255   5.663
  484TIP3   OH2 1408   6.833   3.925   2.621
  484TIP3    H1 1409   6.890   3.989   2.579
  484TIP3    H2 1410   6.849   3.937   2.715
  485TIP3   OH2 1411   2.046   3.782   3.977
  485TIP3    H1 1412   1.965   3.829   3.955
  485TIP3    H2 1413   2.082   3.830   4.052
  486TIP3   OH2 1414   3.310   1.324   6.345
  486TIP3    H1 1415   3.222   1.325   6.382
  486TIP3    H2 1416   3.298   1.298   6.254
  487TIP3   OH2 1417   0.473   1.908   3.539
  487TIP3    H1 1418   0.515   1.988   3.508
  487TIP3    H2 1419   0.421   1.878   3.464
  488TIP3   OH2 1420   4.546   1.539   5.657
  488TIP3    H1 1421   4.512   1.501   5.738
  488TIP3    H2 1422   4.637   1.512   5.654
  489TIP3   OH2 1423   0.834   6.335   5.141
  489TIP3    H1 1424   0.867   6.372   5.223
  489TIP3    H2 1425   0.913   6.320   5.088
  490TIP3   OH2 1426   4.669   4.533   5.437
  490TIP3    H1 1427   4.754   4.494   5.459
  490TIP3    H2 1428   4.616   4.459   5.408
  491TIP3   OH2 1429   3.866   1.529   1.093
  491TIP3    H1 1430   3.808   1.503   1.022
  491TIP3    H2 1431   3.899   1.447   1.129
  492TIP3   OH2 1432   2.736   7.034   6.439
  492TIP3    H1 1433   2.717   7.107   6.380
  492TIP3    H2 1434   2.651   7.003   6.468
  493TIP3   OH2 1435   5.972   0.072   5.129
  493TIP3    H1 1436   6.046   0.033   5.176
  493TIP3    H2 1437   5.979   0.038   5.040
  494TIP3   OH2 1438   6.145   6.657   5.449
  494TIP3    H1 1439   6.068   6.708   5.425
  494TIP3    H2 1440   6.115   6.601   5.521
  495TIP3   OH2 1441   1.774   6.033   3.561
  495TIP3    H1 1442   1.813   6.025   3.649
  495TIP3    H2 1443   1.733   6.119   3.561
  496TIP3   OH2 1444   7.386   0.182   4.810
  496TIP3    H1 1445   7.337   0.116   4.761
  496TIP3    H2 1446   7.435   0.132   4.875
  497TIP3   OH2 1447   2.269   0.290   2.526
  497TIP3    H1 1448   2.324   0.229   2.575
  497TIP3    H2 1449   2.180   0.274   2.559
  498TIP3   OH2 1450   6.413   4.741   3.980
  498TIP3    H1 1451   6.439   4.650   3.984
  498TIP3    H2 1452   6.492   4.790   4.002
  499TIP3   OH2 1453   6.031   0.786   1.977
  499TIP3    H1 1454   6.039   0.754   2.067
  499TIP3    H2 1455   6.023   0.708   1.923
  500TIP3   OH2 1456   1.349   5.343   2.927
  500TIP3    H1 1457   1.254   5.358   2.923
  500TIP3    H2 1458   1.372   5.311   2.840
  501TIP3   OH2 1459   1.822   0.596   5.762
  501TIP3    H1 1460   1.850   0.658   5.694
  501TIP3    H2 1461   1.778   0.651   5.827
  502TIP3   OH2 1462   5.276   1.362   1.899
  502TIP3    H1 1463   5.202   1.377   1.840
  502TIP3    H2 1464   5.325   1.290   1.859
  503TIP3   OH2 1465   6.803   3.793   4.590
  503TIP3    H1 1466   6.723   3.753   4.626
  503TIP3    H2 1467   6.862   3.800   4.666
  504TIP3   OH2 1468   6.792   0.416   4.569
  504TIP3    H1 1469   6.796   0.397   4.663
  504TIP3    H2 1470   6.804   0.331   4.527
  505TIP3   OH2 1471   5.928   5.547   2.792
  505TIP3    H1 1472   5.914   5.566   2.885
  505TIP3    H2 1473   6.023   5.539   2.783
  506TIP3   OH2 1474   1.600   4.019   5.206
  506TIP3    H1 1475   1.508   4.041   5.191
  506TIP3    H2 1476   1.644   4.104   5.207
  507TIP3   OH2 1477   7.165   6.948   4.969
  507TIP3    H1 1478   7.252   6.907   4.962
  507TIP3    H2 1479   7.146   6.978   4.880
  508TIP3   OH2 1480   6.972   3.757   1.126
  508TIP3    H1 1481   7.041   3.690   1.123
  508TIP3    H2 1482   6.973   3.787   1.217
  509TIP3   OH2 1483   5.627   7.082   5.119
  509TIP3    H1 1484   5.569   7.158   5.115
  509TIP3    H2 1485   5.596   7.024   5.050
  510TIP3   OH2 1486   1.651   7.307   2.909
  510TIP3    H1 1487   1.685   7.357   2.835
  510TIP3    H2 1488   1.558   7.327   2.911
  511TIP3   OH2 1489   3.428   5.985   0.679
  511TIP3    H1 1490   3.359   5.926   0.647
  511TIP3    H2 1491   3.383   6.040   0.744
  512TIP3   OH2 1492   1.302   1.971   6.741
  512TIP3    H1 1493   1.264   1.888   6.712
  512TIP3    H2 1494   1.227   2.027   6.760
  513TIP3   OH2 1495   1.073   2.832   1.349
  513TIP3    H1 1496   1.125   2.801   1.275
  513TIP3    H2 1497   1.136   2.839   1.421
  514TIP3   OH2 1498   1.793   2.550   0.118
  514TIP3    H1 1499   1.835   2.625   0.158
  514TIP3    H2 1500   1.707   2.545   0.159
  515TIP3   OH2 1501   3.784   0.538   4.524
  515TIP3    H1 1502   3.878   0.552   4.532
  515TIP3    H2 1503   3.747   0.567   4.607
  516TIP3   OH2 1504   8.082   3.190   3.368
  516TIP3    H1 1505   8.029   3.126   3.320
  516TIP3    H2 1506   8.171   3.177   3.335
  517TIP3   OH2 1507   1.137   7.205   5.230
  517TIP3    H1 1508   1.058   7.172   5.271
  517TIP3    H2 1509   1.110   7.287   5.189
  518TIP3   OH2 1510   5.239   7.537   2.120
  518TIP3    H1 1511   5.265   7.502   2.205
  518TIP3    H2 1512   5.278   7.476   2.057
  519TIP3   OH2 1513   2.643   1.922   3.885
  519TIP3    H1 1514   2.599   1.840   3.908
  519TIP3    H2 1515   2.675   1.955   3.969
  520TIP3   OH2 1516   5.835   3.490   0.404
  520TIP3    H1 1517   5.748   3.520   0.430
  520TIP3    H2 1518   5.821   3.400   0.376
  521TIP3   OH2 1519   7.776   3.406   4.982
  521TIP3    H1 1520   7.744   3.319   4.956
  521TIP3    H2 1521   7.862   3.413   4.941
  522TIP3   OH2 1522   0.337   6.781   2.313
  522TIP3    H1 1523   0.373   6.797   2.225
  522TIP3    H2 1524   0.392   6.833   2.371
  523TIP3   OH2 1525   7.435   2.999   1.081
  523TIP3    H1 1526   7.400   3.072   1.030
  523TIP3    H2 1527   7.386   3.000   1.163
  524TIP3   OH2 1528   0.602   4.013   5.151
  524TIP3    H1 1529   0.550   4.044   5.226
  524TIP3    H2 1530   0.641   4.093   5.115
  525TIP3   OH2 1531   8.066   0.112   3.994
  525TIP3    H1 1532   8.034   0.026   4.021
  525TIP3    H2 1533   8.158   0.113   4.019
  526TIP3   OH2 1534   7.724   7.753   0.370
  526TIP3    H1 1535   7.775   7.742   0.450
  526TIP3    H2 1536   7.739   7.843   0.344
  527TIP3   OH2 1537   0.608   1.438   6.370
  527TIP3    H1 1538   0.615   1.395   6.284
  527TIP3    H2 1539   0.554   1.378   6.422
  528TIP3   OH2 1540   3.727   6.663   3.479
  528TIP3    H1 1541   3.771   6.580   3.501
  528TIP3    H2 1542   3.797   6.721   3.450
  529TIP3   OH2 1543   1.021   4.868   5.176
  529TIP3    H1 1544   1.063   4.815   5.108
  529TIP3    H2 1545   1.065   4.843   5.257
  530TIP3   OH2 1546   4.454   6.527   6.062
  530TIP3    H1 1547   4.447   6.622   6.056
  530TIP3    H2 1548   4.493   6.500   5.979
  531TIP3   OH2 1549   4.310   5.874   6.209
  531TIP3    H1 1550   4.223   5.905   6.234
  531TIP3    H2 1551   4.371   5.931   6.257
  532TIP3   OH2 1552   8.265   3.686   2.608
  532TIP3    H1 1553   8.306   3.763   2.647
  532TIP3    H2 1554   8.234   3.715   2.522
  533TIP3   OH2 1555   7.191   4.905   5.859
  533TIP3    H1 1556   7.097   4.887   5.867
  533TIP3    H2 1557   7.195   5.000   5.848
  534TIP3   OH2 1558   2.584   0.410   3.667
  534TIP3    H1 1559   2.643   0.358   3.613
  534TIP3    H2 1560   2.498   0.371   3.653
  535TIP3   OH2 1561   6.165   7.603   4.113
  535TIP3    H1 1562   6.167   7.656   4.033
  535TIP3    H2 1563   6.197   7.517   4.085
  536TIP3   OH2 1564   6.913   4.894   5.870
  536TIP3    H1 1565   6.832   4.845   5.856
  536TIP3    H2 1566   6.883   4.982   5.895
  537TIP3   OH2 1567   2.664   5.295   1.309
  537TIP3    H1 1568   2.640   5.301   1.216
  537TIP3    H2 1569   2.758   5.278   1.308
  538TIP3   OH2 1570   1.560   4.309   0.892
  538TIP3    H1 1571   1.636   4.365   0.901
  538TIP3    H2 1572   1.573   4.263   0.808
  539TIP3   OH2 1573   4.819   3.155   1.643
  539TIP3    H1 1574   4.756   3.227   1.649
  539TIP3    H2 1575   4.809   3.107   1.725
  540TIP3   OH2 1576   3.920   6.991   2.498
  540TIP3    H1 1577   3.832   6.958   2.478
  540TIP3    H2 1578   3.979   6.921   2.470
  541TIP3   OH2 1579   3.503   2.431   5.588
  541TIP3    H1 1580   3.421   2.477   5.574
  541TIP3    H2 1581   3.557   2.456   5.513
  542TIP3   OH2 1582   7.040   2.422   2.662
  542TIP3    H1 1583   7.105   2.473   2.615
  542TIP3    H2 1584   7.066   2.429   2.754
  543TIP3   OH2 1585   0.197   4.283   1.440
  543TIP3    H1 1586   0.187   4.356   1.501
  543TIP3    H2 1587   0.281   4.299   1.396
  544TIP3   OH2 1588   5.583   6.860   3.529
  544TIP3    H1 1589   5.615   6.902   3.449
  544TIP3    H2 1590   5.545   6.778   3.498
  545TIP3   OH2 1591   4.592   4.382   3.416
  545TIP3    H1 1592   4.530   4.359   3.486
  545TIP3    H2 1593   4.677   4.386   3.460
  546TIP3   OH2 1594   6.785   4.554   4.299
  546TIP3    H1 1595   6.690   4.548   4.304
  546TIP3    H2 1596   6.816   4.464   4.309
  547TIP3   OH2 1597   3.348   6.150   2.325
  547TIP3    H1 1598   3.397   6.218   2.370
  547TIP3    H2 1599   3.399   6.132   2.246
  548TIP3   OH2 1600   4.171   2.810   0.319
  548TIP3    H1 1601   4.172   2.905   0.329
  548TIP3    H2 1602   4.262   2.784   0.332
  549TIP3   OH2 1603   8.000   1.322   5.063
  549TIP3    H1 1604   7.992   1.234   5.099
  549TIP3    H2 1605   7.986   1.311   4.969
  550TIP3   OH2 1606   7.457   6.968   4.955
  550TIP3    H1 1607   7.484   7.055   4.927
  550TIP3    H2 1608   7.451   6.917   4.874
  551TIP3   OH2 1609   3.316   6.280   6.463
  551TIP3    H1 1610   3.372   6.231   6.402
  551TIP3    H2 1611   3.256   6.215   6.499
  552TIP3   OH2 1612   8.076   1.503   5.685
  552TIP3    H1 1613   8.144   1.570   5.674
  552TIP3    H2 1614   7.998   1.552   5.712
  553TIP3   OH2 1615   5.823   5.467   2.555
  553TIP3    H1 1616   5.833   5.492   2.647
  553TIP3    H2 1617   5.728   5.459   2.543
  554TIP3   OH2 1618   0.184   4.789   4.469
  554TIP3    H1 1619   0.121   4.766   4.537
  554TIP3    H2 1620   0.266   4.749   4.498
  555TIP3   OH2 1621   0.207   7.648   2.719
  555TIP3    H1 1622   0.201   7.737   2.754
  555TIP3    H2 1623   0.123   7.608   2.740
  556TIP3   OH2 1624   1.149   0.899   3.977
  556TIP3    H1 1625   1.200   0.932   4.051
  556TIP3    H2 1626   1.199   0.926   3.900
  557TIP3   OH2 1627   7.865   1.584   0.806
  557TIP3    H1 1628   7.942   1.637   0.786
  557TIP3    H2 1629   7.848   1.535   0.726
  558TIP3   OH2 1630   3.940   7.544   5.417
  558TIP3    H1 1631   3.914   7.608   5.483
  558TIP3    H2 1632   3.865   7.485   5.410
  559TIP3   OH2 1633   6.319   7.021   6.445
  559TIP3    H1 1634   6.357   6.948   6.494
  559TIP3    H2 1635   6.314   6.989   6.355
  560TIP3   OH2 1636   4.304   1.302   6.671
  560TIP3    H1 1637   4.293   1.338   6.583
  560TIP3    H2 1638   4.391   1.331   6.699
  561TIP3   OH2 1639   7.754   7.013   0.880
  561TIP3    H1 1640   7.687   6.976   0.937
  561TIP3    H2 1641   7.784   7.091   0.926
  562TIP3   OH2 1642   2.460   0.034   5.538
  562TIP3    H1 1643   2.444   0.126   5.557
  562TIP3    H2 1644   2.458   0.028   5.443
  563TIP3   OH2 1645   6.251   0.638   3.403
  563TIP3    H1 1646   6.330   0.585   3.390
  563TIP3    H2 1647   6.222   0.616   3.492
  564TIP3   OH2 1648   0.242   0.219   4.544
  564TIP3    H1 1649   0.219   0.126   4.547
  564TIP3    H2 1650   0.161   0.263   4.518
  565TIP3   OH2 1651   1.249   7.294   5.826
  565TIP3    H1 1652   1.223   7.255   5.909
  565TIP3    H2 1653   1.192   7.252   5.761
  566TIP3   OH2 1654   1.617   3.884   3.602
  566TIP3    H1 1655   1.633   3.804   3.651
  566TIP3    H2 1656   1.534   3.917   3.638
  567TIP3   OH2 1657   6.477   1.089   2.257
  567TIP3    H1 1658   6.551   1.072   2.316
  567TIP3    H2 1659   6.474   1.012   2.199
  568TIP3   OH2 1660   7.090   5.339   6.133
  568TIP3    H1 1661   7.091   5.252   6.174
  568TIP3    H2 1662   7.083   5.400   6.206
  569TIP3   OH2 1663   2.735   3.893   3.169
  569TIP3    H1 1664   2.770   3.947   3.098
  569TIP3    H2 1665   2.640   3.904   3.162
  570TIP3   OH2 1666   2.040   6.673   0.861
  570TIP3    H1 1667   2.032   6.740   0.793
  570TIP3    H2 1668   1.969   6.612   0.842
  571TIP3   OH2 1669   7.482   7.719   0.556
  571TIP3    H1 1670   7.438   7.754   0.634
  571TIP3    H2 1671   7.455   7.778   0.486
  572TIP3   OH2 1672   5.382   7.295   5.656
  572TIP3    H1 1673   5.291   7.321   5.637
  572TIP3    H2 1674   5.432   7.376   5.648
  573TIP3   OH2 1675   5.789   6.775   4.329
  573TIP3    H1 1676   5.729   6.850   4.339
  573TIP3    H2 1677   5.842   6.777   4.409
  574TIP3   OH2 1678   5.415   6.661   6.300
  574TIP3    H1 1679   5.354   6.718   6.252
  574TIP3    H2 1680   5.428   6.705   6.384
  575TIP3   OH2 1681   6.100   5.467   3.963
  575TIP3    H1 1682   6.024   5.416   3.992
  575TIP3    H2 1683   6.135   5.418   3.889
  576TIP3   OH2 1684   6.718   7.807   6.170
  576TIP3    H1 1685   6.758   7.894   6.175
  576TIP3    H2 1686   6.707   7.791   6.076
  577TIP3   OH2 1687   6.189   6.846   5.749
  577TIP3    H1 1688   6.256   6.804   5.695
  577TIP3    H2 1689   6.230   6.927   5.780
  578TIP3   OH2 1690   6.165   7.650   0.522
  578TIP3    H1 1691   6.213   7.726   0.554
  578TIP3    H2 1692   6.120   7.682   0.443
  579TIP3   OH2 1693   3.411   4.861   6.540
  579TIP3    H1 1694   3.373   4.774   6.529
  579TIP3    H2 1695   3.452   4.881   6.455
  580TIP3   OH2 1696   2.703   0.635   0.628
  580TIP3    H1 1697   2.658   0.715   0.602
  580TIP3    H2 1698   2.795   0.660   0.633
  581TIP3   OH2 1699   1.379   0.633   3.742
  581TIP3    H1 1700   1.397   0.576   3.817
  581TIP3    H2 1701   1.358   0.718   3.782
  582TIP3   OH2 1702   8.042   1.786   0.727
  582TIP3    H1 1703   8.072   1.845   0.658
  582TIP3    H2 1704   8.100   1.710   0.720
  583TIP3   OH2 1705   7.158   0.079   3.355
  583TIP3    H1 1706   7.207  -0.003   3.351
  583TIP3    H2 1707   7.071   0.053   3.386
  584TIP3   OH2 1708   2.396   4.222   5.312
  584TIP3    H1 1709   2.488   4.234   5.337
  584TIP3    H2 1710   2.346   4.248   5.390
  585TIP3   OH2 1711   2.559   0.162   4.187
  585TIP3    H1 1712   2.553   0.071   4.157
  585TIP3    H2 1713   2.499   0.210   4.131
  586TIP3   OH2 1714   7.913   0.349   0.661
  586TIP3    H1 1715   7.869   0.264   0.668
  586TIP3    H2 1716   7.844   0.413   0.678
  587TIP3   OH2 1717   7.063   7.014   4.454
  587TIP3    H1 1718   7.101   6.927   4.451
  587TIP3    H2 1719   7.125   7.069   4.407
  588TIP3   OH2 1720   5.701   5.660   6.017
  588TIP3    H1 1721   5.745   5.730   6.067
  588TIP3    H2 1722   5.623   5.640   6.068
  589TIP3   OH2 1723   0.630   1.853   6.008
  589TIP3    H1 1724   0.709   1.866   6.061
  589TIP3    H2 1725   0.636   1.920   5.940
  590TIP3   OH2 1726   4.535   6.617   1.269
  590TIP3    H1 1727   4.594   6.688   1.295
  590TIP3    H2 1728   4.587   6.566   1.206
  591TIP3   OH2 1729   0.071   3.283   0.509
  591TIP3    H1 1730   0.064   3.212   0.573
  591TIP3    H2 1731  -0.009   3.334   0.521
  592TIP3   OH2 1732   1.777   4.663   5.879
  592TIP3    H1 1733   1.794   4.613   5.799
  592TIP3    H2 1734   1.781   4.598   5.949
  593TIP3   OH2 1735   0.119   2.508   1.916
  593TIP3    H1 1736   0.027   2.529   1.898
  593TIP3    H2 1737   0.145   2.569   1.985
  594TIP3   OH2 1738   2.755   4.464   6.678
  594TIP3    H1 1739   2.812   4.389   6.696
  594TIP3    H2 1740   2.814   4.539   6.677
  595TIP3   OH2 1741   5.356   2.449   2.338
  595TIP3    H1 1742   5.411   2.393   2.392
  595TIP3    H2 1743   5.309   2.389   2.280
  596TIP3   OH2 1744   5.887   5.242   1.281
  596TIP3    H1 1745   5.819   5.241   1.347
  596TIP3    H2 1746   5.969   5.252   1.330
  597TIP3   OH2 1747   7.371   5.189   2.743
  597TIP3    H1 1748   7.380   5.110   2.689
  597TIP3    H2 1749   7.431   5.176   2.816
  598TIP3   OH2 1750   3.053   3.741   0.240
  598TIP3    H1 1751   3.035   3.689   0.318
  598TIP3    H2 1752   3.084   3.825   0.273
  599TIP3   OH2 1753   7.404   6.198   0.391
  599TIP3    H1 1754   7.497   6.191   0.414
  599TIP3    H2 1755   7.402   6.183   0.296
  600TIP3   OH2 1756   0.927   2.100   5.329
  600TIP3    H1 1757   1.006   2.134   5.287
  600TIP3    H2 1758   0.945   2.104   5.423
  601TIP3   OH2 1759   1.511   6.169   0.497
  601TIP3    H1 1760   1.448   6.140   0.563
  601TIP3    H2 1761   1.533   6.258   0.523
  602TIP3   OH2 1762   5.969   1.333   0.829
  602TIP3    H1 1763   6.043   1.372   0.781
  602TIP3    H2 1764   6.011   1.275   0.893
  603TIP3   OH2 1765   1.912   3.336   1.395
  603TIP3    H1 1766   1.909   3.241   1.406
  603TIP3    H2 1767   1.885   3.350   1.304
  604TIP3   OH2 1768   5.758   4.323   1.634
  604TIP3    H1 1769   5.682   4.279   1.595
  604TIP3    H2 1770   5.819   4.334   1.561
  605TIP3   OH2 1771   5.292   2.027   1.424
  605TIP3    H1 1772   5.373   1.996   1.385
  605TIP3    H2 1773   5.223   1.989   1.369
  606TIP3   OH2 1774   7.941   6.060   4.387
  606TIP3    H1 1775   8.015   6.002   4.404
  606TIP3    H2 1776   7.913   6.037   4.298
  607TIP3   OH2 1777   1.100   0.830   1.347
  607TIP3    H1 1778   1.007   0.809   1.351
  607TIP3    H2 1779   1.106   0.921   1.377
  608TIP3   OH2 1780   5.193   3.754   1.013
  608TIP3    H1 1781   5.223   3.823   0.954
  608TIP3    H2 1782   5.108   3.786   1.045
  609TIP3   OH2 1783   8.200   1.925   2.254
  609TIP3    H1 1784   8.153   1.876   2.322
  609TIP3    H2 1785   8.259   1.982   2.302
  610TIP3   OH2 1786   2.285   2.024   5.471
  610TIP3    H1 1787   2.206   2.063   5.507
  610TIP3    H2 1788   2.258   1.938   5.440
  611TIP3   OH2 1789   4.499   5.633   1.828
  611TIP3    H1 1790   4.435   5.621   1.898
  611TIP3    H2 1791   4.465   5.582   1.755
  612TIP3   OH2 1792   4.772   4.031   6.377
  612TIP3    H1 1793   4.821   4.057   6.455
  612TIP3    H2 1794   4.797   4.095   6.310
  613TIP3   OH2 1795   3.288   0.401   3.170
  613TIP3    H1 1796   3.233   0.478   3.185
  613TIP3    H2 1797   3.264   0.340   3.239
  614TIP3   OH2 1798   2.066   1.675   4.052
  614TIP3    H1 1799   2.083   1.591   4.096
  614TIP3    H2 1800   2.103   1.664   3.965
  615TIP3   OH2 1801   8.116   1.152   5.992
  615TIP3    H1 1802   8.188   1.098   5.960
  615TIP3    H2 1803   8.041   1.126   5.939
  616TIP3   OH2 1804   2.117   0.331   3.515
  616TIP3    H1 1805   2.137   0.293   3.430
  616TIP3    H2 1806   2.054   0.400   3.497
  617TIP3   OH2 1807   1.032   7.162   6.531
  617TIP3    H1 1808   1.098   7.205   6.476
  617TIP3    H2 1809   0.959   7.223   6.533
  618TIP3   OH2 1810   0.983   4.094   6.339
  618TIP3    H1 1811   0.992   4.048   6.423
  618TIP3    H2 1812   0.963   4.025   6.276
  619TIP3   OH2 1813   1.563   0.614   3.531
  619TIP3    H1 1814   1.531   0.619   3.621
  619TIP3    H2 1815   1.566   0.705   3.501
  620TIP3   OH2 1816   2.422   7.700   5.484
  620TIP3    H1 1817   2.491   7.633   5.486
  620TIP3    H2 1818   2.341   7.651   5.474
  621TIP3   OH2 1819   2.952   3.615   6.624
  621TIP3    H1 1820   3.046   3.618   6.607
  621TIP3    H2 1821   2.915   3.574   6.547
  622TIP3   OH2 1822   7.552   2.984   6.420
  622TIP3    H1 1823   7.535   2.947   6.507
  622TIP3    H2 1824   7.508   2.926   6.359
  623TIP3   OH2 1825   2.507   6.582   5.511
  623TIP3    H1 1826   2.534   6.631   5.433
  623TIP3    H2 1827   2.574   6.603   5.577
  624TIP3   OH2 1828   7.768   0.934   0.215
  624TIP3    H1 1829   7.734   0.861   0.267
  624TIP3    H2 1830   7.693   0.966   0.165
  625TIP3   OH2 1831   4.968   6.695   0.337
  625TIP3    H1 1832   5.028   6.746   0.283
  625TIP3    H2 1833   4.885   6.743   0.332
  626TIP3   OH2 1834   4.584   3.742   0.752
  626TIP3    H1 1835   4.666   3.757   0.799
  626TIP3    H2 1836   4.516   3.754   0.818
  627TIP3   OH2 1837   6.161   2.648   4.889
  627TIP3    H1 1838   6.155   2.607   4.802
  627TIP3    H2 1839   6.142   2.741   4.873
  628TIP3   OH2 1840   5.936   3.962   5.432
  628TIP3    H1 1841   5.939   3.959   5.527
  628TIP3    H2 1842   5.866   3.901   5.408
  629TIP3   OH2 1843   3.820   6.443   3.911
  629TIP3    H1 1844   3.868   6.500   3.971
  629TIP3    H2 1845   3.776   6.380   3.968
  630TIP3   OH2 1846   6.147   2.195   1.911
  630TIP3    H1 1847   6.097   2.275   1.925
  630TIP3    H2 1848   6.123   2.138   1.984
  631TIP3   OH2 1849   4.235   7.637   4.439
  631TIP3    H1 1850   4.230   7.560   4.495
  631TIP3    H2 1851   4.155   7.686   4.460
  632TIP3   OH2 1852   0.248   6.458   2.656
  632TIP3    H1 1853   0.180   6.487   2.717
  632TIP3    H2 1854   0.329   6.495   2.691
  633TIP3   OH2 1855   1.601   2.264   1.527
  633TIP3    H1 1856   1.677   2.241   1.580
  633TIP3    H2 1857   1.555   2.181   1.514
  634TIP3   OH2 1858   2.242   4.795   2.984
  634TIP3    H1 1859   2.295   4.782   2.905
  634TIP3    H2 1860   2.172   4.855   2.957
  635TIP3   OH2 1861   4.015   7.395   1.032
  635TIP3    H1 1862   4.005   7.489   1.015
  635TIP3    H2 1863   4.003   7.354   0.946
  636TIP3   OH2 1864   7.297   0.490   0.175
  636TIP3    H1 1865   7.278   0.516   0.265
  636TIP3    H2 1866   7.269   0.399   0.169
  637TIP3   OH2 1867   3.047   3.305   1.151
  637TIP3    H1 1868   3.043   3.216   1.185
  637TIP3    H2 1869   3.091   3.295   1.066
  638TIP3   OH2 1870   1.516   6.674   5.421
  638TIP3    H1 1871   1.424   6.681   5.444
  638TIP3    H2 1872   1.555   6.619   5.489
  639TIP3   OH2 1873   7.201   3.048   1.829
  639TIP3    H1 1874   7.123   3.075   1.781
  639TIP3    H2 1875   7.171   2.980   1.889
  640TIP3   OH2 1876   2.316   6.838   0.793
  640TIP3    H1 1877   2.325   6.894   0.870
  640TIP3    H2 1878   2.390   6.778   0.799
  641TIP3   OH2 1879   2.949   3.002   3.120
  641TIP3    H1 1880   2.913   3.038   3.200
  641TIP3    H2 1881   3.024   2.950   3.148
  642TIP3   OH2 1882   0.043   4.594   1.124
  642TIP3    H1 1883   0.106   4.656   1.160
  642TIP3    H2 1884   0.096   4.518   1.098
  643TIP3   OH2 1885   0.663   3.627   0.926
  643TIP3    H1 1886   0.685   3.649   0.836
  643TIP3    H2 1887   0.694   3.537   0.937
  644TIP3   OH2 1888   6.638   6.613   2.686
  644TIP3    H1 1889   6.650   6.671   2.611
  644TIP3    H2 1890   6.575   6.547   2.657
  645TIP3   OH2 1891   0.648   0.015   3.910
  645TIP3    H1 1892   0.553   0.027   3.907
  645TIP3    H2 1893   0.677   0.069   3.984
  646TIP3   OH2 1894   1.900   0.039   6.125
  646TIP3    H1 1895   1.863   0.126   6.144
  646TIP3    H2 1896   1.899  -0.006   6.209
  647TIP3   OH2 1897   7.980   0.637   3.480
  647TIP3    H1 1898   7.892   0.664   3.506
  647TIP3    H2 1899   8.022   0.612   3.563
  648TIP3   OH2 1900   7.850   3.804   5.209
  648TIP3    H1 1901   7.903   3.725   5.217
  648TIP3    H2 1902   7.871   3.855   5.288
  649TIP3   OH2 1903   4.294   2.262   2.532
  649TIP3    H1 1904   4.356   2.307   2.475
  649TIP3    H2 1905   4.349   2.211   2.592
  650TIP3   OH2 1906   3.307   1.972   6.685
  650TIP3    H1 1907   3.287   1.954   6.777
  650TIP3    H2 1908   3.402   1.966   6.680
  651TIP3   OH2 1909   5.196   2.739   6.140
  651TIP3    H1 1910   5.199   2.834   6.151
  651TIP3    H2 1911   5.170   2.726   6.049
  652TIP3   OH2 1912   3.732   6.329   5.715
  652TIP3    H1 1913   3.772   6.412   5.739
  652TIP3    H2 1914   3.779   6.264   5.767
  653TIP3   OH2 1915   8.279   3.797   5.030
  653TIP3    H1 1916   8.242   3.708   5.031
  653TIP3    H2 1917   8.360   3.788   5.080
  654TIP3   OH2 1918   4.228   2.418   6.339
  654TIP3    H1 1919   4.318   2.408   6.368
  654TIP3    H2 1920   4.191   2.330   6.342
  655TIP3   OH2 1921   7.493   1.160   2.122
  655TIP3    H1 1922   7.465   1.161   2.031
  655TIP3    H2 1923   7.589   1.164   2.118
  656TIP3   OH2 1924   8.071   3.473   0.838
  656TIP3    H1 1925   8.092   3.501   0.927
  656TIP3    H2 1926   8.007   3.403   0.850
  657TIP3   OH2 1927   4.632   0.841   2.679
  657TIP3    H1 1928   4.686   0.791   2.617
  657TIP3    H2 1929   4.677   0.830   2.763
  658TIP3   OH2 1930   5.362   6.928   2.388
  658TIP3    H1 1931   5.399   7.014   2.411
  658TIP3    H2 1932   5.294   6.948   2.324
  659TIP3   OH2 1933   3.955   4.635   6.142
  659TIP3    H1 1934   3.921   4.585   6.068
  659TIP3    H2 1935   4.026   4.581   6.177
  660TIP3   OH2 1936   3.322   1.452   6.050
  660TIP3    H1 1937   3.232   1.483   6.042
  660TIP3    H2 1938   3.314   1.356   6.045
  661TIP3   OH2 1939   4.214   2.204   0.394
  661TIP3    H1 1940   4.289   2.163   0.436
  661TIP3    H2 1941   4.228   2.298   0.405
  662TIP3   OH2 1942   2.679   1.577   0.646
  662TIP3    H1 1943   2.714   1.646   0.590
  662TIP3    H2 1944   2.678   1.499   0.590
  663TIP3   OH2 1945   1.663   1.075   0.635
  663TIP3    H1 1946   1.717   1.079   0.714
  663TIP3    H2 1947   1.689   1.152   0.584
  664TIP3   OH2 1948   5.356   5.263   4.403
  664TIP3    H1 1949   5.437   5.275   4.452
  664TIP3    H2 1950   5.298   5.215   4.463
  665TIP3   OH2 1951   4.426   0.628   1.630
  665TIP3    H1 1952   4.377   0.561   1.582
  665TIP3    H2 1953   4.369   0.650   1.705
  666TIP3   OH2 1954   5.082   1.115   3.981
  666TIP3    H1 1955   5.096   1.162   3.899
  666TIP3    H2 1956   5.142   1.041   3.977
  667TIP3   OH2 1957   2.789   0.161   4.372
  667TIP3    H1 1958   2.848   0.234   4.355
  667TIP3    H2 1959   2.727   0.162   4.299
  668TIP3   OH2 1960   2.171   0.512   5.358
  668TIP3    H1 1961   2.168   0.572   5.433
  668TIP3    H2 1962   2.083   0.475   5.354
  669TIP3   OH2 1963   7.964   5.187   0.445
  669TIP3    H1 1964   7.981   5.268   0.397
  669TIP3    H2 1965   7.922   5.216   0.526
  670TIP3   OH2 1966   0.188   6.426   3.764
  670TIP3    H1 1967   0.130   6.425   3.840
  670TIP3    H2 1968   0.254   6.359   3.783
  671TIP3   OH2 1969   1.140   3.846   2.826
  671TIP3    H1 1970   1.167   3.761   2.862
  671TIP3    H2 1971   1.223   3.889   2.804
  672TIP3   OH2 1972   2.632   2.036   6.668
  672TIP3    H1 1973   2.643   2.011   6.760
  672TIP3    H2 1974   2.644   2.131   6.668
  673TIP3   OH2 1975   1.582   0.171   3.296
  673TIP3    H1 1976   1.526   0.241   3.262
  673TIP3    H2 1977   1.540   0.091   3.264
  674TIP3   OH2 1978   2.494   3.291   2.264
  674TIP3    H1 1979   2.434   3.279   2.190
  674TIP3    H2 1980   2.535   3.205   2.276
  675TIP3   OH2 1981   6.695   1.048   2.412
  675TIP3    H1 1982   6.664   1.045   2.503
  675TIP3    H2 1983   6.717   0.958   2.391
  676TIP3   OH2 1984   8.101   4.855   6.019
  676TIP3    H1 1985   8.107   4.941   5.977
  676TIP3    H2 1986   8.192   4.829   6.033
  677TIP3   OH2 1987   1.480   6.298   4.607
  677TIP3    H1 1988   1.482   6.365   4.675
  677TIP3    H2 1989   1.539   6.330   4.539
  678TIP3   OH2 1990   4.717   3.442   2.050
  678TIP3    H1 1991   4.780   3.486   1.992
  678TIP3    H2 1992   4.742   3.469   2.138
  679TIP3   OH2 1993   5.402   2.986   6.427
  679TIP3    H1 1994   5.431   2.917   6.486
  679TIP3    H2 1995   5.480   3.038   6.410
  680TIP3   OH2 1996   6.329   2.138   6.133
  680TIP3    H1 1997   6.341   2.074   6.063
  680TIP3    H2 1998   6.388   2.210   6.111
  681TIP3   OH2 1999   6.175   2.555   6.627
  681TIP3    H1 2000   6.113   2.496   6.586
  681TIP3    H2 2001   6.160   2.545   6.721
  682TIP3   OH2 2002   3.571   6.568   6.020
  682TIP3    H1 2003   3.550   6.588   5.928
  682TIP3    H2 2004   3.639   6.501   6.015
  683TIP3   OH2 2005   0.877   3.870   3.062
  683TIP3    H1 2006   0.813   3.867   2.991
  683TIP3    H2 2007   0.900   3.778   3.078
  684TIP3   OH2 2008   4.067   7.207   6.340
  684TIP3    H1 2009   4.059   7.111   6.341
  684TIP3    H2 2010   4.037   7.233   6.254
  685TIP3   OH2 2011   4.852   6.012   6.737
  685TIP3    H1 2012   4.926   6.073   6.736
  685TIP3    H2 2013   4.831   6.000   6.829
  686TIP3   OH2 2014   5.362   5.951   4.004
  686TIP3    H1 2015   5.318   5.873   4.038
  686TIP3    H2 2016   5.421   5.978   4.075
  687TIP3   OH2 2017   6.250   5.107   1.421
  687TIP3    H1 2018   6.315   5.166   1.459
  687TIP3    H2 2019   6.244   5.132   1.329
  688TIP3   OH2 2020   2.452   1.483   3.876
  688TIP3    H1 2021   2.359   1.479   3.854
  688TIP3    H2 2022   2.497   1.459   3.794
  689TIP3   OH2 2023   1.197   0.768   2.487
  689TIP3    H1 2024   1.146   0.769   2.406
  689TIP3    H2 2025   1.238   0.682   2.489
  690TIP3   OH2 2026   4.092   1.265   0.112
  690TIP3    H1 2027   4.052   1.179   0.128
  690TIP3    H2 2028   4.071   1.316   0.191
  691TIP3   OH2 2029   6.583   5.720   2.553
  691TIP3    H1 2030   6.568   5.627   2.541
  691TIP3    H2 2031   6.678   5.730   2.553
  692TIP3   OH2 2032   0.271   1.205   2.356
  692TIP3    H1 2033   0.356   1.175   2.323
  692TIP3    H2 2034   0.250   1.282   2.304
  693TIP3   OH2 2035   7.164   4.754   2.832
  693TIP3    H1 2036   7.089   4.806   2.861
  693TIP3    H2 2037   7.154   4.750   2.736
  694TIP3   OH2 2038   2.708   1.044   6.661
  694TIP3    H1 2039   2.650   0.973   6.691
  694TIP3    H2 2040   2.785   1.037   6.718
  695TIP3   OH2 2041   1.549   7.120   0.071
  695TIP3    H1 2042   1.567   7.197   0.125
  695TIP3    H2 2043   1.455   7.123   0.055
  696TIP3   OH2 2044   1.893   5.621   2.692
  696TIP3    H1 2045   1.929   5.630   2.781
  696TIP3    H2 2046   1.888   5.526   2.678
  697TIP3   OH2 2047   1.752   6.489   4.809
  697TIP3    H1 2048   1.773   6.432   4.735
  697TIP3    H2 2049   1.774   6.436   4.886
  698TIP3   OH2 2050   7.165   2.370   6.575
  698TIP3    H1 2051   7.141   2.301   6.513
  698TIP3    H2 2052   7.246   2.340   6.614
  699TIP3   OH2 2053   0.648   6.968   6.469
  699TIP3    H1 2054   0.607   6.897   6.420
  699TIP3    H2 2055   0.741   6.959   6.450
  700TIP3   OH2 2056   3.893   0.588   0.273
  700TIP3    H1 2057   3.823   0.530   0.304
  700TIP3    H2 2058   3.943   0.609   0.352
  701TIP3   OH2 2059   5.769   4.671   2.385
  701TIP3    H1 2060   5.792   4.588   2.428
  701TIP3    H2 2061   5.848   4.696   2.337
  702TIP3   OH2 2062   3.434   1.852   4.788
  702TIP3    H1 2063   3.367   1.857   4.856
  702TIP3    H2 2064   3.448   1.758   4.775
  703TIP3   OH2 2065   2.486   7.775   6.097
  703TIP3    H1 2066   2.494   7.689   6.138
  703TIP3    H2 2067   2.467   7.834   6.170
  704TIP3   OH2 2068   6.433   0.424   5.756
  704TIP3    H1 2069   6.483   0.502   5.782
  704TIP3    H2 2070   6.384   0.452   5.679
  705TIP3   OH2 2071   6.546   4.922   2.191
  705TIP3    H1 2072   6.559   4.894   2.100
  705TIP3    H2 2073   6.593   4.856   2.242
  706TIP3   OH2 2074   2.275   4.417   6.005
  706TIP3    H1 2075   2.343   4.381   5.948
  706TIP3    H2 2076   2.316   4.493   6.046
  707TIP3   OH2 2077   0.413   5.916   4.061
  707TIP3    H1 2078   0.333   5.942   4.016
  707TIP3    H2 2079   0.387   5.907   4.153
  708TIP3   OH2 2080   6.325   4.111   3.514
  708TIP3    H1 2081   6.345   4.044   3.579
  708TIP3    H2 2082   6.312   4.062   3.432
  709TIP3   OH2 2083   2.206   1.538   5.506
  709TIP3    H1 2084   2.117   1.554   5.537
  709TIP3    H2 2085   2.227   1.449   5.536
  710TIP3   OH2 2086   5.048   3.383   2.111
  710TIP3    H1 2087   5.033   3.400   2.018
  710TIP3    H2 2088   4.988   3.444   2.156
  711TIP3   OH2 2089   2.629   5.655   0.983
  711TIP3    H1 2090   2.556   5.629   0.927
  711TIP3    H2 2091   2.590   5.709   1.051
  712TIP3   OH2 2092   7.251   4.448   2.591
  712TIP3    H1 2093   7.164   4.470   2.558
  712TIP3    H2 2094   7.236   4.416   2.679
  713TIP3   OH2 2095   4.369   1.623   2.400
  713TIP3    H1 2096   4.291   1.659   2.443
  713TIP3    H2 2097   4.434   1.694   2.406
  714TIP3   OH2 2098   6.197   4.118   6.168
  714TIP3    H1 2099   6.246   4.134   6.087
  714TIP3    H2 2100   6.263   4.116   6.237
  715TIP3   OH2 2101   5.883   6.611   2.859
  715TIP3    H1 2102   5.966   6.643   2.896
  715TIP3    H2 2103   5.851   6.547   2.923
  716TIP3   OH2 2104   1.485   5.176   5.510
  716TIP3    H1 2105   1.398   5.146   5.483
  716TIP3    H2 2106   1.472   5.269   5.532
  717TIP3   OH2 2107   3.524   1.405   3.740
  717TIP3    H1 2108   3.465   1.330   3.733
  717TIP3    H2 2109   3.588   1.379   3.806
  718TIP3   OH2 2110   7.344   3.308   1.411
  718TIP3    H1 2111   7.431   3.335   1.442
  718TIP3    H2 2112   7.303   3.389   1.382
  719TIP3   OH2 2113   6.409   3.494   2.568
  719TIP3    H1 2114   6.391   3.526   2.479
  719TIP3    H2 2115   6.466   3.418   2.555
  720TIP3   OH2 2116   8.033   3.934   1.863
  720TIP3    H1 2117   7.957   3.966   1.815
  720TIP3    H2 2118   7.999   3.863   1.917
  721TIP3   OH2 2119   3.236   2.177   1.549
  721TIP3    H1 2120   3.312   2.138   1.505
  721TIP3    H2 2121   3.165   2.165   1.486
  722TIP3   OH2 2122   7.046   5.046   4.088
  722TIP3    H1 2123   7.066   5.139   4.091
  722TIP3    H2 2124   6.971   5.035   4.146
  723TIP3   OH2 2125   5.864   3.642   2.064
  723TIP3    H1 2126   5.877   3.661   2.157
  723TIP3    H2 2127   5.935   3.690   2.020
  724TIP3   OH2 2128   4.630   4.177   3.730
  724TIP3    H1 2129   4.705   4.119   3.747
  724TIP3    H2 2130   4.563   4.120   3.693
  725TIP3   OH2 2131   5.969   6.068   4.849
  725TIP3    H1 2132   6.052   6.095   4.887
  725TIP3    H2 2133   5.924   6.021   4.920
  726TIP3   OH2 2134   0.906   1.683   5.260
  726TIP3    H1 2135   0.948   1.664   5.344
  726TIP3    H2 2136   0.848   1.608   5.245
  727TIP3   OH2 2137   6.659   4.398   1.690
  727TIP3    H1 2138   6.664   4.424   1.598
  727TIP3    H2 2139   6.565   4.403   1.711
  728TIP3   OH2 2140   3.638   5.296   1.865
  728TIP3    H1 2141   3.679   5.212   1.885
  728TIP3    H2 2142   3.705   5.361   1.889
  729TIP3   OH2 2143   8.298   6.153   6.024
  729TIP3    H1 2144   8.302   6.096   5.948
  729TIP3    H2 2145   8.204   6.161   6.043
  730TIP3   OH2 2146   1.668   5.458   6.320
  730TIP3    H1 2147   1.746   5.510   6.300
  730TIP3    H2 2148   1.689   5.414   6.403
  731TIP3   OH2 2149   1.169   4.068   5.723
  731TIP3    H1 2150   1.214   3.986   5.703
  731TIP3    H2 2151   1.107   4.045   5.792
  732TIP3   OH2 2152   4.431   5.887   0.431
  732TIP3    H1 2153   4.428   5.832   0.510
  732TIP3    H2 2154   4.343   5.924   0.425
  733TIP3   OH2 2155   0.538   1.739   0.145
  733TIP3    H1 2156   0.541   1.833   0.127
  733TIP3    H2 2157   0.584   1.729   0.229
  734TIP3   OH2 2158   5.933   0.084   0.604
  734TIP3    H1 2159   5.940   0.156   0.541
  734TIP3    H2 2160   5.842   0.056   0.599
  735TIP3   OH2 2161   5.506   7.519   3.010
  735TIP3    H1 2162   5.576   7.554   3.066
  735TIP3    H2 2163   5.552   7.462   2.948
  736TIP3   OH2 2164   4.589   2.356   0.193
  736TIP3    H1 2165   4.601   2.300   0.116
  736TIP3    H2 2166   4.631   2.438   0.170
  737TIP3   OH2 2167   1.653   5.049   1.813
  737TIP3    H1 2168   1.682   4.997   1.738
  737TIP3    H2 2169   1.638   4.984   1.882
  738TIP3   OH2 2170   2.668   2.848   2.801
  738TIP3    H1 2171   2.682   2.858   2.896
  738TIP3    H2 2172   2.720   2.771   2.778
  739TIP3   OH2 2173   6.696   0.380   2.303
  739TIP3    H1 2174   6.671   0.335   2.384
  739TIP3    H2 2175   6.789   0.362   2.294
  740TIP3   OH2 2176   1.336   2.835   5.203
  740TIP3    H1 2177   1.389   2.847   5.124
  740TIP3    H2 2178   1.383   2.771   5.255
  741TIP3   OH2 2179   4.544   0.516   2.964
  741TIP3    H1 2180   4.541   0.428   3.002
  741TIP3    H2 2181   4.539   0.503   2.870
  742TIP3   OH2 2182   4.849   3.805   4.830
  742TIP3    H1 2183   4.867   3.888   4.873
  742TIP3    H2 2184   4.834   3.743   4.902
  743TIP3   OH2 2185   6.893   3.915   2.889
  743TIP3    H1 2186   6.826   3.921   2.956
  743TIP3    H2 2187   6.927   3.826   2.895
  744TIP3   OH2 2188   5.335   6.311   4.413
  744TIP3    H1 2189   5.302   6.331   4.500
  744TIP3    H2 2190   5.321   6.216   4.403
  745TIP3   OH2 2191   4.798   0.682   1.383
  745TIP3    H1 2192   4.749   0.691   1.465
  745TIP3    H2 2193   4.779   0.593   1.353
  746TIP3   OH2 2194   4.369   0.783   5.999
  746TIP3    H1 2195   4.351   0.700   5.955
  746TIP3    H2 2196   4.462   0.799   5.983
  747TIP3   OH2 2197   5.331   6.318   5.960
  747TIP3    H1 2198   5.382   6.375   6.017
  747TIP3    H2 2199   5.357   6.343   5.871
  748TIP3   OH2 2200   6.029   6.556   5.697
  748TIP3    H1 2201   5.986   6.478   5.733
  748TIP3    H2 2202   5.972   6.629   5.721
  749TIP3   OH2 2203   2.457   2.398   1.743
  749TIP3    H1 2204   2.500   2.377   1.826
  749TIP3    H2 2205   2.433   2.313   1.706
  750TIP3   OH2 2206   0.517   5.704   1.040
  750TIP3    H1 2207   0.517   5.680   0.947
  750TIP3    H2 2208   0.532   5.798   1.040
  751TIP3   OH2 2209   4.630   4.990   0.759
  751TIP3    H1 2210   4.717   4.970   0.794
  751TIP3    H2 2211   4.571   4.931   0.805
  752TIP3   OH2 2212   1.419   6.617   5.893
  752TIP3    H1 2213   1.382   6.530   5.910
  752TIP3    H2 2214   1.466   6.606   5.810
  753TIP3   OH2 2215   8.178   5.674   5.562
  753TIP3    H1 2216   8.169   5.753   5.510
  753TIP3    H2 2217   8.158   5.701   5.652
  754TIP3   OH2 2218   0.649   1.793   2.960
  754TIP3    H1 2219   0.639   1.885   2.938
  754TIP3    H2 2220   0.561   1.756   2.947
  755TIP3   OH2 2221   0.102   2.407   0.551
  755TIP3    H1 2222   0.107   2.328   0.496
  755TIP3    H2 2223   0.062   2.377   0.633
  756TIP3   OH2 2224   5.853   2.377   5.782
  756TIP3    H1 2225   5.801   2.354   5.705
  756TIP3    H2 2226   5.824   2.465   5.805
  757TIP3   OH2 2227   8.152   4.363   1.004
  757TIP3    H1 2228   8.149   4.340   0.911
  757TIP3    H2 2229   8.197   4.447   1.006
  758TIP3   OH2 2230   1.360   4.957   2.242
  758TIP3    H1 2231   1.396   4.925   2.325
  758TIP3    H2 2232   1.339   4.877   2.192
  759TIP3   OH2 2233   4.278   0.998   3.272
  759TIP3    H1 2234   4.268   0.944   3.194
  759TIP3    H2 2235   4.371   1.019   3.276
  760TIP3   OH2 2236   6.576   0.392   0.821
  760TIP3    H1 2237   6.554   0.359   0.734
  760TIP3    H2 2238   6.582   0.314   0.876
  761TIP3   OH2 2239   6.328   5.409   5.586
  761TIP3    H1 2240   6.274   5.331   5.599
  761TIP3    H2 2241   6.408   5.376   5.546
  762TIP3   OH2 2242   4.011   0.723   1.769
  762TIP3    H1 2243   4.038   0.808   1.734
  762TIP3    H2 2244   3.982   0.741   1.858
  763TIP3   OH2 2245   3.973   0.118   3.740
  763TIP3    H1 2246   4.022   0.147   3.816
  763TIP3    H2 2247   3.882   0.141   3.760
  764TIP3   OH2 2248   2.161   3.443   1.952
  764TIP3    H1 2249   2.192   3.534   1.955
  764TIP3    H2 2250   2.066   3.451   1.948
  765TIP3   OH2 2251   7.400   1.378   3.138
  765TIP3    H1 2252   7.331   1.361   3.073
  765TIP3    H2 2253   7.430   1.467   3.117
  766TIP3   OH2 2254   6.820   0.649   6.729
  766TIP3    H1 2255   6.758   0.720   6.711
  766TIP3    H2 2256   6.797   0.580   6.667
  767TIP3   OH2 2257   1.291   5.515   6.643
  767TIP3    H1 2258   1.268   5.454   6.713
  767TIP3    H2 2259   1.282   5.463   6.563
  768TIP3   OH2 2260   0.601   7.378   3.390
  768TIP3    H1 2261   0.678   7.323   3.378
  768TIP3    H2 2262   0.566   7.389   3.302
  769TIP3   OH2 2263   5.975   2.860   4.908
  769TIP3    H1 2264   5.951   2.948   4.881
  769TIP3    H2 2265   6.029   2.872   4.986
  770TIP3   OH2 2266   5.861   0.209   4.582
  770TIP3    H1 2267   5.885   0.245   4.668
  770TIP3    H2 2268   5.880   0.116   4.589
  771TIP3   OH2 2269   6.757   7.815   4.701
  771TIP3    H1 2270   6.694   7.769   4.757
  771TIP3    H2 2271   6.728   7.906   4.703
  772TIP3   OH2 2272   4.681   0.508   2.314
  772TIP3    H1 2273   4.657   0.478   2.226
  772TIP3    H2 2274   4.598   0.528   2.356
  773TIP3   OH2 2275   5.673   7.776   0.797
  773TIP3    H1 2276   5.725   7.851   0.825
  773TIP3    H2 2277   5.636   7.741   0.878
  774TIP3   OH2 2278   1.302   1.933   1.168
  774TIP3    H1 2279   1.374   1.885   1.127
  774TIP3    H2 2280   1.290   2.011   1.112
  775TIP3   OH2 2281   6.503   4.007   4.632
  775TIP3    H1 2282   6.421   4.046   4.603
  775TIP3    H2 2283   6.477   3.923   4.670
  776TIP3   OH2 2284   4.656   7.058   6.148
  776TIP3    H1 2285   4.636   7.140   6.102
  776TIP3    H2 2286   4.591   7.053   6.218
  777TIP3   OH2 2287   0.323   1.580   4.227
  777TIP3    H1 2288   0.319   1.606   4.319
  777TIP3    H2 2289   0.392   1.514   4.224
  778TIP3   OH2 2290   4.081   0.044   2.575
  778TIP3    H1 2291   3.993   0.021   2.606
  778TIP3    H2 2292   4.112   0.110   2.637
  779TIP3   OH2 2293   4.889   5.325   2.240
  779TIP3    H1 2294   4.956   5.272   2.283
  779TIP3    H2 2295   4.924   5.415   2.243
  780TIP3   OH2 2296   8.295   2.528   2.699
  780TIP3    H1 2297   8.217   2.488   2.737
  780TIP3    H2 2298   8.291   2.620   2.726
  781TIP3   OH2 2299   7.148   2.486   1.372
  781TIP3    H1 2300   7.129   2.481   1.466
  781TIP3    H2 2301   7.226   2.431   1.361
  782TIP3   OH2 2302   7.106   2.902   1.575
  782TIP3    H1 2303   7.068   2.846   1.507
  782TIP3    H2 2304   7.198   2.875   1.579
  783TIP3   OH2 2305   7.012   7.634   1.604
  783TIP3    H1 2306   7.044   7.662   1.518
  783TIP3    H2 2307   6.919   7.617   1.591
  784TIP3   OH2 2308   8.048   7.288   6.056
  784TIP3    H1 2309   8.120   7.310   5.998
  784TIP3    H2 2310   8.066   7.336   6.137
  785TIP3   OH2 2311   6.064   2.023   4.535
  785TIP3    H1 2312   6.018   1.971   4.469
  785TIP3    H2 2313   6.156   2.018   4.509
  786TIP3   OH2 2314   1.103   4.953   0.302
  786TIP3    H1 2315   1.127   4.908   0.383
  786TIP3    H2 2316   1.173   5.018   0.289
  787TIP3   OH2 2317   3.362   3.623   5.137
  787TIP3    H1 2318   3.309   3.546   5.156
  787TIP3    H2 2319   3.446   3.605   5.178
  788TIP3   OH2 2320   8.068   6.089   3.389
  788TIP3    H1 2321   8.110   6.097   3.303
  788TIP3    H2 2322   8.039   5.997   3.392
  789TIP3   OH2 2323   2.387   1.023   5.207
  789TIP3    H1 2324   2.303   0.987   5.236
  789TIP3    H2 2325   2.449   0.995   5.275
  790TIP3   OH2 2326   7.830   2.367   1.820
  790TIP3    H1 2327   7.882   2.287   1.817
  790TIP3    H2 2328   7.893   2.437   1.806
  791TIP3   OH2 2329   2.918   1.703   2.631
  791TIP3    H1 2330   2.946   1.649   2.557
  791TIP3    H2 2331   2.945   1.792   2.607
  792TIP3   OH2 2332   1.849   7.758   3.790
  792TIP3    H1 2333   1.791   7.685   3.770
  792TIP3    H2 2334   1.845   7.815   3.713
  793TIP3   OH2 2335   0.878   3.180   3.405
  793TIP3    H1 2336   0.817   3.130   3.352
  793TIP3    H2 2337   0.838   3.267   3.412
  794TIP3   OH2 2338   0.220   4.665   1.979
  794TIP3    H1 2339   0.218   4.572   2.001
  794TIP3    H2 2340   0.169   4.707   2.048
  795TIP3   OH2 2341   6.262   3.022   4.252
  795TIP3    H1 2342   6.283   3.090   4.315
  795TIP3    H2 2343   6.341   3.012   4.200
  796TIP3   OH2 2344   3.046   6.534   5.369
  796TIP3    H1 2345   3.073   6.453   5.412
  796TIP3    H2 2346   3.012   6.506   5.284
  797TIP3   OH2 2347   6.985   6.462   5.632
  797TIP3    H1 2348   6.902   6.497   5.601
  797TIP3    H2 2349   7.044   6.538   5.633
  798TIP3   OH2 2350   4.999   5.753   5.907
  798TIP3    H1 2351   4.989   5.764   5.812
  798TIP3    H2 2352   4.917   5.786   5.943
  799TIP3   OH2 2353   1.650   3.509   0.306
  799TIP3    H1 2354   1.623   3.582   0.363
  799TIP3    H2 2355   1.739   3.489   0.334
  800TIP3   OH2 2356   6.004   3.276   4.612
  800TIP3    H1 2357   5.968   3.274   4.700
  800TIP3    H2 2358   6.015   3.184   4.588
  801TIP3   OH2 2359   4.327   5.793   1.580
  801TIP3    H1 2360   4.287   5.825   1.661
  801TIP3    H2 2361   4.359   5.872   1.536
  802TIP3   OH2 2362   3.498   0.766   1.523
  802TIP3    H1 2363   3.572   0.785   1.582
  802TIP3    H2 2364   3.435   0.721   1.579
  803TIP3   OH2 2365   3.554   3.684   6.602
  803TIP3    H1 2366   3.604   3.612   6.641
  803TIP3    H2 2367   3.620   3.740   6.561
  804TIP3   OH2 2368   2.163   3.043   3.614
  804TIP3    H1 2369   2.178   3.105   3.686
  804TIP3    H2 2370   2.170   2.957   3.654
  805TIP3   OH2 2371   5.416   5.113   5.461
  805TIP3    H1 2372   5.399   5.136   5.553
  805TIP3    H2 2373   5.343   5.153   5.413
  806TIP3   OH2 2374   7.473   5.501   2.182
  806TIP3    H1 2375   7.474   5.596   2.181
  806TIP3    H2 2376   7.380   5.477   2.183
  807TIP3   OH2 2377   7.750   7.116   3.457
  807TIP3    H1 2378   7.673   7.124   3.514
  807TIP3    H2 2379   7.764   7.022   3.449
  808TIP3   OH2 2380   0.502   0.445   5.046
  808TIP3    H1 2381   0.444   0.489   5.109
  808TIP3    H2 2382   0.443   0.390   4.994
  809TIP3   OH2 2383   2.309   6.333   2.248
  809TIP3    H1 2384   2.297   6.247   2.208
  809TIP3    H2 2385   2.397   6.359   2.221
  810TIP3   OH2 2386   6.711   4.595   2.993
  810TIP3    H1 2387   6.647   4.656   2.958
  810TIP3    H2 2388   6.660   4.518   3.018
  811TIP3   OH2 2389   0.618   1.097   1.342
  811TIP3    H1 2390   0.565   1.120   1.266
  811TIP3    H2 2391   0.641   1.005   1.328
  812TIP3   OH2 2392   4.690   1.618   3.745
  812TIP3    H1 2393   4.604   1.579   3.759
  812TIP3    H2 2394   4.728   1.569   3.672
  813TIP3   OH2 2395   6.420   0.602   0.716
  813TIP3    H1 2396   6.365   0.631   0.789
  813TIP3    H2 2397   6.466   0.525   0.750
  814TIP3   OH2 2398   6.541   3.546   6.498
  814TIP3    H1 2399   6.636   3.547   6.507
  814TIP3    H2 2400   6.525   3.501   6.415
  815TIP3   OH2 2401   7.049   7.310   4.923
  815TIP3    H1 2402   7.028   7.258   5.001
  815TIP3    H2 2403   7.071   7.245   4.856
  816TIP3   OH2 2404   5.247   5.645   4.536
  816TIP3    H1 2405   5.292   5.705   4.476
  816TIP3    H2 2406   5.317   5.591   4.572
  817TIP3   OH2 2407   4.564   1.471   5.393
  817TIP3    H1 2408   4.554   1.491   5.486
  817TIP3    H2 2409   4.526   1.547   5.349
  818TIP3   OH2 2410   7.340   0.105   5.079
  818TIP3    H1 2411   7.327   0.175   5.142
  818TIP3    H2 2412   7.434   0.109   5.058
  819TIP3   OH2 2413   8.252   2.948   5.157
  819TIP3    H1 2414   8.180   2.991   5.202
  819TIP3    H2 2415   8.277   3.010   5.088
  820TIP3   OH2 2416   7.843   0.593   1.289
  820TIP3    H1 2417   7.869   0.670   1.239
  820TIP3    H2 2418   7.925   0.548   1.309
  821TIP3   OH2 2419   1.340   6.979   5.505
  821TIP3    H1 2420   1.348   7.073   5.521
  821TIP3    H2 2421   1.350   6.970   5.410
  822TIP3   OH2 2422   5.113   6.666   2.271
  822TIP3    H1 2423   5.143   6.578   2.247
  822TIP3    H2 2424   5.108   6.663   2.367
  823TIP3   OH2 2425   5.744   5.897   5.345
  823TIP3    H1 2426   5.700   5.941   5.417
  823TIP3    H2 2427   5.776   5.815   5.383
  824TIP3   OH2 2428   0.695   4.193   4.980
  824TIP3    H1 2429   0.647   4.163   4.903
  824TIP3    H2 2430   0.784   4.207   4.948
  825TIP3   OH2 2431   3.355   5.601   4.790
  825TIP3    H1 2432   3.318   5.515   4.770
  825TIP3    H2 2433   3.447   5.594   4.763
  826TIP3   OH2 2434   1.666   2.040   2.606
  826TIP3    H1 2435   1.630   2.031   2.694
  826TIP3    H2 2436   1.595   2.081   2.555
  827TIP3   OH2 2437   1.136   0.906   6.529
  827TIP3    H1 2438   1.083   0.907   6.609
  827TIP3    H2 2439   1.082   0.950   6.464
  828TIP3   OH2 2440   4.968   6.670   4.154
  828TIP3    H1 2441   4.990   6.747   4.206
  828TIP3    H2 2442   5.000   6.691   4.066
  829TIP3   OH2 2443   0.080   4.111   2.186
  829TIP3    H1 2444   0.103   4.041   2.247
  829TIP3    H2 2445   0.033   4.067   2.115
  830TIP3   OH2 2446   5.033   2.181   5.485
  830TIP3    H1 2447   5.127   2.161   5.496
  830TIP3    H2 2448   5.001   2.192   5.575
  831TIP3   OH2 2449   1.039   7.379   0.366
  831TIP3    H1 2450   1.040   7.287   0.393
  831TIP3    H2 2451   0.946   7.401   0.362
  832TIP3   OH2 2452   6.891   3.114   0.608
  832TIP3    H1 2453   6.880   3.183   0.543
  832TIP3    H2 2454   6.886   3.032   0.558
  833TIP3   OH2 2455   1.531   2.456   6.395
  833TIP3    H1 2456   1.564   2.541   6.366
  833TIP3    H2 2457   1.555   2.452   6.488
  834TIP3   OH2 2458   2.129   3.645   0.416
  834TIP3    H1 2459   2.173   3.570   0.374
  834TIP3    H2 2460   2.198   3.711   0.424
  835TIP3   OH2 2461   6.895   6.976   1.418
  835TIP3    H1 2462   6.821   6.927   1.454
  835TIP3    H2 2463   6.972   6.922   1.436
  836TIP3   OH2 2464   3.378   6.547   3.340
  836TIP3    H1 2465   3.414   6.522   3.425
  836TIP3    H2 2466   3.397   6.472   3.283
  837TIP3   OH2 2467   6.396   2.667   4.598
  837TIP3    H1 2468   6.414   2.666   4.692
  837TIP3    H2 2469   6.447   2.740   4.564
  838TIP3   OH2 2470   7.652   3.740   1.999
  838TIP3    H1 2471   7.602   3.809   2.043
  838TIP3    H2 2472   7.585   3.683   1.960
  839TIP3   OH2 2473   3.880   6.301   6.358
  839TIP3    H1 2474   3.921   6.215   6.373
  839TIP3    H2 2475   3.936   6.342   6.292
  840TIP3   OH2 2476   3.483   1.614   1.030
  840TIP3    H1 2477   3.391   1.588   1.028
  840TIP3    H2 2478   3.522   1.558   1.098
  841TIP3   OH2 2479   2.847   0.025   3.395
  841TIP3    H1 2480   2.788  -0.049   3.412
  841TIP3    H2 2481   2.825   0.053   3.306
  842TIP3   OH2 2482   2.605   7.524   4.137
  842TIP3    H1 2483   2.678   7.478   4.178
  842TIP3    H2 2484   2.527   7.492   4.184
  843TIP3   OH2 2485   6.239   0.816   5.595
  843TIP3    H1 2486   6.262   0.858   5.677
  843TIP3    H2 2487   6.186   0.881   5.548
  844TIP3   OH2 2488   0.019   5.370   2.960
  844TIP3    H1 2489   0.008   5.345   2.868
  844TIP3    H2 2490   0.090   5.314   2.991
  845TIP3   OH2 2491   0.887   1.885   4.192
  845TIP3    H1 2492   0.833   1.918   4.120
  845TIP3    H2 2493   0.977   1.904   4.165
  846TIP3   OH2 2494   7.710   3.161   2.069
  846TIP3    H1 2495   7.723   3.254   2.086
  846TIP3    H2 2496   7.711   3.154   1.973
  847TIP3   OH2 2497   8.169   7.296   3.001
  847TIP3    H1 2498   8.126   7.211   2.997
  847TIP3    H2 2499   8.159   7.333   2.913
  848TIP3   OH2 2500   2.693   2.877   0.090
  848TIP3    H1 2501   2.707   2.783   0.082
  848TIP3    H2 2502   2.775   2.916   0.059
  849TIP3   OH2 2503   4.874   7.345   3.439
  849TIP3    H1 2504   4.790   7.373   3.402
  849TIP3    H2 2505   4.882   7.253   3.414
  850TIP3   OH2 2506   2.086   4.853   1.713
  850TIP3    H1 2507   2.047   4.906   1.643
  850TIP3    H2 2508   2.127   4.780   1.666
  851TIP3   OH2 2509   7.654   2.136   0.741
  851TIP3    H1 2510   7.580   2.143   0.801
  851TIP3    H2 2511   7.623   2.080   0.670
  852TIP3   OH2 2512   7.571   6.774   6.763
  852TIP3    H1 2513   7.502   6.826   6.803
  852TIP3    H2 2514   7.539   6.684   6.768
  853TIP3   OH2 2515   4.253   2.730   3.275
  853TIP3    H1 2516   4.290   2.780   3.203
  853TIP3    H2 2517   4.293   2.644   3.268
  854TIP3   OH2 2518   7.966   0.264   4.190
  854TIP3    H1 2519   8.001   0.353   4.200
  854TIP3    H2 2520   8.016   0.226   4.118
  855TIP3   OH2 2521   0.142   2.946   4.555
  855TIP3    H1 2522   0.112   2.973   4.468
  855TIP3    H2 2523   0.218   3.001   4.571
  856TIP3   OH2 2524   1.422   2.997   1.842
  856TIP3    H1 2525   1.506   3.027   1.877
  856TIP3    H2 2526   1.423   2.903   1.855
  857TIP3   OH2 2527   3.019   6.653   3.154
  857TIP3    H1 2528   3.009   6.558   3.151
  857TIP3    H2 2529   2.984   6.678   3.240
  858TIP3   OH2 2530   8.257   4.764   5.183
  858TIP3    H1 2531   8.195   4.704   5.142
  858TIP3    H2 2532   8.276   4.829   5.116
  859TIP3   OH2 2533   5.833   3.883   0.217
  859TIP3    H1 2534   5.745   3.874   0.180
  859TIP3    H2 2535   5.863   3.968   0.185
  860TIP3   OH2 2536   3.617   1.836   3.492
  860TIP3    H1 2537   3.596   1.775   3.563
  860TIP3    H2 2538   3.614   1.783   3.413
  861TIP3   OH2 2539   4.858   5.036   6.525
  861TIP3    H1 2540   4.886   5.080   6.445
  861TIP3    H2 2541   4.763   5.041   6.523
  862TIP3   OH2 2542   0.018   0.011   4.071
  862TIP3    H1 2543   0.093   0.055   4.029
  862TIP3    H2 2544   0.048  -0.006   4.160
  863TIP3   OH2 2545   8.241   2.456   0.932
  863TIP3    H1 2546   8.301   2.395   0.890
  863TIP3    H2 2547   8.163   2.456   0.876
  864TIP3   OH2 2548   3.734   0.339   3.229
  864TIP3    H1 2549   3.747   0.433   3.242
  864TIP3    H2 2550   3.726   0.329   3.134
  865TIP3   OH2 2551   8.193   2.182   1.610
  865TIP3    H1 2552   8.286   2.181   1.589
  865TIP3    H2 2553   8.152   2.133   1.539
  866TIP3   OH2 2554   1.353   1.203   3.897
  866TIP3    H1 2555   1.383   1.289   3.926
  866TIP3    H2 2556   1.298   1.171   3.968
  867TIP3   OH2 2557   4.754   6.703   4.953
  867TIP3    H1 2558   4.738   6.710   4.859
  867TIP3    H2 2559   4.831   6.646   4.960
  868TIP3   OH2 2560   7.018   4.380   4.419
  868TIP3    H1 2561   7.054   4.430   4.492
  868TIP3    H2 2562   7.085   4.315   4.399
  869TIP3   OH2 2563  -0.001   2.114   2.668
  869TIP3    H1 2564   0.038   2.054   2.731
  869TIP3    H2 2565   0.034   2.087   2.583
  870TIP3   OH2 2566   3.561   0.840   4.052
  870TIP3    H1 2567   3.517   0.879   4.128
  870TIP3    H2 2568   3.559   0.908   3.985
  871TIP3   OH2 2569   4.279   0.258   1.882
  871TIP3    H1 2570   4.205   0.239   1.940
  871TIP3    H2 2571   4.259   0.345   1.846
  872TIP3   OH2 2572   4.969   1.632   4.995
  872TIP3    H1 2573   4.898   1.690   4.968
  872TIP3    H2 2574   5.016   1.613   4.914
  873TIP3   OH2 2575   2.545   4.096   1.131
  873TIP3    H1 2576   2.517   4.094   1.039
  873TIP3    H2 2577   2.518   4.010   1.165
  874TIP3   OH2 2578   0.570   6.923   2.169
  874TIP3    H1 2579   0.551   6.996   2.229
  874TIP3    H2 2580   0.508   6.935   2.098
  875TIP3   OH2 2581   4.017   6.471   1.661
  875TIP3    H1 2582   3.925   6.450   1.645
  875TIP3    H2 2583   4.015   6.548   1.717
  876TIP3   OH2 2584   4.802   4.321   0.131
  876TIP3    H1 2585   4.845   4.384   0.188
  876TIP3    H2 2586   4.835   4.236   0.160
  877TIP3   OH2 2587   5.534   3.233   5.605
  877TIP3    H1 2588   5.610   3.212   5.658
  877TIP3    H2 2589   5.487   3.300   5.654
  878TIP3   OH2 2590   1.549   4.585   5.029
  878TIP3    H1 2591   1.459   4.614   5.034
  878TIP3    H2 2592   1.572   4.562   5.119
  879TIP3   OH2 2593   3.807   2.077   3.029
  879TIP3    H1 2594   3.775   1.991   3.056
  879TIP3    H2 2595   3.730   2.133   3.029
  880TIP3   OH2 2596   3.945   5.100   6.780
  880TIP3    H1 2597   3.878   5.147   6.731
  880TIP3    H2 2598   4.011   5.076   6.715
  881TIP3   OH2 2599   3.849   2.834   3.112
  881TIP3    H1 2600   3.756   2.819   3.129
  881TIP3    H2 2601   3.886   2.853   3.198
  882TIP3   OH2 2602   2.939   5.454   5.155
  882TIP3    H1 2603   2.991   5.404   5.218
  882TIP3    H2 2604   2.974   5.543   5.161
  883TIP3   OH2 2605   2.200   2.243   1.760
  883TIP3    H1 2606   2.289   2.208   1.750
  883TIP3    H2 2607   2.210   2.320   1.816
  884TIP3   OH2 2608   6.109   0.499   2.055
  884TIP3    H1 2609   6.095   0.467   2.144
  884TIP3    H2 2610   6.197   0.469   2.032
  885TIP3   OH2 2611   3.132   1.949   6.113
  885TIP3    H1 2612   3.074   1.988   6.178
  885TIP3    H2 2613   3.202   1.908   6.164
  886TIP3   OH2 2614   6.938   7.549   4.247
  886TIP3    H1 2615   6.929   7.536   4.152
  886TIP3    H2 2616   7.016   7.498   4.270
  887TIP3   OH2 2617   7.634   0.554   3.960
  887TIP3    H1 2618   7.718   0.536   3.919
  887TIP3    H2 2619   7.585   0.472   3.954
  888TIP3   OH2 2620   5.142   7.813   5.408
  888TIP3    H1 2621   5.231   7.806   5.443
  888TIP3    H2 2622   5.086   7.821   5.486
  889TIP3   OH2 2623   4.729   4.308   1.450
  889TIP3    H1 2624   4.724   4.213   1.450
  889TIP3    H2 2625   4.787   4.329   1.377
  890TIP3   OH2 2626   0.128   7.336   2.490
  890TIP3    H1 2627   0.068   7.316   2.562
  890TIP3    H2 2628   0.079   7.395   2.434
  891TIP3   OH2 2629   3.997   7.501   4.249
  891TIP3    H1 2630   4.090   7.483   4.235
  891TIP3    H2 2631   3.978   7.463   4.334
  892TIP3   OH2 2632   8.081   6.950   4.195
  892TIP3    H1 2633   8.136   6.882   4.233
  892TIP3    H2 2634   8.058   6.916   4.108
  893TIP3   OH2 2635   2.659   1.816   4.917
  893TIP3    H1 2636   2.572   1.779   4.936
  893TIP3    H2 2637   2.649   1.910   4.936
  894TIP3   OH2 2638   2.691   3.534   1.401
  894TIP3    H1 2639   2.634   3.516   1.475
  894TIP3    H2 2640   2.779   3.522   1.435
  895TIP3   OH2 2641   6.807   7.086   3.035
  895TIP3    H1 2642   6.851   7.086   3.121
  895TIP3    H2 2643   6.835   7.004   2.994
  896TIP3   OH2 2644   1.118   5.512   0.823
  896TIP3    H1 2645   1.031   5.477   0.806
  896TIP3    H2 2646   1.154   5.529   0.735
  897TIP3   OH2 2647   2.483   1.473   2.175
  897TIP3    H1 2648   2.446   1.392   2.209
  897TIP3    H2 2649   2.444   1.542   2.229
  898TIP3   OH2 2650   1.748   0.168   2.556
  898TIP3    H1 2651   1.726   0.255   2.588
  898TIP3    H2 2652   1.769   0.118   2.635
  899TIP3   OH2 2653   6.109   5.061   1.655
  899TIP3    H1 2654   6.150   5.081   1.571
  899TIP3    H2 2655   6.154   5.116   1.718
  900TIP3   OH2 2656   6.436   3.721   4.445
  900TIP3    H1 2657   6.474   3.655   4.386
  900TIP3    H2 2658   6.510   3.748   4.501
  901TIP3   OH2 2659   3.617   1.432   1.527
  901TIP3    H1 2660   3.540   1.480   1.498
  901TIP3    H2 2661   3.691   1.485   1.497
  902TIP3   OH2 2662   7.303   7.743   1.962
  902TIP3    H1 2663   7.297   7.678   2.032
  902TIP3    H2 2664   7.323   7.692   1.884
  903TIP3   OH2 2665   5.820   5.720   4.093
  903TIP3    H1 2666   5.725   5.714   4.085
  903TIP3    H2 2667   5.835   5.798   4.147
  904TIP3   OH2 2668   6.345   7.091   3.031
  904TIP3    H1 2669   6.256   7.071   3.000
  904TIP3    H2 2670   6.402   7.036   2.978
  905TIP3   OH2 2671   2.703   7.565   4.846
  905TIP3    H1 2672   2.766   7.598   4.782
  905TIP3    H2 2673   2.618   7.575   4.803
  906TIP3   OH2 2674   0.196   3.333   4.410
  906TIP3    H1 2675   0.245   3.410   4.382
  906TIP3    H2 2676   0.207   3.330   4.504
  907TIP3   OH2 2677   7.146   0.277   2.828
  907TIP3    H1 2678   7.134   0.260   2.735
  907TIP3    H2 2679   7.129   0.193   2.871
  908TIP3   OH2 2680   6.354   3.528   3.787
  908TIP3    H1 2681   6.388   3.590   3.851
  908TIP3    H2 2682   6.408   3.542   3.709
  909TIP3   OH2 2683   7.897   5.102   3.786
  909TIP3    H1 2684   7.957   5.117   3.859
  909TIP3    H2 2685   7.951   5.064   3.717
  910TIP3   OH2 2686   5.285   4.463   3.332
  910TIP3    H1 2687   5.225   4.413   3.276
  910TIP3    H2 2688   5.308   4.540   3.280
  911TIP3   OH2 2689   3.108   0.287   6.482
  911TIP3    H1 2690   3.156   0.343   6.421
  911TIP3    H2 2691   3.097   0.341   6.560
  912TIP3   OH2 2692   6.705   7.113   5.707
  912TIP3    H1 2693   6.792   7.147   5.726
  912TIP3    H2 2694   6.658   7.121   5.789
  913TIP3   OH2 2695   0.903   2.046   2.539
  913TIP3    H1 2696   0.933   2.128   2.578
  913TIP3    H2 2697   0.818   2.068   2.501
  914TIP3   OH2 2698   3.081   5.299   1.686
  914TIP3    H1 2699   3.136   5.372   1.656
  914TIP3    H2 2700   3.105   5.226   1.630
  915TIP3   OH2 2701   5.140   7.455   3.359
  915TIP3    H1 2702   5.174   7.365   3.360
  915TIP3    H2 2703   5.046   7.444   3.345
  916TIP3   OH2 2704   4.463   2.071   2.727
  916TIP3    H1 2705   4.529   2.083   2.659
  916TIP3    H2 2706   4.512   2.067   2.809
  917TIP3   OH2 2707   3.269   4.677   1.890
  917TIP3    H1 2708   3.214   4.641   1.959
  917TIP3    H2 2709   3.239   4.768   1.879
  918TIP3   OH2 2710   5.264   3.441   3.279
  918TIP3    H1 2711   5.212   3.366   3.253
  918TIP3    H2 2712   5.322   3.458   3.205
  919TIP3   OH2 2713   3.987   4.759   1.283
  919TIP3    H1 2714   3.996   4.668   1.311
  919TIP3    H2 2715   4.068   4.802   1.311
  920TIP3   OH2 2716   0.574   1.636   2.412
  920TIP3    H1 2717   0.633   1.694   2.461
  920TIP3    H2 2718   0.562   1.560   2.469
  921TIP3   OH2 2719   7.086   6.110   6.472
  921TIP3    H1 2720   7.105   6.188   6.525
  921TIP3    H2 2721   7.005   6.131   6.427
  922TIP3   OH2 2722   4.987   1.784   6.273
  922TIP3    H1 2723   5.080   1.806   6.275
  922TIP3    H2 2724   4.984   1.695   6.238
  923TIP3   OH2 2725   5.018   6.490   3.129
  923TIP3    H1 2726   4.992   6.405   3.166
  923TIP3    H2 2727   5.038   6.544   3.205
  924TIP3   OH2 2728   2.687   4.577   6.030
  924TIP3    H1 2729   2.610   4.615   5.989
  924TIP3    H2 2730   2.659   4.554   6.118
  925TIP3   OH2 2731   1.287   1.222   5.606
  925TIP3    H1 2732   1.283   1.137   5.651
  925TIP3    H2 2733   1.284   1.199   5.513
  926TIP3   OH2 2734   7.619   1.211   3.221
  926TIP3    H1 2735   7.573   1.295   3.215
  926TIP3    H2 2736   7.674   1.209   3.142
  927TIP3   OH2 2737   1.823   2.767   5.138
  927TIP3    H1 2738   1.763   2.839   5.156
  927TIP3    H2 2739   1.888   2.805   5.078
  928TIP3   OH2 2740   0.272   5.231   3.861
  928TIP3    H1 2741   0.247   5.317   3.826
  928TIP3    H2 2742   0.279   5.175   3.785
  929TIP3   OH2 2743   4.517   3.064   0.895
  929TIP3    H1 2744   4.555   3.070   0.807
  929TIP3    H2 2745   4.588   3.093   0.952
  930TIP3   OH2 2746   4.080   3.924   4.146
  930TIP3    H1 2747   4.110   3.866   4.076
  930TIP3    H2 2748   4.125   4.007   4.130
  931TIP3   OH2 2749   3.588   7.259   0.253
  931TIP3    H1 2750   3.558   7.347   0.231
  931TIP3    H2 2751   3.532   7.231   0.325
  932TIP3   OH2 2752   7.075   0.761   2.262
  932TIP3    H1 2753   7.028   0.729   2.185
  932TIP3    H2 2754   7.156   0.797   2.228
  933TIP3   OH2 2755   6.033   0.946   5.968
  933TIP3    H1 2756   6.002   0.935   6.058
  933TIP3    H2 2757   6.054   1.039   5.961
  934TIP3   OH2 2758   0.154   2.788   5.204
  934TIP3    H1 2759   0.097   2.847   5.155
  934TIP3    H2 2760   0.152   2.821   5.294
  935TIP3   OH2 2761   3.855   1.789   1.015
  935TIP3    H1 2762   3.818   1.710   1.055
  935TIP3    H2 2763   3.945   1.792   1.047
  936TIP3   OH2 2764   5.006   6.201   4.316
  936TIP3    H1 2765   5.059   6.219   4.239
  936TIP3    H2 2766   4.966   6.285   4.339
  937TIP3   OH2 2767   4.652   4.695   2.666
  937TIP3    H1 2768   4.611   4.755   2.604
  937TIP3    H2 2769   4.585   4.628   2.683
  938TIP3   OH2 2770   5.871   3.460   4.795
  938TIP3    H1 2771   5.902   3.471   4.705
  938TIP3    H2 2772   5.814   3.383   4.791
  939TIP3   OH2 2773   3.812   3.794   6.037
  939TIP3    H1 2774   3.863   3.714   6.044
  939TIP3    H2 2775   3.812   3.814   5.943
  940TIP3   OH2 2776   2.006   2.703   4.599
  940TIP3    H1 2777   2.045   2.624   4.638
  940TIP3    H2 2778   1.917   2.676   4.576
  941TIP3   OH2 2779   7.412   1.315   1.297
  941TIP3    H1 2780   7.462   1.336   1.218
  941TIP3    H2 2781   7.477   1.279   1.358
  942TIP3   OH2 2782   3.996   6.683   4.438
  942TIP3    H1 2783   4.021   6.775   4.433
  942TIP3    H2 2784   3.902   6.685   4.460
  943TIP3   OH2 2785   0.672   4.162   5.929
  943TIP3    H1 2786   0.649   4.196   6.015
  943TIP3    H2 2787   0.738   4.223   5.896
  944TIP3   OH2 2788   7.088   1.247   1.917
  944TIP3    H1 2789   7.073   1.202   2.000
  944TIP3    H2 2790   7.002   1.282   1.893
  945TIP3   OH2 2791   4.661   7.486   0.439
  945TIP3    H1 2792   4.626   7.464   0.353
  945TIP3    H2 2793   4.719   7.561   0.423
  946TIP3   OH2 2794   2.813   5.257   1.697
  946TIP3    H1 2795   2.785   5.317   1.627
  946TIP3    H2 2796   2.908   5.269   1.703
  947TIP3   OH2 2797   1.049   7.517   5.588
  947TIP3    H1 2798   0.996   7.439   5.603
  947TIP3    H2 2799   0.988   7.580   5.550
  948TIP3   OH2 2800   8.308   4.375   5.945
  948TIP3    H1 2801   8.289   4.448   6.005
  948TIP3    H2 2802   8.307   4.415   5.858
  949TIP3   OH2 2803   3.893   2.698   0.415
  949TIP3    H1 2804   3.980   2.670   0.387
  949TIP3    H2 2805   3.844   2.707   0.333
  950TIP3   OH2 2806   4.642   6.625   0.818
  950TIP3    H1 2807   4.668   6.608   0.908
  950TIP3    H2 2808   4.553   6.591   0.812
  951TIP3   OH2 2809   8.122   5.244   2.500
  951TIP3    H1 2810   8.029   5.224   2.498
  951TIP3    H2 2811   8.161   5.190   2.431
  952TIP3   OH2 2812   4.463   2.241   0.513
  952TIP3    H1 2813   4.505   2.245   0.598
  952TIP3    H2 2814   4.535   2.237   0.450
  953TIP3   OH2 2815   5.506   5.648   1.496
  953TIP3    H1 2816   5.579   5.678   1.442
  953TIP3    H2 2817   5.429   5.692   1.459
  954TIP3   OH2 2818   0.464   5.010   0.431
  954TIP3    H1 2819   0.397   4.949   0.397
  954TIP3    H2 2820   0.544   4.957   0.435
  955TIP3   OH2 2821   3.021   0.467   1.623
  955TIP3    H1 2822   3.034   0.382   1.666
  955TIP3    H2 2823   2.998   0.445   1.533
  956TIP3   OH2 2824   5.533   4.977   4.040
  956TIP3    H1 2825   5.460   5.015   4.089
  956TIP3    H2 2826   5.612   5.010   4.083
  957TIP3   OH2 2827   7.464   4.047   3.005
  957TIP3    H1 2828   7.559   4.058   3.007
  957TIP3    H2 2829   7.442   4.045   2.912
  958TIP3   OH2 2830   2.678   3.848   5.117
  958TIP3    H1 2831   2.670   3.827   5.024
  958TIP3    H2 2832   2.592   3.883   5.141
  959TIP3   OH2 2833   6.813   4.382   1.225
  959TIP3    H1 2834   6.721   4.381   1.251
  959TIP3    H2 2835   6.813   4.343   1.137
  960TIP3   OH2 2836   4.319   4.913   5.930
  960TIP3    H1 2837   4.283   5.001   5.945
  960TIP3    H2 2838   4.345   4.914   5.837
  961TIP3   OH2 2839   7.092   6.545   2.745
  961TIP3    H1 2840   7.013   6.513   2.701
  961TIP3    H2 2841   7.097   6.638   2.720
  962TIP3   OH2 2842   4.479   5.235   4.203
  962TIP3    H1 2843   4.388   5.204   4.206
  962TIP3    H2 2844   4.527   5.174   4.259
  963TIP3   OH2 2845   5.030   3.286   3.393
  963TIP3    H1 2846   5.028   3.365   3.338
  963TIP3    H2 2847   5.010   3.215   3.332
  964TIP3   OH2 2848   1.405   4.254   1.601
  964TIP3    H1 2849   1.351   4.274   1.525
  964TIP3    H2 2850   1.459   4.181   1.573
  965TIP3   OH2 2851   6.665   4.469   6.284
  965TIP3    H1 2852   6.601   4.539   6.301
  965TIP3    H2 2853   6.743   4.515   6.253
  966TIP3   OH2 2854   7.094   5.972   1.467
  966TIP3    H1 2855   7.140   5.976   1.383
  966TIP3    H2 2856   7.159   5.936   1.528
  967TIP3   OH2 2857   0.775   3.737   4.646
  967TIP3    H1 2858   0.769   3.833   4.646
  967TIP3    H2 2859   0.793   3.714   4.555
  968TIP3   OH2 2860   5.385   2.297   6.663
  968TIP3    H1 2861   5.429   2.379   6.639
  968TIP3    H2 2862   5.422   2.231   6.605
  969TIP3   OH2 2863   5.194   2.663   4.632
  969TIP3    H1 2864   5.222   2.733   4.573
  969TIP3    H2 2865   5.102   2.683   4.651
  970TIP3   OH2 2866   6.250   5.001   6.578
  970TIP3    H1 2867   6.165   4.974   6.615
  970TIP3    H2 2868   6.313   4.983   6.648
  971TIP3   OH2 2869   0.357   1.612   1.414
  971TIP3    H1 2870   0.388   1.530   1.454
  971TIP3    H2 2871   0.435   1.650   1.374
  972TIP3   OH2 2872   5.126   6.691   4.807
  972TIP3    H1 2873   5.173   6.774   4.811
  972TIP3    H2 2874   5.117   6.664   4.899
  973TIP3   OH2 2875   5.556   3.800   5.987
  973TIP3    H1 2876   5.535   3.879   6.037
  973TIP3    H2 2877   5.550   3.826   5.895
  974TIP3   OH2 2878   5.428   7.458   0.399
  974TIP3    H1 2879   5.465   7.502   0.323
  974TIP3    H2 2880   5.408   7.529   0.460
  975TIP3   OH2 2881   6.135   4.580   4.001
  975TIP3    H1 2882   6.225   4.582   3.969
  975TIP3    H2 2883   6.082   4.571   3.922
  976TIP3   OH2 2884   0.902   2.744   5.741
  976TIP3    H1 2885   0.947   2.672   5.785
  976TIP3    H2 2886   0.834   2.702   5.689
  977TIP3   OH2 2887   3.588   3.386   1.355
  977TIP3    H1 2888   3.521   3.363   1.420
  977TIP3    H2 2889   3.622   3.301   1.325
  978TIP3   OH2 2890   4.565   2.523   6.165
  978TIP3    H1 2891   4.643   2.468   6.172
  978TIP3    H2 2892   4.586   2.602   6.215
  979TIP3   OH2 2893   6.192   1.261   2.533
  979TIP3    H1 2894   6.124   1.294   2.593
  979TIP3    H2 2895   6.163   1.172   2.512
  980TIP3   OH2 2896   5.872   1.050   6.674
  980TIP3    H1 2897   5.954   1.026   6.717
  980TIP3    H2 2898   5.835   0.967   6.644
  981TIP3   OH2 2899   3.175   7.113   3.756
  981TIP3    H1 2900   3.148   7.196   3.795
  981TIP3    H2 2901   3.101   7.086   3.702
  982TIP3   OH2 2902   4.168   7.587   1.366
  982TIP3    H1 2903   4.150   7.495   1.385
  982TIP3    H2 2904   4.165   7.630   1.451
  983TIP3   OH2 2905   2.062   1.664   2.861
  983TIP3    H1 2906   2.107   1.653   2.777
  983TIP3    H2 2907   2.131   1.670   2.926
  984TIP3   OH2 2908   1.363   7.740   2.354
  984TIP3    H1 2909   1.454   7.731   2.327
  984TIP3    H2 2910   1.367   7.785   2.438
  985TIP3   OH2 2911   4.431   3.558   0.233
  985TIP3    H1 2912   4.508   3.536   0.182
  985TIP3    H2 2913   4.422   3.653   0.223
  986TIP3   OH2 2914   5.261   1.073   6.663
  986TIP3    H1 2915   5.313   1.153   6.653
  986TIP3    H2 2916   5.309   1.022   6.728
  987TIP3   OH2 2917   2.608   3.716   0.416
  987TIP3    H1 2918   2.614   3.621   0.419
  987TIP3    H2 2919   2.644   3.745   0.500
  988TIP3   OH2 2920   6.099   1.565   1.452
  988TIP3    H1 2921   6.162   1.598   1.516
  988TIP3    H2 2922   6.068   1.482   1.488
  989TIP3   OH2 2923   4.808   0.176   0.421
  989TIP3    H1 2924   4.792   0.188   0.327
  989TIP3    H2 2925   4.811   0.081   0.433
  990TIP3   OH2 2926   2.388   5.146   1.400
  990TIP3    H1 2927   2.368   5.054   1.417
  990TIP3    H2 2928   2.483   5.152   1.407
  991TIP3   OH2 2929   6.106   5.651   0.572
  991TIP3    H1 2930   6.152   5.636   0.655
  991TIP3    H2 2931   6.014   5.663   0.597
  992TIP3   OH2 2932   7.878   2.010   6.328
  992TIP3    H1 2933   7.910   1.940   6.385
  992TIP3    H2 2934   7.848   1.964   6.249
  993TIP3   OH2 2935   3.955   2.142   2.493
  993TIP3    H1 2936   3.974   2.070   2.432
  993TIP3    H2 2937   3.941   2.099   2.577
  994TIP3   OH2 2938   2.017   7.358   4.757
  994TIP3    H1 2939   2.098   7.340   4.804
  994TIP3    H2 2940   1.948   7.345   4.822
  995TIP3   OH2 2941   5.845   4.315   3.448
  995TIP3    H1 2942   5.782   4.244   3.461
  995TIP3    H2 2943   5.914   4.298   3.511
  996TIP3   OH2 2944   0.080   0.295   0.661
  996TIP3    H1 2945   0.008   0.357   0.675
  996TIP3    H2 2946   0.110   0.273   0.749
  997TIP3   OH2 2947   1.811   1.934   2.017
  997TIP3    H1 2948   1.791   1.862   2.076
  997TIP3    H2 2949   1.885   1.979   2.058
  998TIP3   OH2 2950   6.806   5.988   4.405
  998TIP3    H1 2951   6.798   5.901   4.444
  998TIP3    H2 2952   6.889   5.986   4.358
  999TIP3   OH2 2953   6.571   4.091   0.926
  999TIP3    H1 2954   6.621   4.167   0.955
  999TIP3    H2 2955   6.626   4.049   0.859
 1000TIP3   OH2 2956   0.474   2.957   6.419
 1000TIP3    H1 2957   0.475   3.051   6.436
 1000TIP3    H2 2958   0.403   2.924   6.473
 1001TIP3   OH2 2959  -0.005   3.422   6.374
 1001TIP3    H1 2960   0.054   3.351   6.397
 1001TIP3    H2 2961   0.047   3.502   6.386
 1002TIP3   OH2 2962   5.579   6.229   4.886
 1002TIP3    H1 2963   5.628   6.303   4.922
 1002TIP3    H2 2964   5.619   6.213   4.801
 1003TIP3   OH2 2965   1.270   6.601   0.550
 1003TIP3    H1 2966   1.287   6.623   0.642
 1003TIP3    H2 2967   1.293   6.681   0.502
 1004TIP3   OH2 2968   0.425   2.098   5.422
 1004TIP3    H1 2969   0.419   2.073   5.330
 1004TIP3    H2 2970   0.426   2.194   5.422
 1005TIP3   OH2 2971   0.302   5.340   1.865
 1005TIP3    H1 2972   0.208   5.326   1.859
 1005TIP3    H2 2973   0.335   5.261   1.908
 1006TIP3   OH2 2974   0.632   1.076   2.215
 1006TIP3    H1 2975   0.676   1.151   2.174
 1006TIP3    H2 2976   0.650   1.086   2.308
 1007TIP3   OH2 2977   3.470   3.347   4.763
 1007TIP3    H1 2978   3.530   3.413   4.731
 1007TIP3    H2 2979   3.523   3.267   4.770
 1008TIP3   OH2 2980   0.977   3.943   6.596
 1008TIP3    H1 2981   1.002   3.850   6.599
 1008TIP3    H2 2982   1.037   3.986   6.658
 1009TIP3   OH2 2983   3.676   2.502   3.206
 1009TIP3    H1 2984   3.660   2.514   3.113
 1009TIP3    H2 2985   3.595   2.463   3.239
 1010TIP3   OH2 2986   6.562   5.959   2.389
 1010TIP3    H1 2987   6.483   5.924   2.347
 1010TIP3    H2 2988   6.591   5.890   2.449
 1011TIP3   OH2 2989   5.521   1.285   4.921
 1011TIP3    H1 2990   5.438   1.310   4.961
 1011TIP3    H2 2991   5.555   1.366   4.884
 1012TIP3   OH2 2992   5.514   1.657   1.656
 1012TIP3    H1 2993   5.571   1.733   1.656
 1012TIP3    H2 2994   5.434   1.687   1.613
 1013TIP3   OH2 2995   6.918   7.397   6.585
 1013TIP3    H1 2996   6.858   7.401   6.511
 1013TIP3    H2 2997   6.899   7.476   6.636
 1014TIP3   OH2 2998   6.294   2.001   1.792
 1014TIP3    H1 2999   6.253   2.083   1.821
 1014TIP3    H2 3000   6.321   1.958   1.873
 1015TIP3   OH2 3001   4.323   4.966   5.094
 1015TIP3    H1 3002   4.379   4.978   5.170
 1015TIP3    H2 3003   4.368   4.900   5.041
 1016TIP3   OH2 3004   1.252   6.946   5.154
 1016TIP3    H1 3005   1.234   7.034   5.186
 1016TIP3    H2 3006   1.199   6.938   5.075
 1017TIP3   OH2 3007   1.610   1.719   2.839
 1017TIP3    H1 3008   1.548   1.790   2.823
 1017TIP3    H2 3009   1.644   1.735   2.927
 1018TIP3   OH2 3010   5.308   1.631   1.426
 1018TIP3    H1 3011   5.303   1.536   1.425
 1018TIP3    H2 3012   5.295   1.657   1.334
 1019TIP3   OH2 3013   2.691   3.145   4.060
 1019TIP3    H1 3014   2.690   3.232   4.020
 1019TIP3    H2 3015   2.783   3.126   4.076
 1020TIP3   OH2 3016   5.261   6.737   0.558
 1020TIP3    H1 3017   5.201   6.812   0.561
 1020TIP3    H2 3018   5.343   6.775   0.525
 1021TIP3   OH2 3019   5.634   3.496   0.164
 1021TIP3    H1 3020   5.572   3.429   0.136
 1021TIP3    H2 3021   5.720   3.457   0.149
 1022TIP3   OH2 3022   7.478   6.962   3.548
 1022TIP3    H1 3023   7.456   7.053   3.531
 1022TIP3    H2 3024   7.469   6.918   3.464
 1023TIP3   OH2 3025   0.677   5.939   3.977
 1023TIP3    H1 3026   0.590   5.949   4.017
 1023TIP3    H2 3027   0.681   5.846   3.952
 1024TIP3   OH2 3028   3.167   6.193   1.451
 1024TIP3    H1 3029   3.176   6.272   1.505
 1024TIP3    H2 3030   3.249   6.187   1.403
 1025TIP3   OH2 3031   5.799   3.847   2.303
 1025TIP3    H1 3032   5.859   3.773   2.310
 1025TIP3    H2 3033   5.849   3.915   2.259
 1026TIP3   OH2 3034   2.259   7.546   1.011
 1026TIP3    H1 3035   2.271   7.451   1.007
 1026TIP3    H2 3036   2.313   7.579   0.940
 1027TIP3   OH2 3037   3.187   3.454   2.423
 1027TIP3    H1 3038   3.192   3.484   2.514
 1027TIP3    H2 3039   3.203   3.533   2.371
 1028TIP3   OH2 3040   7.432   5.697   6.713
 1028TIP3    H1 3041   7.468   5.748   6.785
 1028TIP3    H2 3042   7.438   5.756   6.637
 1029TIP3   OH2 3043   0.451   4.832   6.096
 1029TIP3    H1 3044   0.361   4.858   6.116
 1029TIP3    H2 3045   0.449   4.811   6.003
 1030TIP3   OH2 3046   0.537   4.023   5.482
 1030TIP3    H1 3047   0.500   3.947   5.527
 1030TIP3    H2 3048   0.526   4.095   5.544
 1031TIP3   OH2 3049   2.420   2.983   3.197
 1031TIP3    H1 3050   2.437   3.020   3.111
 1031TIP3    H2 3051   2.409   2.889   3.182
 1032TIP3   OH2 3052   4.311   7.538   0.954
 1032TIP3    H1 3053   4.317   7.449   0.988
 1032TIP3    H2 3054   4.259   7.530   0.874
 1033TIP3   OH2 3055   0.470   6.409   3.455
 1033TIP3    H1 3056   0.541   6.461   3.419
 1033TIP3    H2 3057   0.470   6.328   3.403
 1034TIP3   OH2 3058   2.101   5.447   5.903
 1034TIP3    H1 3059   2.045   5.447   5.825
 1034TIP3    H2 3060   2.170   5.510   5.883
 1035TIP3   OH2 3061   7.510   6.664   4.502
 1035TIP3    H1 3062   7.487   6.738   4.445
 1035TIP3    H2 3063   7.444   6.667   4.572
 1036TIP3   OH2 3064   4.997   1.216   5.033
 1036TIP3    H1 3065   4.954   1.168   5.104
 1036TIP3    H2 3066   4.924   1.249   4.980
 1037TIP3   OH2 3067   7.475   1.024   5.820
 1037TIP3    H1 3068   7.483   1.021   5.915
 1037TIP3    H2 3069   7.488   0.933   5.792
 1038TIP3   OH2 3070   2.242   2.974   6.369
 1038TIP3    H1 3071   2.335   2.996   6.383
 1038TIP3    H2 3072   2.232   2.972   6.273
 1039TIP3   OH2 3073   3.780   4.960   0.729
 1039TIP3    H1 3074   3.706   5.007   0.690
 1039TIP3    H2 3075   3.830   4.928   0.653
 1040TIP3   OH2 3076   6.625   6.867   0.417
 1040TIP3    H1 3077   6.629   6.892   0.509
 1040TIP3    H2 3078   6.663   6.942   0.370
 1041TIP3   OH2 3079   6.197   7.500   3.743
 1041TIP3    H1 3080   6.173   7.496   3.651
 1041TIP3    H2 3081   6.116   7.523   3.788
 1042TIP3   OH2 3082   0.593   6.995   0.092
 1042TIP3    H1 3083   0.510   6.963   0.056
 1042TIP3    H2 3084   0.652   6.920   0.087
 1043TIP3   OH2 3085   2.791   0.713   4.023
 1043TIP3    H1 3086   2.743   0.771   4.081
 1043TIP3    H2 3087   2.724   0.664   3.976
 1044TIP3   OH2 3088   4.050   4.609   5.125
 1044TIP3    H1 3089   3.970   4.565   5.097
 1044TIP3    H2 3090   4.114   4.587   5.058
 1045TIP3   OH2 3091   7.676   5.466   3.496
 1045TIP3    H1 3092   7.706   5.395   3.553
 1045TIP3    H2 3093   7.662   5.540   3.556
 1046TIP3   OH2 3094   0.035   1.898   5.500
 1046TIP3    H1 3095  -0.016   1.880   5.422
 1046TIP3    H2 3096   0.024   1.991   5.516
 1047TIP3   OH2 3097   7.454   4.606   1.582
 1047TIP3    H1 3098   7.416   4.625   1.496
 1047TIP3    H2 3099   7.547   4.622   1.571
 1048TIP3   OH2 3100   6.322   2.035   3.399
 1048TIP3    H1 3101   6.299   1.980   3.325
 1048TIP3    H2 3102   6.384   2.099   3.363
 1049TIP3   OH2 3103   3.810   0.884   0.301
 1049TIP3    H1 3104   3.737   0.823   0.289
 1049TIP3    H2 3105   3.772   0.959   0.347
 1050TIP3   OH2 3106   1.774   3.239   5.909
 1050TIP3    H1 3107   1.837   3.242   5.837
 1050TIP3    H2 3108   1.705   3.299   5.881
 1051TIP3   OH2 3109   2.121   7.059   5.563
 1051TIP3    H1 3110   2.046   7.115   5.585
 1051TIP3    H2 3111   2.155   7.096   5.482
 1052TIP3   OH2 3112   7.200   3.703   4.401
 1052TIP3    H1 3113   7.179   3.722   4.310
 1052TIP3    H2 3114   7.173   3.781   4.449
 1053TIP3   OH2 3115   4.093   4.309   3.904
 1053TIP3    H1 3116   4.052   4.385   3.861
 1053TIP3    H2 3117   4.126   4.256   3.832
 1054TIP3   OH2 3118   6.189   2.821   3.267
 1054TIP3    H1 3119   6.141   2.838   3.185
 1054TIP3    H2 3120   6.181   2.903   3.316
 1055TIP3   OH2 3121   0.259   3.641   1.407
 1055TIP3    H1 3122   0.182   3.693   1.430
 1055TIP3    H2 3123   0.333   3.689   1.445
 1056TIP3   OH2 3124   4.774   3.100   5.028
 1056TIP3    H1 3125   4.719   3.106   4.950
 1056TIP3    H2 3126   4.863   3.089   4.994
 1057TIP3   OH2 3127   2.237   7.263   3.642
 1057TIP3    H1 3128   2.312   7.322   3.652
 1057TIP3    H2 3129   2.219   7.232   3.731
 1058TIP3   OH2 3130   5.296   1.694   2.263
 1058TIP3    H1 3131   5.319   1.615   2.312
 1058TIP3    H2 3132   5.282   1.664   2.174
 1059TIP3   OH2 3133   4.909   6.457   0.173
 1059TIP3    H1 3134   4.934   6.500   0.092
 1059TIP3    H2 3135   4.952   6.508   0.242
 1060TIP3   OH2 3136   6.928   3.834   3.877
 1060TIP3    H1 3137   6.929   3.802   3.787
 1060TIP3    H2 3138   6.967   3.922   3.871
 1061TIP3   OH2 3139   0.466   6.831   4.858
 1061TIP3    H1 3140   0.553   6.871   4.859
 1061TIP3    H2 3141   0.474   6.756   4.799
 1062TIP3   OH2 3142   0.588   2.143   5.740
 1062TIP3    H1 3143   0.629   2.225   5.712
 1062TIP3    H2 3144   0.608   2.138   5.834
 1063TIP3   OH2 3145   7.883   4.926   2.930
 1063TIP3    H1 3146   7.844   4.899   2.847
 1063TIP3    H2 3147   7.929   5.008   2.910
 1064TIP3   OH2 3148   3.501   2.095   1.750
 1064TIP3    H1 3149   3.469   2.069   1.663
 1064TIP3    H2 3150   3.458   2.178   1.768
 1065TIP3   OH2 3151   5.214   3.597   2.008
 1065TIP3    H1 3152   5.144   3.573   2.069
 1065TIP3    H2 3153   5.173   3.593   1.922
 1066TIP3   OH2 3154   1.921   5.743   5.885
 1066TIP3    H1 3155   1.911   5.655   5.921
 1066TIP3    H2 3156   1.999   5.737   5.830
 1067TIP3   OH2 3157   6.156   5.059   2.487
 1067TIP3    H1 3158   6.191   5.042   2.575
 1067TIP3    H2 3159   6.065   5.085   2.502
 1068TIP3   OH2 3160   4.309   0.475   4.241
 1068TIP3    H1 3161   4.381   0.415   4.263
 1068TIP3    H2 3162   4.353   0.554   4.209
 1069TIP3   OH2 3163   5.314   2.396   0.346
 1069TIP3    H1 3164   5.364   2.400   0.264
 1069TIP3    H2 3165   5.280   2.484   0.357
 1070TIP3   OH2 3166   7.317   5.270   2.061
 1070TIP3    H1 3167   7.266   5.210   2.116
 1070TIP3    H2 3168   7.251   5.316   2.009
 1071TIP3   OH2 3169   5.517   2.687   2.791
 1071TIP3    H1 3170   5.472   2.762   2.752
 1071TIP3    H2 3171   5.448   2.623   2.806
 1072TIP3   OH2 3172   1.833   3.131   4.573
 1072TIP3    H1 3173   1.914   3.081   4.585
 1072TIP3    H2 3174   1.843   3.207   4.632
 1073TIP3   OH2 3175   7.948   4.459   6.104
 1073TIP3    H1 3176   7.909   4.371   6.105
 1073TIP3    H2 3177   7.909   4.501   6.027
 1074TIP3   OH2 3178   3.703   3.827   3.800
 1074TIP3    H1 3179   3.762   3.901   3.816
 1074TIP3    H2 3180   3.657   3.850   3.719
 1075TIP3   OH2 3181   4.287   3.014   5.997
 1075TIP3    H1 3182   4.319   2.937   6.043
 1075TIP3    H2 3183   4.192   3.014   6.011
 1076TIP3   OH2 3184   0.099   3.748   4.659
 1076TIP3    H1 3185   0.154   3.824   4.677
 1076TIP3    H2 3186   0.139   3.677   4.710
 1077TIP3   OH2 3187   2.852   2.932   1.284
 1077TIP3    H1 3188   2.772   2.920   1.334
 1077TIP3    H2 3189   2.888   3.015   1.315
 1078TIP3   OH2 3190   3.840   3.132   2.055
 1078TIP3    H1 3191   3.771   3.157   2.116
 1078TIP3    H2 3192   3.800   3.065   1.999
 1079TIP3   OH2 3193   5.537   3.039   4.667
 1079TIP3    H1 3194   5.626   3.004   4.668
 1079TIP3    H2 3195   5.492   2.987   4.600
 1080TIP3   OH2 3196   4.975   2.631   2.588
 1080TIP3    H1 3197   4.897   2.684   2.576
 1080TIP3    H2 3198   4.945   2.555   2.638
 1081TIP3   OH2 3199   3.938   4.625   2.039
 1081TIP3    H1 3200   3.901   4.576   1.966
 1081TIP3    H2 3201   3.912   4.576   2.117
 1082TIP3   OH2 3202   2.488   4.930   5.501
 1082TIP3    H1 3203   2.422   4.907   5.566
 1082TIP3    H2 3204   2.444   4.991   5.442
 1083TIP3   OH2 3205   2.832   1.546   3.201
 1083TIP3    H1 3206   2.873   1.464   3.229
 1083TIP3    H2 3207   2.740   1.523   3.184
 1084TIP3   OH2 3208   7.111   5.245   2.714
 1084TIP3    H1 3209   7.199   5.207   2.713
 1084TIP3    H2 3210   7.078   5.228   2.802
 1085TIP3   OH2 3211   2.189   2.351   4.986
 1085TIP3    H1 3212   2.233   2.400   5.055
 1085TIP3    H2 3213   2.258   2.300   4.943
 1086TIP3   OH2 3214   5.057   4.440   4.674
 1086TIP3    H1 3215   5.100   4.504   4.618
 1086TIP3    H2 3216   5.127   4.382   4.702
 1087TIP3   OH2 3217   1.469   7.131   3.791
 1087TIP3    H1 3218   1.517   7.214   3.790
 1087TIP3    H2 3219   1.403   7.141   3.723
 1088TIP3   OH2 3220   4.260   4.293   5.127
 1088TIP3    H1 3221   4.181   4.240   5.117
 1088TIP3    H2 3222   4.259   4.353   5.052
 1089TIP3   OH2 3223   2.098   2.748   5.031
 1089TIP3    H1 3224   2.159   2.774   5.100
 1089TIP3    H2 3225   2.068   2.831   4.993
 1090TIP3   OH2 3226   7.478   6.536   0.667
 1090TIP3    H1 3227   7.483   6.442   0.652
 1090TIP3    H2 3228   7.528   6.550   0.748
 1091TIP3   OH2 3229   6.630   1.836   5.138
 1091TIP3    H1 3230   6.708   1.846   5.193
 1091TIP3    H2 3231   6.577   1.914   5.157
 1092TIP3   OH2 3232   3.929   3.089   5.464
 1092TIP3    H1 3233   3.858   3.153   5.466
 1092TIP3    H2 3234   3.890   3.010   5.429
 1093TIP3   OH2 3235   0.859   7.287   2.437
 1093TIP3    H1 3236   0.888   7.199   2.416
 1093TIP3    H2 3237   0.773   7.294   2.396
 1094TIP3   OH2 3238   5.221   7.618   0.140
 1094TIP3    H1 3239   5.295   7.652   0.191
 1094TIP3    H2 3240   5.260   7.554   0.081
 1095TIP3   OH2 3241   7.235   1.677   2.584
 1095TIP3    H1 3242   7.328   1.659   2.570
 1095TIP3    H2 3243   7.220   1.762   2.542
 1096TIP3   OH2 3244   4.368   6.326   6.230
 1096TIP3    H1 3245   4.295   6.277   6.191
 1096TIP3    H2 3246   4.411   6.369   6.156
 1097TIP3   OH2 3247   3.184   4.650   0.639
 1097TIP3    H1 3248   3.141   4.654   0.554
 1097TIP3    H2 3249   3.113   4.639   0.702
 1098TIP3   OH2 3250   5.761   7.219   4.684
 1098TIP3    H1 3251   5.766   7.124   4.675
 1098TIP3    H2 3252   5.679   7.243   4.640
 1099TIP3   OH2 3253   3.885   2.165   3.380
 1099TIP3    H1 3254   3.889   2.259   3.362
 1099TIP3    H2 3255   3.941   2.125   3.314
 1100TIP3   OH2 3256   5.935   2.390   2.886
 1100TIP3    H1 3257   5.872   2.395   2.815
 1100TIP3    H2 3258   6.006   2.336   2.851
 1101TIP3   OH2 3259   2.086   2.349   4.619
 1101TIP3    H1 3260   2.134   2.270   4.645
 1101TIP3    H2 3261   2.054   2.386   4.701
 1102TIP3   OH2 3262   7.589   4.172   1.825
 1102TIP3    H1 3263   7.580   4.159   1.919
 1102TIP3    H2 3264   7.502   4.150   1.790
 1103TIP3   OH2 3265   0.854   7.047   1.244
 1103TIP3    H1 3266   0.763   7.035   1.271
 1103TIP3    H2 3267   0.874   7.137   1.270
 1104TIP3   OH2 3268   1.472   4.021   6.321
 1104TIP3    H1 3269   1.427   4.093   6.364
 1104TIP3    H2 3270   1.498   4.055   6.236
 1105TIP3   OH2 3271   4.597   1.203   5.360
 1105TIP3    H1 3272   4.636   1.222   5.274
 1105TIP3    H2 3273   4.606   1.285   5.409
 1106TIP3   OH2 3274   4.826   3.451   5.422
 1106TIP3    H1 3275   4.795   3.529   5.376
 1106TIP3    H2 3276   4.766   3.381   5.396
 1107TIP3   OH2 3277   2.232   7.157   5.318
 1107TIP3    H1 3278   2.227   7.087   5.253
 1107TIP3    H2 3279   2.281   7.227   5.274
 1108TIP3   OH2 3280   1.553   7.397   4.370
 1108TIP3    H1 3281   1.572   7.325   4.309
 1108TIP3    H2 3282   1.503   7.356   4.440
 1109TIP3   OH2 3283   2.131   5.168   5.897
 1109TIP3    H1 3284   2.116   5.262   5.894
 1109TIP3    H2 3285   2.199   5.152   5.832
 1110TIP3   OH2 3286   4.097   6.796   2.834
 1110TIP3    H1 3287   4.050   6.850   2.898
 1110TIP3    H2 3288   4.034   6.781   2.764
 1111TIP3   OH2 3289   0.843   6.764   2.461
 1111TIP3    H1 3290   0.937   6.766   2.476
 1111TIP3    H2 3291   0.812   6.686   2.507
 1112TIP3   OH2 3292   7.762   1.269   6.235
 1112TIP3    H1 3293   7.842   1.282   6.286
 1112TIP3    H2 3294   7.714   1.351   6.244
 1113TIP3   OH2 3295   2.094   3.630   6.341
 1113TIP3    H1 3296   2.075   3.576   6.417
 1113TIP3    H2 3297   2.009   3.643   6.299
 1114TIP3   OH2 3298   7.552   5.123   4.772
 1114TIP3    H1 3299   7.583   5.158   4.688
 1114TIP3    H2 3300   7.528   5.201   4.823
 1115TIP3   OH2 3301   2.172   3.648   4.603
 1115TIP3    H1 3302   2.233   3.692   4.662
 1115TIP3    H2 3303   2.161   3.709   4.530
 1116TIP3   OH2 3304   4.473   2.971   0.418
 1116TIP3    H1 3305   4.500   2.956   0.509
 1116TIP3    H2 3306   4.399   3.031   0.424
 1117TIP3   OH2 3307   5.072   6.187   3.692
 1117TIP3    H1 3308   5.133   6.259   3.676
 1117TIP3    H2 3309   5.096   6.154   3.778
 1118TIP3   OH2 3310   6.444   6.423  -0.003
 1118TIP3    H1 3311   6.358   6.389   0.021
 1118TIP3    H2 3312   6.494   6.420   0.079
 1119TIP3   OH2 3313   1.045   4.897   2.833
 1119TIP3    H1 3314   0.955   4.867   2.841
 1119TIP3    H2 3315   1.069   4.879   2.742
 1120TIP3   OH2 3316   2.066   5.070   0.250
 1120TIP3    H1 3317   1.995   5.133   0.264
 1120TIP3    H2 3318   2.053   5.004   0.318
 1121TIP3   OH2 3319   7.729   3.923   0.691
 1121TIP3    H1 3320   7.748   3.874   0.771
 1121TIP3    H2 3321   7.796   3.991   0.688
 1122TIP3   OH2 3322   4.975   3.194   4.525
 1122TIP3    H1 3323   4.951   3.146   4.604
 1122TIP3    H2 3324   4.944   3.139   4.453
 1123TIP3   OH2 3325   5.566   3.680   3.064
 1123TIP3    H1 3326   5.645   3.714   3.022
 1123TIP3    H2 3327   5.522   3.758   3.099
 1124TIP3   OH2 3328   5.018   7.655   4.724
 1124TIP3    H1 3329   4.978   7.710   4.657
 1124TIP3    H2 3330   5.092   7.707   4.756
 1125TIP3   OH2 3331   3.456   1.832   3.840
 1125TIP3    H1 3332   3.399   1.908   3.827
 1125TIP3    H2 3333   3.530   1.866   3.890
 1126TIP3   OH2 3334   3.234   2.704   1.646
 1126TIP3    H1 3335   3.222   2.609   1.637
 1126TIP3    H2 3336   3.147   2.737   1.672
 1127TIP3   OH2 3337   1.937   3.795   6.641
 1127TIP3    H1 3338   1.857   3.835   6.608
 1127TIP3    H2 3339   1.913   3.705   6.661
 1128TIP3   OH2 3340   0.406   3.171   2.294
 1128TIP3    H1 3341   0.346   3.169   2.219
 1128TIP3    H2 3342   0.364   3.231   2.356
 1129TIP3   OH2 3343   7.736   0.538   1.936
 1129TIP3    H1 3344   7.643   0.523   1.953
 1129TIP3    H2 3345   7.773   0.561   2.022
 1130TIP3   OH2 3346   0.794   5.686   3.583
 1130TIP3    H1 3347   0.754   5.716   3.501
 1130TIP3    H2 3348   0.725   5.636   3.625
 1131TIP3   OH2 3349   3.720   0.341   2.947
 1131TIP3    H1 3350   3.695   0.369   2.859
 1131TIP3    H2 3351   3.759   0.255   2.934
 1132TIP3   OH2 3352   2.312   0.000   4.490
 1132TIP3    H1 3353   2.406  -0.001   4.475
 1132TIP3    H2 3354   2.285   0.090   4.471
 1133TIP3   OH2 3355   0.814   6.968   3.353
 1133TIP3    H1 3356   0.847   7.058   3.349
 1133TIP3    H2 3357   0.795   6.954   3.446
 1134TIP3   OH2 3358   1.727   6.387   5.068
 1134TIP3    H1 3359   1.641   6.409   5.032
 1134TIP3    H2 3360   1.712   6.384   5.163
 1135TIP3   OH2 3361   8.307   6.262   3.515
 1135TIP3    H1 3362   8.250   6.270   3.439
 1135TIP3    H2 3363   8.254   6.216   3.580
 1136TIP3   OH2 3364   0.736   6.342   5.576
 1136TIP3    H1 3365   0.666   6.296   5.529
 1136TIP3    H2 3366   0.784   6.273   5.621
 1137TIP3   OH2 3367   2.673   5.059   0.570
 1137TIP3    H1 3368   2.763   5.067   0.538
 1137TIP3    H2 3369   2.662   4.966   0.588
 1138TIP3   OH2 3370   3.963   4.795   6.743
 1138TIP3    H1 3371   3.985   4.867   6.684
 1138TIP3    H2 3372   4.012   4.813   6.823
 1139TIP3   OH2 3373   7.273   5.321   3.905
 1139TIP3    H1 3374   7.336   5.251   3.917
 1139TIP3    H2 3375   7.218   5.319   3.983
 1140TIP3   OH2 3376   2.793   1.544   4.112
 1140TIP3    H1 3377   2.877   1.499   4.122
 1140TIP3    H2 3378   2.727   1.476   4.122
 1141TIP3   OH2 3379   5.845   2.191   5.998
 1141TIP3    H1 3380   5.864   2.222   5.910
 1141TIP3    H2 3381   5.805   2.105   5.986
 1142TIP3   OH2 3382   5.266   5.745   3.018
 1142TIP3    H1 3383   5.227   5.740   3.106
 1142TIP3    H2 3384   5.275   5.653   2.991
 1143TIP3   OH2 3385   5.150   0.589   0.091
 1143TIP3    H1 3386   5.201   0.561   0.168
 1143TIP3    H2 3387   5.162   0.518   0.028
 1144TIP3   OH2 3388   1.105   0.976   2.931
 1144TIP3    H1 3389   1.029   1.019   2.891
 1144TIP3    H2 3390   1.096   0.992   3.025
 1145TIP3   OH2 3391   2.214   1.473   1.705
 1145TIP3    H1 3392   2.186   1.496   1.616
 1145TIP3    H2 3393   2.132   1.469   1.755
 1146TIP3   OH2 3394   1.751   5.177   1.301
 1146TIP3    H1 3395   1.802   5.239   1.249
 1146TIP3    H2 3396   1.716   5.230   1.373
 1147TIP3   OH2 3397   7.331   4.957   4.742
 1147TIP3    H1 3398   7.325   4.908   4.824
 1147TIP3    H2 3399   7.404   5.018   4.754
 1148TIP3   OH2 3400  -0.010   7.310   3.864
 1148TIP3    H1 3401   0.078   7.274   3.870
 1148TIP3    H2 3402  -0.052   7.260   3.794
 1149TIP3   OH2 3403   5.650   5.557   6.515
 1149TIP3    H1 3404   5.706   5.483   6.540
 1149TIP3    H2 3405   5.605   5.581   6.596
 1150TIP3   OH2 3406   5.543   0.969   6.704
 1150TIP3    H1 3407   5.563   1.015   6.623
 1150TIP3    H2 3408   5.580   1.023   6.774
 1151TIP3   OH2 3409   3.045   5.771   6.624
 1151TIP3    H1 3410   3.044   5.676   6.612
 1151TIP3    H2 3411   3.077   5.783   6.714
 1152TIP3   OH2 3412   0.832   4.105   5.380
 1152TIP3    H1 3413   0.792   4.184   5.343
 1152TIP3    H2 3414   0.757   4.047   5.396
 1153TIP3   OH2 3415   2.015   0.162   6.643
 1153TIP3    H1 3416   2.024   0.212   6.724
 1153TIP3    H2 3417   1.936   0.196   6.602
 1154TIP3   OH2 3418   7.079   7.469   1.169
 1154TIP3    H1 3419   7.042   7.557   1.178
 1154TIP3    H2 3420   7.053   7.442   1.081
 1155TIP3   OH2 3421   5.526   4.081   4.215
 1155TIP3    H1 3422   5.476   4.000   4.222
 1155TIP3    H2 3423   5.469   4.148   4.251
 1156TIP3   OH2 3424   7.087   6.715   1.287
 1156TIP3    H1 3425   7.142   6.759   1.352
 1156TIP3    H2 3426   7.140   6.716   1.207
 1157TIP3   OH2 3427   3.245   3.726   2.257
 1157TIP3    H1 3428   3.219   3.801   2.203
 1157TIP3    H2 3429   3.319   3.758   2.308
 1158TIP3   OH2 3430   1.612   3.673   6.031
 1158TIP3    H1 3431   1.665   3.742   6.071
 1158TIP3    H2 3432   1.522   3.696   6.056
 1159TIP3   OH2 3433   6.563   0.077   6.254
 1159TIP3    H1 3434   6.470   0.072   6.277
 1159TIP3    H2 3435   6.601   0.131   6.323
 1160TIP3   OH2 3436   7.783   7.775   1.465
 1160TIP3    H1 3437   7.703   7.826   1.476
 1160TIP3    H2 3438   7.764   7.715   1.393
 1161TIP3   OH2 3439   5.571   7.312   0.772
 1161TIP3    H1 3440   5.515   7.324   0.848
 1161TIP3    H2 3441   5.660   7.309   0.808
 1162TIP3   OH2 3442   6.404   3.137   2.215
 1162TIP3    H1 3443   6.441   3.094   2.292
 1162TIP3    H2 3444   6.364   3.217   2.250
 1163TIP3   OH2 3445   0.803   4.176   4.467
 1163TIP3    H1 3446   0.845   4.156   4.384
 1163TIP3    H2 3447   0.723   4.123   4.468
 1164TIP3   OH2 3448   1.526   3.286   0.644
 1164TIP3    H1 3449   1.614   3.263   0.614
 1164TIP3    H2 3450   1.535   3.298   0.739
 1165TIP3   OH2 3451   7.676   0.912   1.372
 1165TIP3    H1 3452   7.744   0.874   1.428
 1165TIP3    H2 3453   7.722   0.974   1.316
 1166TIP3   OH2 3454   4.477   5.672   5.428
 1166TIP3    H1 3455   4.486   5.607   5.358
 1166TIP3    H2 3456   4.526   5.634   5.502
 1167TIP3   OH2 3457   3.094   6.366   4.524
 1167TIP3    H1 3458   3.080   6.456   4.552
 1167TIP3    H2 3459   3.029   6.351   4.456
 1168TIP3   OH2 3460   5.744   0.865   1.362
 1168TIP3    H1 3461   5.737   0.781   1.316
 1168TIP3    H2 3462   5.656   0.882   1.395
 1169TIP3   OH2 3463   3.631   6.456   6.350
 1169TIP3    H1 3464   3.645   6.391   6.281
 1169TIP3    H2 3465   3.698   6.523   6.335
 1170TIP3   OH2 3466   2.913   2.913   6.306
 1170TIP3    H1 3467   2.844   2.895   6.242
 1170TIP3    H2 3468   2.981   2.848   6.287
 1171TIP3   OH2 3469   4.104   1.504   4.560
 1171TIP3    H1 3470   4.028   1.562   4.556
 1171TIP3    H2 3471   4.176   1.561   4.585
 1172TIP3   OH2 3472   3.558   1.230   4.670
 1172TIP3    H1 3473   3.642   1.234   4.715
 1172TIP3    H2 3474   3.573   1.271   4.585
 1173TIP3   OH2 3475   3.635   1.257   2.646
 1173TIP3    H1 3476   3.591   1.217   2.572
 1173TIP3    H2 3477   3.622   1.195   2.718
 1174TIP3   OH2 3478   2.713   5.607   5.405
 1174TIP3    H1 3479   2.621   5.581   5.412
 1174TIP3    H2 3480   2.759   5.546   5.463
 1175TIP3   OH2 3481   3.726   6.392   2.612
 1175TIP3    H1 3482   3.817   6.413   2.596
 1175TIP3    H2 3483   3.709   6.424   2.700
 1176TIP3   OH2 3484   4.502   2.003   1.964
 1176TIP3    H1 3485   4.515   1.917   1.924
 1176TIP3    H2 3486   4.488   1.984   2.056
 1177TIP3   OH2 3487   0.621   5.840   4.525
 1177TIP3    H1 3488   0.595   5.751   4.547
 1177TIP3    H2 3489   0.711   5.831   4.492
 1178TIP3   OH2 3490   4.462   1.095   4.646
 1178TIP3    H1 3491   4.400   1.162   4.619
 1178TIP3    H2 3492   4.522   1.085   4.572
 1179TIP3   OH2 3493   5.079   3.564   5.521
 1179TIP3    H1 3494   4.995   3.520   5.531
 1179TIP3    H2 3495   5.109   3.579   5.611
 1180TIP3   OH2 3496   1.855   3.936   3.510
 1180TIP3    H1 3497   1.773   3.906   3.549
 1180TIP3    H2 3498   1.864   4.026   3.540
 1181TIP3   OH2 3499   0.221   5.435   0.920
 1181TIP3    H1 3500   0.217   5.349   0.878
 1181TIP3    H2 3501   0.228   5.416   1.013
 1182TIP3   OH2 3502   1.284   7.733   6.089
 1182TIP3    H1 3503   1.352   7.724   6.156
 1182TIP3    H2 3504   1.229   7.656   6.100
 1183TIP3   OH2 3505   2.344   7.265   0.973
 1183TIP3    H1 3506   2.433   7.238   0.996
 1183TIP3    H2 3507   2.287   7.204   1.020
 1184TIP3   OH2 3508   2.821   4.783   1.169
 1184TIP3    H1 3509   2.794   4.710   1.113
 1184TIP3    H2 3510   2.754   4.788   1.237
 1185TIP3   OH2 3511   4.076   0.866   2.056
 1185TIP3    H1 3512   4.117   0.905   2.134
 1185TIP3    H2 3513   4.022   0.795   2.091
 1186TIP3   OH2 3514   7.091   7.374   1.509
 1186TIP3    H1 3515   7.036   7.342   1.437
 1186TIP3    H2 3516   7.038   7.442   1.551
 1187TIP3   OH2 3517   4.145   4.693   0.079
 1187TIP3    H1 3518   4.214   4.664   0.139
 1187TIP3    H2 3519   4.064   4.659   0.118
 1188TIP3   OH2 3520   1.401   5.633   3.526
 1188TIP3    H1 3521   1.350   5.691   3.582
 1188TIP3    H2 3522   1.491   5.664   3.535
 1189TIP3   OH2 3523   3.177   3.595   2.667
 1189TIP3    H1 3524   3.196   3.689   2.673
 1189TIP3    H2 3525   3.083   3.589   2.678
 1190TIP3   OH2 3526   6.516   6.290   1.399
 1190TIP3    H1 3527   6.606   6.256   1.403
 1190TIP3    H2 3528   6.497   6.319   1.488
 1191TIP3   OH2 3529   6.298   6.671   1.076
 1191TIP3    H1 3530   6.337   6.591   1.109
 1191TIP3    H2 3531   6.352   6.696   1.001
 1192TIP3   OH2 3532   3.611   3.840   0.972
 1192TIP3    H1 3533   3.663   3.903   0.922
 1192TIP3    H2 3534   3.534   3.889   1.000
 1193TIP3   OH2 3535   0.276   0.667   3.461
 1193TIP3    H1 3536   0.189   0.706   3.454
 1193TIP3    H2 3537   0.271   0.612   3.539
 1194TIP3   OH2 3538   4.119   5.807   1.783
 1194TIP3    H1 3539   4.095   5.757   1.861
 1194TIP3    H2 3540   4.118   5.898   1.812
 1195TIP3   OH2 3541   4.931   1.089   3.127
 1195TIP3    H1 3542   4.896   1.021   3.068
 1195TIP3    H2 3543   5.022   1.063   3.142
 1196TIP3   OH2 3544   3.021   0.933   1.827
 1196TIP3    H1 3545   2.989   0.881   1.753
 1196TIP3    H2 3546   3.115   0.915   1.830
 1197TIP3   OH2 3547   0.965   7.654   0.659
 1197TIP3    H1 3548   1.021   7.637   0.583
 1197TIP3    H2 3549   0.936   7.568   0.688
 1198TIP3   OH2 3550   3.101   5.147   6.695
 1198TIP3    H1 3551   3.136   5.179   6.778
 1198TIP3    H2 3552   3.027   5.205   6.676
 1199TIP3   OH2 3553   0.805   5.132   4.126
 1199TIP3    H1 3554   0.736   5.096   4.181
 1199TIP3    H2 3555   0.764   5.206   4.081
 1200TIP3   OH2 3556   2.548   2.949   5.690
 1200TIP3    H1 3557   2.597   3.020   5.731
 1200TIP3    H2 3558   2.561   2.874   5.748
 1201TIP3   OH2 3559   0.225   2.995   0.697
 1201TIP3    H1 3560   0.225   2.903   0.722
 1201TIP3    H2 3561   0.318   3.017   0.689
 1202TIP3   OH2 3562   0.917   6.891   6.489
 1202TIP3    H1 3563   0.985   6.824   6.497
 1202TIP3    H2 3564   0.961   6.973   6.513
 1203TIP3   OH2 3565   6.041   5.452   3.424
 1203TIP3    H1 3566   6.027   5.357   3.432
 1203TIP3    H2 3567   5.965   5.491   3.468
 1204TIP3   OH2 3568   1.908   6.201   0.332
 1204TIP3    H1 3569   1.822   6.179   0.296
 1204TIP3    H2 3570   1.968   6.189   0.259
 1205TIP3   OH2 3571   2.563   5.073   2.002
 1205TIP3    H1 3572   2.548   5.165   1.980
 1205TIP3    H2 3573   2.652   5.071   2.037
 1206TIP3   OH2 3574   7.266   3.729   0.858
 1206TIP3    H1 3575   7.181   3.770   0.870
 1206TIP3    H2 3576   7.328   3.802   0.855
 1207TIP3   OH2 3577   4.503   4.638   1.859
 1207TIP3    H1 3578   4.517   4.551   1.822
 1207TIP3    H2 3579   4.586   4.683   1.846
 1208TIP3   OH2 3580   4.900   0.464   0.188
 1208TIP3    H1 3581   4.833   0.527   0.215
 1208TIP3    H2 3582   4.981   0.515   0.189
 1209TIP3   OH2 3583   3.063   2.925   0.304
 1209TIP3    H1 3584   3.144   2.976   0.299
 1209TIP3    H2 3585   2.999   2.975   0.253
 1210TIP3   OH2 3586   7.470   7.184   1.385
 1210TIP3    H1 3587   7.539   7.157   1.444
 1210TIP3    H2 3588   7.391   7.188   1.440
 1211TIP3   OH2 3589   0.403   2.339   4.619
 1211TIP3    H1 3590   0.445   2.375   4.698
 1211TIP3    H2 3591   0.472   2.286   4.578
 1212TIP3   OH2 3592   7.334   2.917   6.247
 1212TIP3    H1 3593   7.288   2.939   6.328
 1212TIP3    H2 3594   7.271   2.936   6.177
 1213TIP3   OH2 3595   3.902   2.831   6.514
 1213TIP3    H1 3596   3.837   2.804   6.579
 1213TIP3    H2 3597   3.909   2.926   6.525
 1214TIP3   OH2 3598   1.895   3.532   4.857
 1214TIP3    H1 3599   1.851   3.477   4.921
 1214TIP3    H2 3600   1.968   3.571   4.906
 1215TIP3   OH2 3601   5.230   4.112   1.585
 1215TIP3    H1 3602   5.310   4.121   1.638
 1215TIP3    H2 3603   5.205   4.020   1.594
 1216TIP3   OH2 3604   0.624   1.617   4.139
 1216TIP3    H1 3605   0.588   1.542   4.186
 1216TIP3    H2 3606   0.710   1.631   4.179
 1217TIP3   OH2 3607   5.174   4.779   0.250
 1217TIP3    H1 3608   5.193   4.818   0.336
 1217TIP3    H2 3609   5.142   4.852   0.197
 1218TIP3   OH2 3610   0.682   5.415   4.102
 1218TIP3    H1 3611   0.755   5.439   4.045
 1218TIP3    H2 3612   0.620   5.488   4.094
 1219TIP3   OH2 3613   6.744   1.586   4.008
 1219TIP3    H1 3614   6.747   1.658   3.946
 1219TIP3    H2 3615   6.651   1.581   4.034
 1220TIP3   OH2 3616   6.339   0.521   1.709
 1220TIP3    H1 3617   6.353   0.462   1.782
 1220TIP3    H2 3618   6.245   0.540   1.711
 1221TIP3   OH2 3619   6.521   6.607   4.926
 1221TIP3    H1 3620   6.479   6.689   4.949
 1221TIP3    H2 3621   6.449   6.546   4.909
 1222TIP3   OH2 3622   7.006   2.759   6.009
 1222TIP3    H1 3623   6.999   2.664   6.015
 1222TIP3    H2 3624   6.919   2.791   6.035
 1223TIP3   OH2 3625   3.160   5.002   5.953
 1223TIP3    H1 3626   3.082   5.054   5.933
 1223TIP3    H2 3627   3.234   5.059   5.930
 1224TIP3   OH2 3628   7.575   4.151   6.053
 1224TIP3    H1 3629   7.659   4.109   6.036
 1224TIP3    H2 3630   7.534   4.097   6.121
 1225TIP3   OH2 3631   1.043   3.605   1.054
 1225TIP3    H1 3632   1.033   3.607   0.958
 1225TIP3    H2 3633   1.131   3.570   1.067
 1226TIP3   OH2 3634   3.042   6.410   0.133
 1226TIP3    H1 3635   3.088   6.326   0.144
 1226TIP3    H2 3636   2.951   6.385   0.116
 1227TIP3   OH2 3637   5.784   4.467   3.069
 1227TIP3    H1 3638   5.703   4.502   3.031
 1227TIP3    H2 3639   5.786   4.505   3.157
 1228TIP3   OH2 3640   5.662   5.962   6.314
 1228TIP3    H1 3641   5.707   5.925   6.390
 1228TIP3    H2 3642   5.632   6.048   6.342
 1229TIP3   OH2 3643   3.921   4.714   5.423
 1229TIP3    H1 3644   3.961   4.774   5.487
 1229TIP3    H2 3645   3.989   4.702   5.357
 1230TIP3   OH2 3646   3.064   1.972   5.590
 1230TIP3    H1 3647   3.107   1.965   5.676
 1230TIP3    H2 3648   3.132   1.948   5.527
 1231TIP3   OH2 3649   7.070   1.626   5.702
 1231TIP3    H1 3650   7.130   1.665   5.765
 1231TIP3    H2 3651   7.080   1.532   5.714
 1232TIP3   OH2 3652   4.192   4.356   6.676
 1232TIP3    H1 3653   4.205   4.291   6.607
 1232TIP3    H2 3654   4.167   4.436   6.630
 1233TIP3   OH2 3655   5.192   0.831   1.468
 1233TIP3    H1 3656   5.125   0.863   1.408
 1233TIP3    H2 3657   5.146   0.770   1.526
 1234TIP3   OH2 3658   0.951   4.961   3.919
 1234TIP3    H1 3659   0.907   5.022   3.979
 1234TIP3    H2 3660   0.926   4.991   3.832
 1235TIP3   OH2 3661   4.642   4.279   6.437
 1235TIP3    H1 3662   4.602   4.266   6.351
 1235TIP3    H2 3663   4.596   4.216   6.493
 1236TIP3   OH2 3664   2.173   4.957   2.146
 1236TIP3    H1 3665   2.147   4.895   2.214
 1236TIP3    H2 3666   2.170   5.043   2.188
 1237TIP3   OH2 3667   0.415   3.901   0.781
 1237TIP3    H1 3668   0.380   3.826   0.830
 1237TIP3    H2 3669   0.502   3.914   0.818
 1238TIP3   OH2 3670   4.992   6.827   5.606
 1238TIP3    H1 3671   5.080   6.865   5.615
 1238TIP3    H2 3672   4.996   6.773   5.527
 1239TIP3   OH2 3673   7.709   5.613   3.273
 1239TIP3    H1 3674   7.678   5.701   3.294
 1239TIP3    H2 3675   7.677   5.558   3.345
 1240TIP3   OH2 3676   0.481   0.197   1.673
 1240TIP3    H1 3677   0.393   0.187   1.636
 1240TIP3    H2 3678   0.537   0.143   1.617
 1241TIP3   OH2 3679   5.620   5.901   3.864
 1241TIP3    H1 3680   5.524   5.903   3.864
 1241TIP3    H2 3681   5.644   5.913   3.955
 1242TIP3   OH2 3682   7.366   4.787   4.978
 1242TIP3    H1 3683   7.452   4.825   4.994
 1242TIP3    H2 3684   7.383   4.712   4.921
 1243TIP3   OH2 3685   3.480   6.928   3.594
 1243TIP3    H1 3686   3.409   6.932   3.531
 1243TIP3    H2 3687   3.505   7.020   3.608
 1244TIP3   OH2 3688   6.936   1.804   3.058
 1244TIP3    H1 3689   6.852   1.845   3.082
 1244TIP3    H2 3690   7.002   1.861   3.097
 1245TIP3   OH2 3691   4.820   6.054   6.424
 1245TIP3    H1 3692   4.901   6.073   6.470
 1245TIP3    H2 3693   4.756   6.039   6.493
 1246TIP3   OH2 3694   6.613   7.528   2.425
 1246TIP3    H1 3695   6.691   7.478   2.451
 1246TIP3    H2 3696   6.648   7.607   2.383
 1247TIP3   OH2 3697   6.897   3.264   0.381
 1247TIP3    H1 3698   6.966   3.202   0.359
 1247TIP3    H2 3699   6.943   3.348   0.388
 1248TIP3   OH2 3700   1.947   6.385   1.874
 1248TIP3    H1 3701   1.910   6.338   1.799
 1248TIP3    H2 3702   1.961   6.317   1.940
 1249TIP3   OH2 3703   0.147   5.435   3.699
 1249TIP3    H1 3704   0.061   5.449   3.738
 1249TIP3    H2 3705   0.189   5.521   3.701
 1250TIP3   OH2 3706   5.720   2.810   5.601
 1250TIP3    H1 3707   5.729   2.867   5.677
 1250TIP3    H2 3708   5.647   2.847   5.552
 1251TIP3   OH2 3709   4.725   6.846   0.339
 1251TIP3    H1 3710   4.641   6.801   0.329
 1251TIP3    H2 3711   4.702   6.933   0.372
 1252TIP3   OH2 3712   5.610   0.526   3.504
 1252TIP3    H1 3713   5.703   0.520   3.526
 1252TIP3    H2 3714   5.590   0.441   3.464
 1253TIP3   OH2 3715   2.843   7.059   2.352
 1253TIP3    H1 3716   2.898   7.133   2.375
 1253TIP3    H2 3717   2.899   7.000   2.302
 1254TIP3   OH2 3718   0.665   6.962   2.464
 1254TIP3    H1 3719   0.724   6.887   2.467
 1254TIP3    H2 3720   0.671   7.002   2.551
 1255TIP3   OH2 3721   7.271   6.690   5.220
 1255TIP3    H1 3722   7.209   6.624   5.250
 1255TIP3    H2 3723   7.296   6.738   5.299
 1256TIP3   OH2 3724   2.893   4.743   6.095
 1256TIP3    H1 3725   2.888   4.802   6.020
 1256TIP3    H2 3726   2.832   4.672   6.073
 1257TIP3   OH2 3727   6.525   4.492   3.263
 1257TIP3    H1 3728   6.528   4.437   3.342
 1257TIP3    H2 3729   6.551   4.433   3.192
 1258TIP3   OH2 3730   4.186   6.365   1.998
 1258TIP3    H1 3731   4.102   6.321   1.995
 1258TIP3    H2 3732   4.166   6.455   2.024
 1259TIP3   OH2 3733   5.118   3.847   3.273
 1259TIP3    H1 3734   5.047   3.796   3.313
 1259TIP3    H2 3735   5.079   3.882   3.193
 1260TIP3   OH2 3736   6.615   5.854   3.417
 1260TIP3    H1 3737   6.592   5.941   3.450
 1260TIP3    H2 3738   6.651   5.871   3.329
 1261TIP3   OH2 3739   1.878   3.574   4.188
 1261TIP3    H1 3740   1.918   3.652   4.149
 1261TIP3    H2 3741   1.866   3.597   4.281
 1262TIP3   OH2 3742   4.559   6.031   3.814
 1262TIP3    H1 3743   4.628   6.094   3.792
 1262TIP3    H2 3744   4.582   5.999   3.901
 1263TIP3   OH2 3745   1.363   3.113   6.023
 1263TIP3    H1 3746   1.400   3.026   6.035
 1263TIP3    H2 3747   1.359   3.150   6.111
 1264TIP3   OH2 3748   0.358   4.311   5.131
 1264TIP3    H1 3749   0.406   4.383   5.170
 1264TIP3    H2 3750   0.397   4.299   5.045
 1265TIP3   OH2 3751   2.030   6.128   5.320
 1265TIP3    H1 3752   2.068   6.214   5.335
 1265TIP3    H2 3753   1.997   6.132   5.230
 1266TIP3   OH2 3754   1.034   6.671   1.780
 1266TIP3    H1 3755   0.984   6.660   1.861
 1266TIP3    H2 3756   1.057   6.763   1.778
 1267TIP3   OH2 3757   5.267   3.437   3.768
 1267TIP3    H1 3758   5.290   3.386   3.691
 1267TIP3    H2 3759   5.204   3.502   3.737
 1268TIP3   OH2 3760   5.019   2.036   4.690
 1268TIP3    H1 3761   5.112   2.041   4.667
 1268TIP3    H2 3762   4.977   2.102   4.635
 1269TIP3   OH2 3763   7.682   2.982   2.273
 1269TIP3    H1 3764   7.700   3.045   2.202
 1269TIP3    H2 3765   7.616   3.026   2.327
 1270TIP3   OH2 3766   4.880   7.328   3.707
 1270TIP3    H1 3767   4.871   7.313   3.613
 1270TIP3    H2 3768   4.859   7.244   3.747
 1271TIP3   OH2 3769   0.392   4.028   6.431
 1271TIP3    H1 3770   0.414   4.058   6.519
 1271TIP3    H2 3771   0.323   3.963   6.444
 1272TIP3   OH2 3772   6.890   7.050   4.972
 1272TIP3    H1 3773   6.899   7.057   4.877
 1272TIP3    H2 3774   6.806   7.091   4.991
 1273TIP3   OH2 3775   0.196   2.509   6.119
 1273TIP3    H1 3776   0.210   2.518   6.025
 1273TIP3    H2 3777   0.126   2.445   6.127
 1274TIP3   OH2 3778   6.093   2.392   4.276
 1274TIP3    H1 3779   6.112   2.450   4.349
 1274TIP3    H2 3780   5.998   2.393   4.269
 1275TIP3   OH2 3781   7.160   2.916   6.469
 1275TIP3    H1 3782   7.194   2.831   6.495
 1275TIP3    H2 3783   7.086   2.895   6.412
 1276TIP3   OH2 3784   3.717   2.892   3.483
 1276TIP3    H1 3785   3.628   2.863   3.465
 1276TIP3    H2 3786   3.711   2.988   3.487
 1277TIP3   OH2 3787   6.956   0.361   2.325
 1277TIP3    H1 3788   6.990   0.387   2.239
 1277TIP3    H2 3789   7.032   0.322   2.369
 1278TIP3   OH2 3790   0.413   4.539   2.404
 1278TIP3    H1 3791   0.447   4.456   2.440
 1278TIP3    H2 3792   0.444   4.541   2.314
 1279TIP3   OH2 3793   7.882   3.443   4.102
 1279TIP3    H1 3794   7.910   3.404   4.020
 1279TIP3    H2 3795   7.957   3.494   4.131
 1280TIP3   OH2 3796   5.277   1.321   5.032
 1280TIP3    H1 3797   5.282   1.402   5.084
 1280TIP3    H2 3798   5.186   1.294   5.039
 1281TIP3   OH2 3799   2.840   3.332   3.595
 1281TIP3    H1 3800   2.926   3.371   3.585
 1281TIP3    H2 3801   2.779   3.406   3.592
 1282TIP3   OH2 3802   1.145   1.073   4.419
 1282TIP3    H1 3803   1.101   0.988   4.418
 1282TIP3    H2 3804   1.078   1.135   4.446
 1283TIP3   OH2 3805   1.190   0.677   6.073
 1283TIP3    H1 3806   1.258   0.626   6.030
 1283TIP3    H2 3807   1.226   0.696   6.160
 1284TIP3   OH2 3808   0.265   7.221   0.596
 1284TIP3    H1 3809   0.186   7.199   0.646
 1284TIP3    H2 3810   0.232   7.249   0.511
 1285TIP3   OH2 3811   5.835   0.463   3.641
 1285TIP3    H1 3812   5.851   0.558   3.648
 1285TIP3    H2 3813   5.904   0.424   3.695
 1286TIP3   OH2 3814   7.690   6.429   5.621
 1286TIP3    H1 3815   7.728   6.355   5.669
 1286TIP3    H2 3816   7.766   6.472   5.581
 1287TIP3   OH2 3817   3.260   2.586   3.072
 1287TIP3    H1 3818   3.265   2.513   3.011
 1287TIP3    H2 3819   3.333   2.643   3.047
 1288TIP3   OH2 3820   2.210   1.657   2.623
 1288TIP3    H1 3821   2.267   1.709   2.680
 1288TIP3    H2 3822   2.240   1.676   2.534
 1289TIP3   OH2 3823   3.564   1.106   2.886
 1289TIP3    H1 3824   3.501   1.076   2.951
 1289TIP3    H2 3825   3.649   1.079   2.921
 1290TIP3   OH2 3826   2.426   2.199   2.213
 1290TIP3    H1 3827   2.356   2.196   2.279
 1290TIP3    H2 3828   2.503   2.168   2.259
 1291TIP3   OH2 3829   4.300   3.454   0.903
 1291TIP3    H1 3830   4.311   3.399   0.981
 1291TIP3    H2 3831   4.376   3.433   0.848
 1292TIP3   OH2 3832   6.411   5.893   1.991
 1292TIP3    H1 3833   6.317   5.893   1.970
 1292TIP3    H2 3834   6.454   5.917   1.909
 1293TIP3   OH2 3835   1.641   0.893   2.033
 1293TIP3    H1 3836   1.557   0.851   2.019
 1293TIP3    H2 3837   1.704   0.821   2.036
 1294TIP3   OH2 3838   3.333   3.996   4.843
 1294TIP3    H1 3839   3.324   3.965   4.752
 1294TIP3    H2 3840   3.376   4.081   4.835
 1295TIP3   OH2 3841   5.089   2.813   1.660
 1295TIP3    H1 3842   4.998   2.790   1.673
 1295TIP3    H2 3843   5.128   2.813   1.748
 1296TIP3   OH2 3844   7.799   4.349   0.503
 1296TIP3    H1 3845   7.750   4.425   0.473
 1296TIP3    H2 3846   7.835   4.375   0.588
 1297TIP3   OH2 3847   2.870   0.615   6.654
 1297TIP3    H1 3848   2.813   0.538   6.641
 1297TIP3    H2 3849   2.836   0.657   6.732
 1298TIP3   OH2 3850   4.916   2.387   0.795
 1298TIP3    H1 3851   4.918   2.376   0.700
 1298TIP3    H2 3852   4.849   2.454   0.811
 1299TIP3   OH2 3853   4.249   5.184   0.064
 1299TIP3    H1 3854   4.300   5.162  -0.014
 1299TIP3    H2 3855   4.217   5.100   0.097
 1300TIP3   OH2 3856   2.918   5.442   1.992
 1300TIP3    H1 3857   2.887   5.437   2.083
 1300TIP3    H2 3858   2.876   5.519   1.957
 1301TIP3   OH2 3859   2.552   7.148   1.113
 1301TIP3    H1 3860   2.640   7.144   1.075
 1301TIP3    H2 3861   2.567   7.172   1.205
 1302TIP3   OH2 3862   4.982   2.178   5.034
 1302TIP3    H1 3863   4.925   2.197   5.108
 1302TIP3    H2 3864   5.071   2.196   5.066
 1303TIP3   OH2 3865   0.550   5.421   6.378
 1303TIP3    H1 3866   0.627   5.402   6.431
 1303TIP3    H2 3867   0.510   5.498   6.421
 1304TIP3   OH2 3868   5.805   7.473   2.870
 1304TIP3    H1 3869   5.841   7.559   2.893
 1304TIP3    H2 3870   5.777   7.481   2.779
 1305TIP3   OH2 3871   6.144   6.282   1.271
 1305TIP3    H1 3872   6.153   6.370   1.236
 1305TIP3    H2 3873   6.133   6.294   1.365
 1306TIP3   OH2 3874   3.178   7.442   2.131
 1306TIP3    H1 3875   3.223   7.425   2.214
 1306TIP3    H2 3876   3.193   7.534   2.113
 1307TIP3   OH2 3877   3.470   4.704   1.026
 1307TIP3    H1 3878   3.435   4.615   1.038
 1307TIP3    H2 3879   3.517   4.699   0.943
 1308TIP3   OH2 3880   5.220   6.405   6.584
 1308TIP3    H1 3881   5.179   6.346   6.521
 1308TIP3    H2 3882   5.277   6.461   6.532
 1309TIP3   OH2 3883   4.111   2.651   0.821
 1309TIP3    H1 3884   4.034   2.681   0.869
 1309TIP3    H2 3885   4.082   2.571   0.776
 1310TIP3   OH2 3886   3.231   3.563   5.835
 1310TIP3    H1 3887   3.282   3.642   5.853
 1310TIP3    H2 3888   3.260   3.535   5.748
 1311TIP3   OH2 3889   5.138   4.145   5.352
 1311TIP3    H1 3890   5.216   4.089   5.348
 1311TIP3    H2 3891   5.065   4.086   5.337
 1312TIP3   OH2 3892   7.551   2.489   2.995
 1312TIP3    H1 3893   7.587   2.411   3.037
 1312TIP3    H2 3894   7.628   2.543   2.976
 1313TIP3   OH2 3895   1.132   7.564   6.507
 1313TIP3    H1 3896   1.125   7.515   6.425
 1313TIP3    H2 3897   1.167   7.649   6.482
 1314TIP3   OH2 3898   1.759   4.390   1.884
 1314TIP3    H1 3899   1.719   4.304   1.895
 1314TIP3    H2 3900   1.779   4.418   1.973
 1315TIP3   OH2 3901   2.585   1.767   3.005
 1315TIP3    H1 3902   2.566   1.858   3.027
 1315TIP3    H2 3903   2.681   1.761   3.009
 1316TIP3   OH2 3904   1.364   2.113   5.002
 1316TIP3    H1 3905   1.398   2.024   5.014
 1316TIP3    H2 3906   1.275   2.100   4.970
 1317TIP3   OH2 3907   3.904   1.660   3.196
 1317TIP3    H1 3908   3.926   1.702   3.113
 1317TIP3    H2 3909   3.978   1.681   3.254
 1318TIP3   OH2 3910   6.607   6.390   3.805
 1318TIP3    H1 3911   6.636   6.354   3.721
 1318TIP3    H2 3912   6.668   6.460   3.825
 1319TIP3   OH2 3913   1.044   3.527   0.375
 1319TIP3    H1 3914   1.075   3.483   0.454
 1319TIP3    H2 3915   0.995   3.603   0.407
 1320TIP3   OH2 3916   6.185   2.928   3.945
 1320TIP3    H1 3917   6.175   2.889   3.858
 1320TIP3    H2 3918   6.096   2.931   3.980
 1321TIP3   OH2 3919   0.922   3.358   1.581
 1321TIP3    H1 3920   0.888   3.281   1.535
 1321TIP3    H2 3921   1.010   3.370   1.544
 1322TIP3   OH2 3922   3.422   0.318   0.151
 1322TIP3    H1 3923   3.447   0.380   0.082
 1322TIP3    H2 3924   3.491   0.252   0.149
 1323TIP3   OH2 3925   4.089   1.574   3.965
 1323TIP3    H1 3926   4.145   1.505   3.931
 1323TIP3    H2 3927   4.020   1.584   3.899
 1324TIP3   OH2 3928   1.220   7.642   1.535
 1324TIP3    H1 3929   1.303   7.612   1.573
 1324TIP3    H2 3930   1.244   7.717   1.480
 1325TIP3   OH2 3931   3.156   0.265   1.404
 1325TIP3    H1 3932   3.137   0.227   1.490
 1325TIP3    H2 3933   3.117   0.204   1.341
 1326TIP3   OH2 3934   7.893   0.449   6.720
 1326TIP3    H1 3935   7.875   0.403   6.638
 1326TIP3    H2 3936   7.917   0.537   6.693
 1327TIP3   OH2 3937   6.991   7.331   0.689
 1327TIP3    H1 3938   6.966   7.407   0.636
 1327TIP3    H2 3939   7.045   7.278   0.630
 1328TIP3   OH2 3940   2.046   2.171   0.668
 1328TIP3    H1 3941   2.073   2.231   0.598
 1328TIP3    H2 3942   2.110   2.100   0.664
 1329TIP3   OH2 3943   0.142   3.218   1.614
 1329TIP3    H1 3944   0.093   3.187   1.537
 1329TIP3    H2 3945   0.156   3.311   1.597
 1330TIP3   OH2 3946   6.771   7.513   4.470
 1330TIP3    H1 3947   6.823   7.501   4.390
 1330TIP3    H2 3948   6.739   7.603   4.464
 1331TIP3   OH2 3949   0.677   5.000   1.233
 1331TIP3    H1 3950   0.740   4.955   1.289
 1331TIP3    H2 3951   0.678   5.091   1.265
 1332TIP3   OH2 3952   4.290   2.776   5.639
 1332TIP3    H1 3953   4.274   2.733   5.724
 1332TIP3    H2 3954   4.235   2.854   5.642
 1333TIP3   OH2 3955   7.478   1.368   3.824
 1333TIP3    H1 3956   7.512   1.451   3.792
 1333TIP3    H2 3957   7.400   1.351   3.770
 1334TIP3   OH2 3958   1.813   6.023   2.215
 1334TIP3    H1 3959   1.743   5.975   2.260
 1334TIP3    H2 3960   1.888   5.964   2.217
 1335TIP3   OH2 3961   6.232   5.777   4.296
 1335TIP3    H1 3962   6.266   5.848   4.350
 1335TIP3    H2 3963   6.303   5.712   4.295
 1336TIP3   OH2 3964   5.015   3.053   4.896
 1336TIP3    H1 3965   5.013   2.958   4.899
 1336TIP3    H2 3966   5.092   3.074   4.844
 1337TIP3   OH2 3967   0.314   1.415   2.746
 1337TIP3    H1 3968   0.257   1.370   2.684
 1337TIP3    H2 3969   0.265   1.417   2.828
 1338TIP3   OH2 3970   6.730   0.141   6.462
 1338TIP3    H1 3971   6.749   0.205   6.530
 1338TIP3    H2 3972   6.722   0.058   6.509
 1339TIP3   OH2 3973   7.485   7.368   4.149
 1339TIP3    H1 3974   7.442   7.446   4.113
 1339TIP3    H2 3975   7.433   7.295   4.117
 1340TIP3   OH2 3976   2.603   3.638   4.848
 1340TIP3    H1 3977   2.663   3.572   4.812
 1340TIP3    H2 3978   2.567   3.597   4.926
 1341TIP3   OH2 3979   3.594   4.957   0.370
 1341TIP3    H1 3980   3.558   4.978   0.284
 1341TIP3    H2 3981   3.650   5.031   0.392
 1342TIP3   OH2 3982   5.641   4.647   0.874
 1342TIP3    H1 3983   5.714   4.585   0.877
 1342TIP3    H2 3984   5.596   4.636   0.958
 1343TIP3   OH2 3985   1.085   4.387   0.711
 1343TIP3    H1 3986   0.998   4.412   0.744
 1343TIP3    H2 3987   1.139   4.377   0.789
 1344TIP3   OH2 3988   3.042   0.126   5.788
 1344TIP3    H1 3989   2.987   0.050   5.809
 1344TIP3    H2 3990   3.018   0.148   5.698
 1345TIP3   OH2 3991   7.127   5.765   3.856
 1345TIP3    H1 3992   7.173   5.692   3.813
 1345TIP3    H2 3993   7.127   5.742   3.949
 1346TIP3   OH2 3994   1.420   3.905   0.881
 1346TIP3    H1 3995   1.395   3.949   0.801
 1346TIP3    H2 3996   1.466   3.826   0.852
 1347TIP3   OH2 3997   5.380   1.252   5.786
 1347TIP3    H1 3998   5.333   1.249   5.703
 1347TIP3    H2 3999   5.348   1.177   5.835
 1348TIP3   OH2 4000   2.898   3.105   0.159
 1348TIP3    H1 4001   2.925   3.194   0.179
 1348TIP3    H2 4002   2.915   3.095   0.065
 1349TIP3   OH2 4003   0.639   7.670   2.213
 1349TIP3    H1 4004   0.684   7.712   2.140
 1349TIP3    H2 4005   0.673   7.580   2.213
 1350TIP3   OH2 4006   5.337   3.482   0.150
 1350TIP3    H1 4007   5.258   3.534   0.164
 1350TIP3    H2 4008   5.325   3.406   0.207
 1351TIP3   OH2 4009   3.797   3.813   5.772
 1351TIP3    H1 4010   3.769   3.900   5.746
 1351TIP3    H2 4011   3.720   3.757   5.760
 1352TIP3   OH2 4012   0.228   6.695   0.137
 1352TIP3    H1 4013   0.172   6.681   0.214
 1352TIP3    H2 4014   0.259   6.607   0.115
 1353TIP3   OH2 4015   3.737   4.188   3.472
 1353TIP3    H1 4016   3.743   4.195   3.377
 1353TIP3    H2 4017   3.696   4.103   3.488
 1354TIP3   OH2 4018   7.705   6.840   3.151
 1354TIP3    H1 4019   7.749   6.853   3.068
 1354TIP3    H2 4020   7.713   6.924   3.196
 1355TIP3   OH2 4021   3.905   7.575   3.452
 1355TIP3    H1 4022   3.835   7.601   3.512
 1355TIP3    H2 4023   3.859   7.526   3.383
 1356TIP3   OH2 4024   0.267   0.712   4.525
 1356TIP3    H1 4025   0.199   0.686   4.587
 1356TIP3    H2 4026   0.266   0.644   4.458
 1357TIP3   OH2 4027   5.462   7.385   3.828
 1357TIP3    H1 4028   5.370   7.392   3.857
 1357TIP3    H2 4029   5.505   7.336   3.899
 1358TIP3   OH2 4030   4.805   0.068   0.893
 1358TIP3    H1 4031   4.809  -0.019   0.856
 1358TIP3    H2 4032   4.818   0.127   0.819
 1359TIP3   OH2 4033   5.978   3.667   2.337
 1359TIP3    H1 4034   6.067   3.686   2.306
 1359TIP3    H2 4035   5.977   3.571   2.348
 1360TIP3   OH2 4036   6.514   2.463   1.609
 1360TIP3    H1 4037   6.568   2.424   1.541
 1360TIP3    H2 4038   6.558   2.545   1.632
 1361TIP3   OH2 4039   2.086   0.575   4.611
 1361TIP3    H1 4040   2.118   0.658   4.645
 1361TIP3    H2 4041   2.131   0.509   4.664
 1362TIP3   OH2 4042   4.592   4.580   0.254
 1362TIP3    H1 4043   4.584   4.532   0.171
 1362TIP3    H2 4044   4.502   4.587   0.286
 1363TIP3   OH2 4045   7.645   3.031   3.071
 1363TIP3    H1 4046   7.650   3.112   3.122
 1363TIP3    H2 4047   7.656   3.059   2.980
 1364TIP3   OH2 4048   2.972   1.735   0.626
 1364TIP3    H1 4049   2.911   1.763   0.558
 1364TIP3    H2 4050   2.956   1.795   0.699
 1365TIP3   OH2 4051   3.749   5.251   4.740
 1365TIP3    H1 4052   3.787   5.172   4.702
 1365TIP3    H2 4053   3.742   5.312   4.666
 1366TIP3   OH2 4054   6.794   3.080   5.134
 1366TIP3    H1 4055   6.809   3.118   5.048
 1366TIP3    H2 4056   6.811   2.987   5.123
 1367TIP3   OH2 4057   2.035   0.142   4.831
 1367TIP3    H1 4058   1.976   0.070   4.807
 1367TIP3    H2 4059   1.978   0.218   4.841
 1368TIP3   OH2 4060   7.716   4.934   3.155
 1368TIP3    H1 4061   7.748   4.945   3.065
 1368TIP3    H2 4062   7.746   5.013   3.201
 1369TIP3   OH2 4063   4.239   3.376   2.239
 1369TIP3    H1 4064   4.246   3.369   2.144
 1369TIP3    H2 4065   4.198   3.294   2.266
 1370TIP3   OH2 4066   6.443   6.176   5.138
 1370TIP3    H1 4067   6.530   6.139   5.153
 1370TIP3    H2 4068   6.443   6.202   5.046
 1371TIP3   OH2 4069   1.323   0.860   4.852
 1371TIP3    H1 4070   1.414   0.891   4.847
 1371TIP3    H2 4071   1.278   0.928   4.901
 1372TIP3   OH2 4072   1.977   5.916   1.289
 1372TIP3    H1 4073   1.986   5.992   1.230
 1372TIP3    H2 4074   2.064   5.875   1.289
 1373TIP3   OH2 4075   2.375   6.070   3.082
 1373TIP3    H1 4076   2.311   6.121   3.031
 1373TIP3    H2 4077   2.449   6.129   3.092
 1374TIP3   OH2 4078   0.981   0.911   5.243
 1374TIP3    H1 4079   0.914   0.979   5.244
 1374TIP3    H2 4080   0.945   0.842   5.187
 1375TIP3   OH2 4081   4.605   5.508   5.768
 1375TIP3    H1 4082   4.587   5.453   5.691
 1375TIP3    H2 4083   4.701   5.512   5.773
 1376TIP3   OH2 4084   5.664   2.209   2.831
 1376TIP3    H1 4085   5.688   2.257   2.752
 1376TIP3    H2 4086   5.714   2.127   2.825
 1377TIP3   OH2 4087   1.840   4.050   1.140
 1377TIP3    H1 4088   1.780   3.992   1.094
 1377TIP3    H2 4089   1.924   4.003   1.138
 1378TIP3   OH2 4090   0.782   0.349   4.040
 1378TIP3    H1 4091   0.820   0.321   3.956
 1378TIP3    H2 4092   0.848   0.407   4.078
 1379TIP3   OH2 4093   4.058   3.596   3.065
 1379TIP3    H1 4094   4.022   3.597   3.153
 1379TIP3    H2 4095   4.104   3.512   3.058
 1380TIP3   OH2 4096   1.352   0.094   1.855
 1380TIP3    H1 4097   1.389   0.013   1.889
 1380TIP3    H2 4098   1.419   0.160   1.873
 1381TIP3   OH2 4099   7.452   3.972   0.095
 1381TIP3    H1 4100   7.474   3.964   0.188
 1381TIP3    H2 4101   7.399   3.894   0.077
 1382TIP3   OH2 4102   1.919   3.423   0.458
 1382TIP3    H1 4103   1.932   3.352   0.396
 1382TIP3    H2 4104   1.995   3.480   0.447
 1383TIP3   OH2 4105   4.620   3.838   5.475
 1383TIP3    H1 4106   4.682   3.906   5.503
 1383TIP3    H2 4107   4.602   3.859   5.383
 1384TIP3   OH2 4108   1.100   5.114   2.994
 1384TIP3    H1 4109   1.092   5.041   2.933
 1384TIP3    H2 4110   1.083   5.192   2.941
 1385TIP3   OH2 4111   2.556   5.847   6.275
 1385TIP3    H1 4112   2.630   5.816   6.328
 1385TIP3    H2 4113   2.515   5.916   6.327
 1386TIP3   OH2 4114   1.466   7.575   6.394
 1386TIP3    H1 4115   1.506   7.637   6.455
 1386TIP3    H2 4116   1.435   7.503   6.449
 1387TIP3   OH2 4117   7.791   3.008   5.900
 1387TIP3    H1 4118   7.718   3.005   5.962
 1387TIP3    H2 4119   7.865   3.038   5.952
 1388TIP3   OH2 4120   2.688   6.671   2.910
 1388TIP3    H1 4121   2.657   6.675   3.001
 1388TIP3    H2 4122   2.780   6.698   2.915
 1389TIP3   OH2 4123   1.069   3.241   1.133
 1389TIP3    H1 4124   1.133   3.234   1.063
 1389TIP3    H2 4125   1.042   3.150   1.149
 1390TIP3   OH2 4126   5.704   5.624   3.337
 1390TIP3    H1 4127   5.769   5.636   3.406
 1390TIP3    H2 4128   5.667   5.537   3.353
 1391TIP3   OH2 4129   8.101   7.692   0.766
 1391TIP3    H1 4130   8.073   7.666   0.853
 1391TIP3    H2 4131   8.037   7.759   0.739
 1392TIP3   OH2 4132   4.584   6.214   1.350
 1392TIP3    H1 4133   4.624   6.252   1.427
 1392TIP3    H2 4134   4.511   6.272   1.329
 1393TIP3   OH2 4135   4.969   3.138   5.548
 1393TIP3    H1 4136   4.885   3.183   5.551
 1393TIP3    H2 4137   5.001   3.140   5.639
 1394TIP3   OH2 4138   2.414   5.061   4.493
 1394TIP3    H1 4139   2.394   5.141   4.541
 1394TIP3    H2 4140   2.504   5.039   4.518
 1395TIP3   OH2 4141   6.565   7.191   0.539
 1395TIP3    H1 4142   6.644   7.146   0.508
 1395TIP3    H2 4143   6.493   7.145   0.495
 1396TIP3   OH2 4144   7.535   6.552   1.413
 1396TIP3    H1 4145   7.563   6.643   1.418
 1396TIP3    H2 4146   7.477   6.548   1.337
 1397TIP3   OH2 4147   4.706   4.803   1.813
 1397TIP3    H1 4148   4.795   4.770   1.804
 1397TIP3    H2 4149   4.708   4.889   1.771
 1398TIP3   OH2 4150   3.027   4.474   3.905
 1398TIP3    H1 4151   2.984   4.461   3.989
 1398TIP3    H2 4152   3.065   4.388   3.884
 1399TIP3   OH2 4153   3.527   6.736   0.530
 1399TIP3    H1 4154   3.464   6.679   0.486
 1399TIP3    H2 4155   3.533   6.701   0.619
 1400TIP3   OH2 4156   3.364   6.903   5.743
 1400TIP3    H1 4157   3.432   6.871   5.802
 1400TIP3    H2 4158   3.284   6.898   5.795
 1401TIP3   OH2 4159   2.776   7.320   4.351
 1401TIP3    H1 4160   2.862   7.305   4.310
 1401TIP3    H2 4161   2.774   7.413   4.369
 1402TIP3   OH2 4162   7.655   4.100   2.591
 1402TIP3    H1 4163   7.719   4.041   2.550
 1402TIP3    H2 4164   7.671   4.092   2.685
 1403TIP3   OH2 4165   5.915   5.095   1.847
 1403TIP3    H1 4166   5.990   5.079   1.790
 1403TIP3    H2 4167   5.845   5.122   1.787
 1404TIP3   OH2 4168   4.152   1.975   5.314
 1404TIP3    H1 4169   4.225   2.014   5.363
 1404TIP3    H2 4170   4.116   1.910   5.374
 1405TIP3   OH2 4171   7.182   5.483   3.390
 1405TIP3    H1 4172   7.211   5.418   3.455
 1405TIP3    H2 4173   7.222   5.565   3.420
 1406TIP3   OH2 4174   5.528   6.142   1.417
 1406TIP3    H1 4175   5.527   6.236   1.396
 1406TIP3    H2 4176   5.457   6.105   1.364
 1407TIP3   OH2 4177   1.235   0.954   5.710
 1407TIP3    H1 4178   1.183   0.885   5.669
 1407TIP3    H2 4179   1.220   0.943   5.804
 1408TIP3   OH2 4180   6.292   3.428   5.517
 1408TIP3    H1 4181   6.309   3.339   5.548
 1408TIP3    H2 4182   6.356   3.483   5.563
 1409TIP3   OH2 4183   1.221   5.782   6.130
 1409TIP3    H1 4184   1.208   5.690   6.153
 1409TIP3    H2 4185   1.239   5.825   6.214
 1410TIP3   OH2 4186   7.555   1.603   2.057
 1410TIP3    H1 4187   7.501   1.524   2.046
 1410TIP3    H2 4188   7.523   1.642   2.139
 1411TIP3   OH2 4189   0.354   2.743   3.866
 1411TIP3    H1 4190   0.420   2.750   3.935
 1411TIP3    H2 4191   0.319   2.654   3.876
 1412TIP3   OH2 4192   1.680   0.697   6.709
 1412TIP3    H1 4193   1.751   0.635   6.695
 1412TIP3    H2 4194   1.724   0.782   6.714
 1413TIP3   OH2 4195   5.126   3.577   5.128
 1413TIP3    H1 4196   5.218   3.566   5.101
 1413TIP3    H2 4197   5.093   3.488   5.140
 1414TIP3   OH2 4198   5.804   4.328   6.355
 1414TIP3    H1 4199   5.869   4.328   6.285
 1414TIP3    H2 4200   5.721   4.312   6.310
 1415TIP3   OH2 4201   3.764   0.323   6.360
 1415TIP3    H1 4202   3.714   0.284   6.288
 1415TIP3    H2 4203   3.803   0.402   6.322
 1416TIP3   OH2 4204   0.516   0.153   0.985
 1416TIP3    H1 4205   0.535   0.078   0.928
 1416TIP3    H2 4206   0.421   0.165   0.979
 1417TIP3   OH2 4207   2.352   3.914   0.148
 1417TIP3    H1 4208   2.395   3.829   0.141
 1417TIP3    H2 4209   2.381   3.961   0.070
 1418TIP3   OH2 4210   7.587   2.069   3.558
 1418TIP3    H1 4211   7.666   2.033   3.518
 1418TIP3    H2 4212   7.573   2.152   3.513
 1419TIP3   OH2 4213   8.231   4.220   6.731
 1419TIP3    H1 4214   8.306   4.279   6.735
 1419TIP3    H2 4215   8.241   4.163   6.807
 1420TIP3   OH2 4216   4.077   2.349   2.324
 1420TIP3    H1 4217   4.133   2.372   2.397
 1420TIP3    H2 4218   4.004   2.300   2.363
 1421TIP3   OH2 4219   8.254   0.928   0.273
 1421TIP3    H1 4220   8.284   0.941   0.183
 1421TIP3    H2 4221   8.238   0.834   0.279
 1422TIP3   OH2 4222   5.229   7.553   1.810
 1422TIP3    H1 4223   5.290   7.499   1.760
 1422TIP3    H2 4224   5.286   7.613   1.859
 1423TIP3   OH2 4225   3.725   0.386   0.360
 1423TIP3    H1 4226   3.685   0.332   0.428
 1423TIP3    H2 4227   3.650   0.422   0.311
 1424TIP3   OH2 4228   3.579   2.339   4.982
 1424TIP3    H1 4229   3.540   2.255   4.955
 1424TIP3    H2 4230   3.672   2.329   4.964
 1425TIP3   OH2 4231   8.121   3.659   1.365
 1425TIP3    H1 4232   8.070   3.586   1.332
 1425TIP3    H2 4233   8.100   3.732   1.306
 1426TIP3   OH2 4234   7.274   7.207   1.599
 1426TIP3    H1 4235   7.221   7.270   1.549
 1426TIP3    H2 4236   7.245   7.217   1.689
 1427TIP3   OH2 4237   7.279   0.857   4.386
 1427TIP3    H1 4238   7.261   0.874   4.478
 1427TIP3    H2 4239   7.374   0.846   4.381
 1428TIP3   OH2 4240   4.441   3.270   4.293
 1428TIP3    H1 4241   4.417   3.321   4.371
 1428TIP3    H2 4242   4.460   3.182   4.327
 1429TIP3   OH2 4243   7.534   0.586   6.268
 1429TIP3    H1 4244   7.613   0.604   6.319
 1429TIP3    H2 4245   7.463   0.592   6.332
 1430TIP3   OH2 4246   4.697   1.270   5.793
 1430TIP3    H1 4247   4.715   1.180   5.766
 1430TIP3    H2 4248   4.602   1.272   5.805
 1431TIP3   OH2 4249   5.174   1.183   6.269
 1431TIP3    H1 4250   5.093   1.203   6.315
 1431TIP3    H2 4251   5.180   1.248   6.200
 1432TIP3   OH2 4252   5.854   6.307   0.276
 1432TIP3    H1 4253   5.820   6.270   0.357
 1432TIP3    H2 4254   5.869   6.231   0.220
 1433TIP3   OH2 4255   0.895   5.414   4.601
 1433TIP3    H1 4256   0.866   5.341   4.546
 1433TIP3    H2 4257   0.860   5.394   4.688
 1434TIP3   OH2 4258   4.343   2.768   6.247
 1434TIP3    H1 4259   4.427   2.744   6.287
 1434TIP3    H2 4260   4.299   2.685   6.231
 1435TIP3   OH2 4261   6.313   5.531   1.728
 1435TIP3    H1 4262   6.347   5.589   1.660
 1435TIP3    H2 4263   6.232   5.573   1.756
 1436TIP3   OH2 4264   0.953   2.990   3.967
 1436TIP3    H1 4265   0.997   3.029   3.891
 1436TIP3    H2 4266   1.022   2.943   4.013
 1437TIP3   OH2 4267   6.480   0.679   0.286
 1437TIP3    H1 4268   6.548   0.652   0.347
 1437TIP3    H2 4269   6.405   0.702   0.342
 1438TIP3   OH2 4270   7.680   4.837   1.873
 1438TIP3    H1 4271   7.757   4.817   1.819
 1438TIP3    H2 4272   7.678   4.933   1.876
 1439TIP3   OH2 4273   2.558   0.426   6.233
 1439TIP3    H1 4274   2.614   0.459   6.163
 1439TIP3    H2 4275   2.469   0.435   6.199
 1440TIP3   OH2 4276   1.491   3.132   3.013
 1440TIP3    H1 4277   1.570   3.132   2.959
 1440TIP3    H2 4278   1.493   3.215   3.060
 1441TIP3   OH2 4279   0.203   1.191   4.183
 1441TIP3    H1 4280   0.285   1.152   4.154
 1441TIP3    H2 4281   0.186   1.261   4.119
 1442TIP3   OH2 4282   4.067   3.272   0.023
 1442TIP3    H1 4283   4.041   3.187   0.060
 1442TIP3    H2 4284   4.122   3.312   0.091
 1443TIP3   OH2 4285   8.082   4.096   1.569
 1443TIP3    H1 4286   8.165   4.122   1.609
 1443TIP3    H2 4287   8.016   4.142   1.619
 1444TIP3   OH2 4288   1.880   4.656   1.881
 1444TIP3    H1 4289   1.850   4.574   1.839
 1444TIP3    H2 4290   1.947   4.628   1.943
 1445TIP3   OH2 4291   2.159   4.485   0.573
 1445TIP3    H1 4292   2.200   4.469   0.658
 1445TIP3    H2 4293   2.074   4.441   0.578
 1446TIP3   OH2 4294   2.355   1.699   0.961
 1446TIP3    H1 4295   2.432   1.648   0.986
 1446TIP3    H2 4296   2.361   1.707   0.866
 1447TIP3   OH2 4297   4.775   5.383   5.284
 1447TIP3    H1 4298   4.776   5.475   5.259
 1447TIP3    H2 4299   4.763   5.336   5.202
 1448TIP3   OH2 4300   8.084   0.454   4.039
 1448TIP3    H1 4301   7.995   0.445   4.003
 1448TIP3    H2 4302   8.095   0.548   4.050
 1449TIP3   OH2 4303   6.262   5.840   4.016
 1449TIP3    H1 4304   6.179   5.884   3.995
 1449TIP3    H2 4305   6.246   5.796   4.100
 1450TIP3   OH2 4306   2.997   7.090   4.538
 1450TIP3    H1 4307   2.992   7.032   4.613
 1450TIP3    H2 4308   3.048   7.041   4.473
 1451TIP3   OH2 4309   5.221   2.631   2.804
 1451TIP3    H1 4310   5.215   2.565   2.735
 1451TIP3    H2 4311   5.193   2.585   2.883
 1452TIP3   OH2 4312   2.071   7.545   0.136
 1452TIP3    H1 4313   2.128   7.469   0.120
 1452TIP3    H2 4314   1.982   7.512   0.125
 1453TIP3   OH2 4315   2.463   3.055   1.190
 1453TIP3    H1 4316   2.422   2.968   1.183
 1453TIP3    H2 4317   2.524   3.058   1.117
 1454TIP3   OH2 4318   2.392   6.343   6.052
 1454TIP3    H1 4319   2.309   6.295   6.046
 1454TIP3    H2 4320   2.459   6.276   6.049
 1455TIP3   OH2 4321   4.625   4.649   0.682
 1455TIP3    H1 4322   4.625   4.564   0.724
 1455TIP3    H2 4323   4.542   4.689   0.708
 1456TIP3   OH2 4324   4.537   4.239   2.678
 1456TIP3    H1 4325   4.498   4.207   2.597
 1456TIP3    H2 4326   4.492   4.191   2.747
 1457TIP3   OH2 4327   5.524   5.727   5.182
 1457TIP3    H1 4328   5.455   5.790   5.161
 1457TIP3    H2 4329   5.580   5.772   5.245
 1458TIP3   OH2 4330   6.117   0.077   5.714
 1458TIP3    H1 4331   6.212   0.079   5.703
 1458TIP3    H2 4332   6.098   0.151   5.772
 1459TIP3   OH2 4333   5.717   2.670   6.619
 1459TIP3    H1 4334   5.759   2.655   6.703
 1459TIP3    H2 4335   5.769   2.739   6.578
 1460TIP3   OH2 4336   6.830   7.624   6.371
 1460TIP3    H1 4337   6.786   7.670   6.442
 1460TIP3    H2 4338   6.834   7.688   6.300
 1461TIP3   OH2 4339   1.673   4.961   1.137
 1461TIP3    H1 4340   1.583   4.973   1.107
 1461TIP3    H2 4341   1.695   5.044   1.179
 1462TIP3   OH2 4342   3.820   6.097   2.727
 1462TIP3    H1 4343   3.739   6.145   2.749
 1462TIP3    H2 4344   3.889   6.162   2.736
 1463TIP3   OH2 4345   3.098   4.715   3.351
 1463TIP3    H1 4346   3.052   4.722   3.435
 1463TIP3    H2 4347   3.177   4.665   3.370
 1464TIP3   OH2 4348   5.105   7.630   4.995
 1464TIP3    H1 4349   5.059   7.634   4.911
 1464TIP3    H2 4350   5.046   7.583   5.053
 1465TIP3   OH2 4351   6.642   7.251   4.515
 1465TIP3    H1 4352   6.550   7.249   4.491
 1465TIP3    H2 4353   6.666   7.343   4.513
 1466TIP3   OH2 4354   3.283   1.295   2.684
 1466TIP3    H1 4355   3.375   1.317   2.697
 1466TIP3    H2 4356   3.255   1.258   2.768
 1467TIP3   OH2 4357   1.761   7.627   4.422
 1467TIP3    H1 4358   1.689   7.566   4.404
 1467TIP3    H2 4359   1.819   7.617   4.346
 1468TIP3   OH2 4360   2.046   6.031   5.979
 1468TIP3    H1 4361   1.968   5.995   6.021
 1468TIP3    H2 4362   2.074   5.963   5.917
 1469TIP3   OH2 4363   5.487   7.510   4.755
 1469TIP3    H1 4364   5.412   7.474   4.803
 1469TIP3    H2 4365   5.510   7.442   4.692
 1470TIP3   OH2 4366   2.344   6.193   2.687
 1470TIP3    H1 4367   2.264   6.178   2.638
 1470TIP3    H2 4368   2.315   6.223   2.773
 1471TIP3   OH2 4369   4.073   2.825   2.974
 1471TIP3    H1 4370   4.097   2.763   3.043
 1471TIP3    H2 4371   3.985   2.855   2.998
 1472TIP3   OH2 4372   6.037   2.414   1.063
 1472TIP3    H1 4373   6.113   2.472   1.058
 1472TIP3    H2 4374   6.060   2.349   1.130
 1473TIP3   OH2 4375   6.282   7.446   5.844
 1473TIP3    H1 4376   6.218   7.517   5.844
 1473TIP3    H2 4377   6.266   7.399   5.926
 1474TIP3   OH2 4378   1.686   0.803   5.894
 1474TIP3    H1 4379   1.639   0.841   5.819
 1474TIP3    H2 4380   1.775   0.837   5.887
 1475TIP3   OH2 4381   2.665   3.434   0.012
 1475TIP3    H1 4382   2.725   3.499   0.049
 1475TIP3    H2 4383   2.614   3.403   0.086
 1476TIP3   OH2 4384   2.354   7.100   2.097
 1476TIP3    H1 4385   2.374   7.027   2.040
 1476TIP3    H2 4386   2.276   7.141   2.058
 1477TIP3   OH2 4387   3.103   6.719   6.748
 1477TIP3    H1 4388   3.061   6.802   6.728
 1477TIP3    H2 4389   3.041   6.673   6.804
 1478TIP3   OH2 4390   7.287   5.239   6.436
 1478TIP3    H1 4391   7.338   5.180   6.491
 1478TIP3    H2 4392   7.229   5.180   6.386
 1479TIP3   OH2 4393   7.212   5.559   5.628
 1479TIP3    H1 4394   7.252   5.473   5.637
 1479TIP3    H2 4395   7.118   5.544   5.639
 1480TIP3   OH2 4396   7.203   7.206   1.212
 1480TIP3    H1 4397   7.264   7.275   1.186
 1480TIP3    H2 4398   7.126   7.252   1.245
 1481TIP3   OH2 4399   7.892   5.730   0.304
 1481TIP3    H1 4400   7.877   5.806   0.360
 1481TIP3    H2 4401   7.943   5.764   0.230
 1482TIP3   OH2 4402   2.323   3.484   1.686
 1482TIP3    H1 4403   2.418   3.480   1.694
 1482TIP3    H2 4404   2.291   3.419   1.748
 1483TIP3   OH2 4405   7.307   3.529   3.975
 1483TIP3    H1 4406   7.234   3.591   3.977
 1483TIP3    H2 4407   7.345   3.535   4.063
 1484TIP3   OH2 4408   3.070   5.404   0.985
 1484TIP3    H1 4409   3.058   5.327   1.040
 1484TIP3    H2 4410   3.000   5.397   0.920
 1485TIP3   OH2 4411   6.856   1.517   0.879
 1485TIP3    H1 4412   6.918   1.590   0.879
 1485TIP3    H2 4413   6.828   1.509   0.970
 1486TIP3   OH2 4414   0.792   5.199   2.914
 1486TIP3    H1 4415   0.777   5.282   2.960
 1486TIP3    H2 4416   0.767   5.132   2.978
 1487TIP3   OH2 4417   4.661   4.449   6.745
 1487TIP3    H1 4418   4.716   4.491   6.812
 1487TIP3    H2 4419   4.719   4.389   6.700
 1488TIP3   OH2 4420   1.790   0.956   3.648
 1488TIP3    H1 4421   1.793   1.050   3.666
 1488TIP3    H2 4422   1.867   0.920   3.691
 1489TIP3   OH2 4423   7.866   3.129   2.483
 1489TIP3    H1 4424   7.775   3.124   2.510
 1489TIP3    H2 4425   7.916   3.126   2.565
 1490TIP3   OH2 4426   1.333   1.012   6.188
 1490TIP3    H1 4427   1.342   1.079   6.120
 1490TIP3    H2 4428   1.366   1.054   6.267
 1491TIP3   OH2 4429   0.394   1.280   0.179
 1491TIP3    H1 4430   0.385   1.214   0.248
 1491TIP3    H2 4431   0.477   1.324   0.197
 1492TIP3   OH2 4432   1.504   1.319   0.754
 1492TIP3    H1 4433   1.441   1.249   0.737
 1492TIP3    H2 4434   1.570   1.309   0.686
 1493TIP3   OH2 4435   0.164   3.660   6.378
 1493TIP3    H1 4436   0.134   3.677   6.288
 1493TIP3    H2 4437   0.159   3.745   6.421
 1494TIP3   OH2 4438   7.449   5.596   3.169
 1494TIP3    H1 4439   7.544   5.599   3.158
 1494TIP3    H2 4440   7.422   5.688   3.166
 1495TIP3   OH2 4441   7.382   6.586   1.847
 1495TIP3    H1 4442   7.341   6.512   1.801
 1495TIP3    H2 4443   7.379   6.657   1.783
 1496TIP3   OH2 4444   6.028   7.607   1.848
 1496TIP3    H1 4445   6.090   7.575   1.913
 1496TIP3    H2 4446   5.994   7.527   1.808
 1497TIP3   OH2 4447   5.819   6.386   6.670
 1497TIP3    H1 4448   5.849   6.477   6.663
 1497TIP3    H2 4449   5.800   6.374   6.763
 1498TIP3   OH2 4450   2.354   5.613   1.417
 1498TIP3    H1 4451   2.439   5.655   1.429
 1498TIP3    H2 4452   2.293   5.686   1.402
 1499TIP3   OH2 4453   7.882   4.940   6.536
 1499TIP3    H1 4454   7.892   4.845   6.543
 1499TIP3    H2 4455   7.956   4.968   6.482
 1500TIP3   OH2 4456   4.638   1.148   6.468
 1500TIP3    H1 4457   4.555   1.102   6.474
 1500TIP3    H2 4458   4.677   1.138   6.555
 1501TIP3   OH2 4459   7.592   5.555   1.840
 1501TIP3    H1 4460   7.521   5.587   1.895
 1501TIP3    H2 4461   7.561   5.567   1.750
 1502TIP3   OH2 4462   6.122   3.568   1.258
 1502TIP3    H1 4463   6.051   3.515   1.293
 1502TIP3    H2 4464   6.198   3.510   1.259
 1503TIP3   OH2 4465   6.706   5.729   5.217
 1503TIP3    H1 4466   6.733   5.676   5.142
 1503TIP3    H2 4467   6.779   5.724   5.278
 1504TIP3   OH2 4468   0.097   3.363   3.716
 1504TIP3    H1 4469   0.045   3.313   3.654
 1504TIP3    H2 4470   0.090   3.314   3.798
 1505TIP3   OH2 4471   2.476   2.441   0.437
 1505TIP3    H1 4472   2.506   2.499   0.507
 1505TIP3    H2 4473   2.412   2.384   0.478
 1506TIP3   OH2 4474   1.237   3.084   2.884
 1506TIP3    H1 4475   1.322   3.083   2.928
 1506TIP3    H2 4476   1.191   3.159   2.920
 1507TIP3   OH2 4477   5.492   1.883   4.507
 1507TIP3    H1 4478   5.490   1.794   4.472
 1507TIP3    H2 4479   5.578   1.917   4.480
 1508TIP3   OH2 4480   0.545   2.533   2.028
 1508TIP3    H1 4481   0.640   2.522   2.025
 1508TIP3    H2 4482   0.511   2.457   1.979
 1509TIP3   OH2 4483   5.345   0.852   0.625
 1509TIP3    H1 4484   5.426   0.891   0.592
 1509TIP3    H2 4485   5.341   0.881   0.716
 1510TIP3   OH2 4486   3.129   2.858   1.183
 1510TIP3    H1 4487   3.039   2.845   1.153
 1510TIP3    H2 4488   3.122   2.928   1.248
 1511TIP3   OH2 4489   2.725   1.180   4.439
 1511TIP3    H1 4490   2.654   1.220   4.389
 1511TIP3    H2 4491   2.693   1.179   4.529
 1512TIP3   OH2 4492   2.108   5.446   6.220
 1512TIP3    H1 4493   2.163   5.479   6.290
 1512TIP3    H2 4494   2.169   5.424   6.149
 1513TIP3   OH2 4495   4.163   0.229   2.786
 1513TIP3    H1 4496   4.164   0.286   2.863
 1513TIP3    H2 4497   4.249   0.187   2.785
 1514TIP3   OH2 4498   4.324   0.121   5.116
 1514TIP3    H1 4499   4.262   0.048   5.115
 1514TIP3    H2 4500   4.269   0.199   5.108
 1515TIP3   OH2 4501   2.888   6.165   3.991
 1515TIP3    H1 4502   2.912   6.252   4.020
 1515TIP3    H2 4503   2.955   6.141   3.927
 1516TIP3   OH2 4504   6.751   5.984   2.054
 1516TIP3    H1 4505   6.843   5.993   2.080
 1516TIP3    H2 4506   6.711   5.935   2.126
 1517TIP3   OH2 4507   4.894   5.545   3.452
 1517TIP3    H1 4508   4.875   5.500   3.370
 1517TIP3    H2 4509   4.990   5.556   3.452
 1518TIP3   OH2 4510   8.278   3.569   4.500
 1518TIP3    H1 4511   8.339   3.523   4.559
 1518TIP3    H2 4512   8.307   3.660   4.503
 1519TIP3   OH2 4513   2.428   4.537   5.417
 1519TIP3    H1 4514   2.438   4.627   5.385
 1519TIP3    H2 4515   2.499   4.490   5.374
 1520TIP3   OH2 4516   3.532   6.939   3.050
 1520TIP3    H1 4517   3.591   7.013   3.062
 1520TIP3    H2 4518   3.530   6.895   3.135
 1521TIP3   OH2 4519   2.113   4.684   3.624
 1521TIP3    H1 4520   2.208   4.695   3.633
 1521TIP3    H2 4521   2.086   4.758   3.569
 1522TIP3   OH2 4522   5.070   7.064   3.002
 1522TIP3    H1 4523   5.088   6.996   3.068
 1522TIP3    H2 4524   5.022   7.018   2.933
 1523TIP3   OH2 4525   7.642   1.063   2.515
 1523TIP3    H1 4526   7.674   1.108   2.437
 1523TIP3    H2 4527   7.720   1.053   2.571
 1524TIP3   OH2 4528   6.595   6.969   4.252
 1524TIP3    H1 4529   6.629   6.904   4.190
 1524TIP3    H2 4530   6.642   6.952   4.333
 1525TIP3   OH2 4531   7.087   5.157   4.884
 1525TIP3    H1 4532   7.072   5.197   4.969
 1525TIP3    H2 4533   7.176   5.121   4.890
 1526TIP3   OH2 4534   4.859   0.695   5.966
 1526TIP3    H1 4535   4.783   0.667   6.017
 1526TIP3    H2 4536   4.915   0.617   5.963
 1527TIP3   OH2 4537   1.281   6.020   5.523
 1527TIP3    H1 4538   1.369   6.014   5.486
 1527TIP3    H2 4539   1.224   6.037   5.448
 1528TIP3   OH2 4540   7.577   6.750   0.270
 1528TIP3    H1 4541   7.542   6.805   0.200
 1528TIP3    H2 4542   7.660   6.717   0.235
 1529TIP3   OH2 4543   0.901   5.700   6.312
 1529TIP3    H1 4544   0.949   5.620   6.295
 1529TIP3    H2 4545   0.814   5.685   6.274
 1530TIP3   OH2 4546   6.012   7.470   1.178
 1530TIP3    H1 4547   6.098   7.473   1.221
 1530TIP3    H2 4548   5.949   7.470   1.250
 1531TIP3   OH2 4549   2.090   6.186   0.895
 1531TIP3    H1 4550   2.104   6.277   0.869
 1531TIP3    H2 4551   2.022   6.154   0.837
 1532TIP3   OH2 4552   5.830   0.078   0.324
 1532TIP3    H1 4553   5.877   0.154   0.290
 1532TIP3    H2 4554   5.749   0.074   0.273
 1533TIP3   OH2 4555   7.426   2.914   0.031
 1533TIP3    H1 4556   7.444   2.916  -0.063
 1533TIP3    H2 4557   7.512   2.897   0.071
 1534TIP3   OH2 4558   3.923   5.224   0.700
 1534TIP3    H1 4559   3.975   5.181   0.632
 1534TIP3    H2 4560   3.882   5.152   0.748
 1535TIP3   OH2 4561   7.834   7.126   0.653
 1535TIP3    H1 4562   7.813   7.067   0.726
 1535TIP3    H2 4563   7.854   7.210   0.695
 1536TIP3   OH2 4564   3.797   1.456   2.765
 1536TIP3    H1 4565   3.860   1.462   2.837
 1536TIP3    H2 4566   3.781   1.362   2.755
 1537TIP3   OH2 4567   4.310   1.610   0.697
 1537TIP3    H1 4568   4.232   1.616   0.642
 1537TIP3    H2 4569   4.383   1.621   0.636
 1538TIP3   OH2 4570   0.842   4.015   4.683
 1538TIP3    H1 4571   0.839   4.045   4.592
 1538TIP3    H2 4572   0.777   4.069   4.728
 1539TIP3   OH2 4573   2.739   3.438   4.739
 1539TIP3    H1 4574   2.709   3.444   4.649
 1539TIP3    H2 4575   2.793   3.359   4.740
 1540TIP3   OH2 4576   4.491   1.915   2.216
 1540TIP3    H1 4577   4.412   1.957   2.251
 1540TIP3    H2 4578   4.457   1.844   2.161
 1541TIP3   OH2 4579   0.910   4.378   4.927
 1541TIP3    H1 4580   1.002   4.354   4.941
 1541TIP3    H2 4581   0.894   4.446   4.993
 1542TIP3   OH2 4582   8.297   0.473   1.181
 1542TIP3    H1 4583   8.232   0.536   1.151
 1542TIP3    H2 4584   8.276   0.458   1.273
 1543TIP3   OH2 4585   0.200   3.184   5.943
 1543TIP3    H1 4586   0.145   3.256   5.911
 1543TIP3    H2 4587   0.149   3.105   5.928
 1544TIP3   OH2 4588   5.513   2.504   0.618
 1544TIP3    H1 4589   5.534   2.499   0.525
 1544TIP3    H2 4590   5.553   2.426   0.657
 1545TIP3   OH2 4591   2.138   7.077   3.065
 1545TIP3    H1 4592   2.198   7.075   2.991
 1545TIP3    H2 4593   2.108   7.167   3.070
 1546TIP3   OH2 4594   3.432   6.700   2.906
 1546TIP3    H1 4595   3.511   6.739   2.944
 1546TIP3    H2 4596   3.366   6.708   2.975
 1547TIP3   OH2 4597   0.082   1.595   3.448
 1547TIP3    H1 4598   0.007   1.560   3.399
 1547TIP3    H2 4599   0.116   1.665   3.393
 1548TIP3   OH2 4600   7.074   4.724   0.800
 1548TIP3    H1 4601   7.002   4.709   0.862
 1548TIP3    H2 4602   7.151   4.690   0.844
 1549TIP3   OH2 4603   7.145   5.358   5.333
 1549TIP3    H1 4604   7.070   5.412   5.357
 1549TIP3    H2 4605   7.203   5.416   5.284
 1550TIP3   OH2 4606   3.174   4.905   2.564
 1550TIP3    H1 4607   3.232   4.896   2.641
 1550TIP3    H2 4608   3.102   4.845   2.582
 1551TIP3   OH2 4609   7.896   0.455   2.815
 1551TIP3    H1 4610   7.917   0.386   2.877
 1551TIP3    H2 4611   7.885   0.410   2.731
 1552TIP3   OH2 4612   7.490   1.629   3.025
 1552TIP3    H1 4613   7.575   1.645   2.984
 1552TIP3    H2 4614   7.427   1.665   2.963
 1553TIP3   OH2 4615   7.570   2.252   0.140
 1553TIP3    H1 4616   7.662   2.268   0.117
 1553TIP3    H2 4617   7.549   2.322   0.202
 1554TIP3   OH2 4618   2.449   5.049   2.310
 1554TIP3    H1 4619   2.458   4.987   2.381
 1554TIP3    H2 4620   2.532   5.045   2.263
 1555TIP3   OH2 4621   7.253   0.784   3.074
 1555TIP3    H1 4622   7.347   0.786   3.055
 1555TIP3    H2 4623   7.225   0.875   3.065
 1556TIP3   OH2 4624   4.239   5.334   5.708
 1556TIP3    H1 4625   4.244   5.428   5.725
 1556TIP3    H2 4626   4.205   5.327   5.618
 1557TIP3   OH2 4627   7.036   3.168   1.625
 1557TIP3    H1 4628   7.067   3.083   1.595
 1557TIP3    H2 4629   7.012   3.215   1.545
 1558TIP3   OH2 4630   2.655   1.860   3.606
 1558TIP3    H1 4631   2.669   1.863   3.700
 1558TIP3    H2 4632   2.560   1.862   3.596
 1559TIP3   OH2 4633   8.185   7.054   3.396
 1559TIP3    H1 4634   8.123   6.982   3.384
 1559TIP3    H2 4635   8.139   7.131   3.360
 1560TIP3   OH2 4636   1.763   4.405   3.939
 1560TIP3    H1 4637   1.838   4.365   3.894
 1560TIP3    H2 4638   1.763   4.496   3.909
 1561TIP3   OH2 4639   5.773   6.069   3.722
 1561TIP3    H1 4640   5.849   6.017   3.695
 1561TIP3    H2 4641   5.717   6.008   3.769
 1562TIP3   OH2 4642   4.738   7.615   1.281
 1562TIP3    H1 4643   4.763   7.620   1.373
 1562TIP3    H2 4644   4.702   7.701   1.261
 1563TIP3   OH2 4645   5.604   7.398   0.065
 1563TIP3    H1 4646   5.676   7.428   0.010
 1563TIP3    H2 4647   5.528   7.448   0.034
 1564TIP3   OH2 4648   7.053   5.077   1.778
 1564TIP3    H1 4649   7.111   5.019   1.729
 1564TIP3    H2 4650   7.068   5.055   1.870
 1565TIP3   OH2 4651   5.197   4.579   1.541
 1565TIP3    H1 4652   5.289   4.604   1.528
 1565TIP3    H2 4653   5.148   4.655   1.511
 1566TIP3   OH2 4654   5.843   7.534   6.037
 1566TIP3    H1 4655   5.887   7.474   6.097
 1566TIP3    H2 4656   5.835   7.484   5.955
 1567TIP3   OH2 4657   0.913   3.752   4.122
 1567TIP3    H1 4658   0.901   3.844   4.097
 1567TIP3    H2 4659   0.869   3.702   4.053
 1568TIP3   OH2 4660   0.533   3.294   5.012
 1568TIP3    H1 4661   0.588   3.227   4.970
 1568TIP3    H2 4662   0.585   3.323   5.086
 1569TIP3   OH2 4663   0.170   4.880   0.375
 1569TIP3    H1 4664   0.094   4.829   0.347
 1569TIP3    H2 4665   0.201   4.837   0.454
 1570TIP3   OH2 4666   0.932   3.957   1.152
 1570TIP3    H1 4667   0.968   3.870   1.137
 1570TIP3    H2 4668   0.891   3.980   1.069
 1571TIP3   OH2 4669   1.975   7.429   2.490
 1571TIP3    H1 4670   2.052   7.486   2.488
 1571TIP3    H2 4671   1.971   7.392   2.401
 1572TIP3   OH2 4672   6.819   0.895   2.647
 1572TIP3    H1 4673   6.898   0.901   2.700
 1572TIP3    H2 4674   6.755   0.950   2.693
 1573TIP3   OH2 4675   6.573   7.183   2.406
 1573TIP3    H1 4676   6.580   7.177   2.501
 1573TIP3    H2 4677   6.646   7.240   2.380
 1574TIP3   OH2 4678   4.768   4.389   3.613
 1574TIP3    H1 4679   4.732   4.325   3.675
 1574TIP3    H2 4680   4.859   4.362   3.602
 1575TIP3   OH2 4681   8.035   5.781   2.350
 1575TIP3    H1 4682   8.078   5.705   2.311
 1575TIP3    H2 4683   8.070   5.785   2.439
 1576TIP3   OH2 4684   3.590   4.596   5.583
 1576TIP3    H1 4685   3.495   4.605   5.587
 1576TIP3    H2 4686   3.613   4.622   5.493
 1577TIP3   OH2 4687   1.728   3.596   2.469
 1577TIP3    H1 4688   1.648   3.550   2.443
 1577TIP3    H2 4689   1.701   3.653   2.540
 1578TIP3   OH2 4690   5.004   0.251   3.094
 1578TIP3    H1 4691   5.031   0.236   3.185
 1578TIP3    H2 4692   4.932   0.314   3.101
 1579TIP3   OH2 4693   5.751   1.788   3.970
 1579TIP3    H1 4694   5.805   1.710   3.959
 1579TIP3    H2 4695   5.675   1.758   4.019
 1580TIP3   OH2 4696   7.216   2.456   0.938
 1580TIP3    H1 4697   7.217   2.431   1.031
 1580TIP3    H2 4698   7.308   2.458   0.913
 1581TIP3   OH2 4699   6.889   5.641   2.305
 1581TIP3    H1 4700   6.861   5.550   2.296
 1581TIP3    H2 4701   6.853   5.669   2.390
 1582TIP3   OH2 4702   7.822   6.939   4.371
 1582TIP3    H1 4703   7.885   6.966   4.305
 1582TIP3    H2 4704   7.863   6.961   4.454
 1583TIP3   OH2 4705   5.293   7.129   4.972
 1583TIP3    H1 4706   5.255   7.155   5.056
 1583TIP3    H2 4707   5.344   7.205   4.944
 1584TIP3   OH2 4708   6.473   2.242   5.453
 1584TIP3    H1 4709   6.499   2.333   5.470
 1584TIP3    H2 4710   6.411   2.247   5.380
 1585TIP3   OH2 4711   0.528   1.418   3.535
 1585TIP3    H1 4712   0.494   1.485   3.594
 1585TIP3    H2 4713   0.487   1.337   3.565
 1586TIP3   OH2 4714   5.721   7.576   6.479
 1586TIP3    H1 4715   5.628   7.581   6.503
 1586TIP3    H2 4716   5.757   7.511   6.540
 1587TIP3   OH2 4717   4.856   3.115   4.211
 1587TIP3    H1 4718   4.942   3.099   4.250
 1587TIP3    H2 4719   4.868   3.096   4.118
 1588TIP3   OH2 4720   5.035   0.937   0.640
 1588TIP3    H1 4721   5.100   0.868   0.655
 1588TIP3    H2 4722   5.087   1.017   0.634
 1589TIP3   OH2 4723   6.658   2.469   3.228
 1589TIP3    H1 4724   6.682   2.455   3.320
 1589TIP3    H2 4725   6.565   2.494   3.231
 1590TIP3   OH2 4726   5.616   4.920   0.497
 1590TIP3    H1 4727   5.573   4.847   0.453
 1590TIP3    H2 4728   5.615   4.991   0.433
 1591TIP3   OH2 4729   5.605   1.606   3.138
 1591TIP3    H1 4730   5.566   1.692   3.153
 1591TIP3    H2 4731   5.680   1.623   3.081
 1592TIP3   OH2 4732   0.753   6.782   0.087
 1592TIP3    H1 4733   0.685   6.717   0.107
 1592TIP3    H2 4734   0.835   6.736   0.102
 1593TIP3   OH2 4735   7.952   2.086   3.376
 1593TIP3    H1 4736   8.038   2.117   3.405
 1593TIP3    H2 4737   7.917   2.159   3.325
 1594TIP3   OH2 4738   5.665   3.260   4.777
 1594TIP3    H1 4739   5.615   3.295   4.851
 1594TIP3    H2 4740   5.602   3.204   4.731
 1595TIP3   OH2 4741   0.932   1.794   5.604
 1595TIP3    H1 4742   0.870   1.853   5.562
 1595TIP3    H2 4743   0.879   1.746   5.668
 1596TIP3   OH2 4744   3.003   0.849   6.488
 1596TIP3    H1 4745   3.081   0.831   6.434
 1596TIP3    H2 4746   2.987   0.766   6.533
 1597TIP3   OH2 4747   8.065   5.812   5.279
 1597TIP3    H1 4748   8.018   5.732   5.302
 1597TIP3    H2 4749   8.059   5.817   5.184
 1598TIP3   OH2 4750   0.858   2.610   4.032
 1598TIP3    H1 4751   0.930   2.596   4.093
 1598TIP3    H2 4752   0.864   2.536   3.971
 1599TIP3   OH2 4753   4.299   4.016   6.198
 1599TIP3    H1 4754   4.245   4.008   6.119
 1599TIP3    H2 4755   4.316   3.926   6.226
 1600TIP3   OH2 4756   6.927   2.139   4.188
 1600TIP3    H1 4757   6.926   2.044   4.200
 1600TIP3    H2 4758   6.954   2.151   4.096
 1601TIP3   OH2 4759   0.424   6.041   5.262
 1601TIP3    H1 4760   0.424   6.037   5.357
 1601TIP3    H2 4761   0.472   5.963   5.234
 1602TIP3   OH2 4762   7.377   6.770   2.500
 1602TIP3    H1 4763   7.434   6.842   2.473
 1602TIP3    H2 4764   7.438   6.700   2.523
 1603TIP3   OH2 4765   3.968   4.021   3.345
 1603TIP3    H1 4766   3.936   4.072   3.271
 1603TIP3    H2 4767   3.914   3.941   3.344
 1604TIP3   OH2 4768   1.350   1.776   3.631
 1604TIP3    H1 4769   1.342   1.864   3.669
 1604TIP3    H2 4770   1.260   1.751   3.609
 1605TIP3   OH2 4771   4.626   6.686   3.287
 1605TIP3    H1 4772   4.569   6.716   3.357
 1605TIP3    H2 4773   4.584   6.717   3.207
 1606TIP3   OH2 4774   5.712   2.802   2.086
 1606TIP3    H1 4775   5.751   2.814   2.000
 1606TIP3    H2 4776   5.675   2.713   2.083
 1607TIP3   OH2 4777   6.600   3.785   2.351
 1607TIP3    H1 4778   6.693   3.761   2.349
 1607TIP3    H2 4779   6.558   3.724   2.290
 1608TIP3   OH2 4780   6.080   5.801   6.260
 1608TIP3    H1 4781   5.997   5.815   6.215
 1608TIP3    H2 4782   6.131   5.746   6.200
 1609TIP3   OH2 4783   7.531   1.024   1.040
 1609TIP3    H1 4784   7.524   1.112   1.002
 1609TIP3    H2 4785   7.450   1.014   1.091
 1610TIP3   OH2 4786   7.468   5.591   5.311
 1610TIP3    H1 4787   7.528   5.642   5.365
 1610TIP3    H2 4788   7.497   5.501   5.322
 1611TIP3   OH2 4789   5.707   1.104   3.871
 1611TIP3    H1 4790   5.675   1.052   3.944
 1611TIP3    H2 4791   5.629   1.144   3.833
 1612TIP3   OH2 4792   0.224   7.683   6.673
 1612TIP3    H1 4793   0.160   7.701   6.604
 1612TIP3    H2 4794   0.301   7.650   6.626
 1613TIP3   OH2 4795   1.953   2.197   0.929
 1613TIP3    H1 4796   2.035   2.229   0.966
 1613TIP3    H2 4797   1.970   2.190   0.835
 1614TIP3   OH2 4798   1.398   5.853   4.315
 1614TIP3    H1 4799   1.426   5.784   4.375
 1614TIP3    H2 4800   1.302   5.847   4.314
 1615TIP3   OH2 4801   4.319   3.359   1.155
 1615TIP3    H1 4802   4.238   3.356   1.207
 1615TIP3    H2 4803   4.362   3.276   1.173
 1616TIP3   OH2 4804   1.381   5.462   3.849
 1616TIP3    H1 4805   1.369   5.428   3.937
 1616TIP3    H2 4806   1.306   5.521   3.835
 1617TIP3   OH2 4807   6.394   6.654   2.525
 1617TIP3    H1 4808   6.319   6.614   2.481
 1617TIP3    H2 4809   6.415   6.731   2.473
 1618TIP3   OH2 4810   6.572   7.069   1.533
 1618TIP3    H1 4811   6.586   6.975   1.527
 1618TIP3    H2 4812   6.505   7.088   1.467
 1619TIP3   OH2 4813   1.455   0.110   0.973
 1619TIP3    H1 4814   1.391   0.181   0.965
 1619TIP3    H2 4815   1.503   0.111   0.890
 1620TIP3   OH2 4816   0.667   3.069   4.947
 1620TIP3    H1 4817   0.682   3.032   5.034
 1620TIP3    H2 4818   0.736   3.032   4.892
 1621TIP3   OH2 4819   1.430   4.653   6.069
 1621TIP3    H1 4820   1.362   4.591   6.044
 1621TIP3    H2 4821   1.484   4.605   6.132
 1622TIP3   OH2 4822   6.467   1.293   5.980
 1622TIP3    H1 4823   6.471   1.220   5.919
 1622TIP3    H2 4824   6.438   1.255   6.063
 1623TIP3   OH2 4825   1.644   4.018   5.797
 1623TIP3    H1 4826   1.730   3.980   5.781
 1623TIP3    H2 4827   1.609   4.034   5.709
 1624TIP3   OH2 4828   8.161   5.813   2.588
 1624TIP3    H1 4829   8.162   5.884   2.652
 1624TIP3    H2 4830   8.224   5.749   2.621
 1625TIP3   OH2 4831   4.424   6.035   2.468
 1625TIP3    H1 4832   4.359   5.996   2.410
 1625TIP3    H2 4833   4.384   6.117   2.497
 1626TIP3   OH2 4834   5.765   1.440   6.070
 1626TIP3    H1 4835   5.860   1.444   6.069
 1626TIP3    H2 4836   5.745   1.368   6.130
 1627TIP3   OH2 4837   6.622   5.099   2.429
 1627TIP3    H1 4838   6.599   5.043   2.355
 1627TIP3    H2 4839   6.609   5.043   2.506
 1628TIP3   OH2 4840   7.927   4.117   4.814
 1628TIP3    H1 4841   7.870   4.121   4.738
 1628TIP3    H2 4842   7.945   4.024   4.826
 1629TIP3   OH2 4843   3.145   2.316   3.209
 1629TIP3    H1 4844   3.142   2.353   3.297
 1629TIP3    H2 4845   3.214   2.249   3.214
 1630TIP3   OH2 4846   3.212   6.452   5.069
 1630TIP3    H1 4847   3.122   6.426   5.088
 1630TIP3    H2 4848   3.209   6.486   4.980
 1631TIP3   OH2 4849   1.314   1.116   1.613
 1631TIP3    H1 4850   1.386   1.167   1.575
 1631TIP3    H2 4851   1.339   1.025   1.596
 1632TIP3   OH2 4852   8.168   3.929   5.466
 1632TIP3    H1 4853   8.244   3.901   5.518
 1632TIP3    H2 4854   8.205   3.957   5.383
 1633TIP3   OH2 4855   6.314   5.997   3.611
 1633TIP3    H1 4856   6.347   5.917   3.652
 1633TIP3    H2 4857   6.260   6.038   3.678
 1634TIP3   OH2 4858   0.616   3.402   6.661
 1634TIP3    H1 4859   0.701   3.433   6.630
 1634TIP3    H2 4860   0.583   3.347   6.590
 1635TIP3   OH2 4861   3.721   2.504   6.286
 1635TIP3    H1 4862   3.689   2.451   6.359
 1635TIP3    H2 4863   3.669   2.475   6.211
 1636TIP3   OH2 4864   1.608   4.285   6.068
 1636TIP3    H1 4865   1.633   4.198   6.099
 1636TIP3    H2 4866   1.545   4.317   6.133
 1637TIP3   OH2 4867   8.001   5.446   1.474
 1637TIP3    H1 4868   8.089   5.439   1.435
 1637TIP3    H2 4869   8.016   5.439   1.568
 1638TIP3   OH2 4870   2.908   6.035   0.211
 1638TIP3    H1 4871   2.989   6.071   0.175
 1638TIP3    H2 4872   2.848   6.109   0.214
 1639TIP3   OH2 4873   2.272   5.647   4.914
 1639TIP3    H1 4874   2.222   5.700   4.852
 1639TIP3    H2 4875   2.208   5.620   4.979
 1640TIP3   OH2 4876   0.868   0.664   3.241
 1640TIP3    H1 4877   0.789   0.715   3.255
 1640TIP3    H2 4878   0.905   0.653   3.329
 1641TIP3   OH2 4879   4.821   0.652   1.891
 1641TIP3    H1 4880   4.889   0.591   1.919
 1641TIP3    H2 4881   4.858   0.739   1.906
 1642TIP3   OH2 4882   4.334   3.741   2.081
 1642TIP3    H1 4883   4.401   3.727   2.014
 1642TIP3    H2 4884   4.251   3.737   2.034
 1643TIP3   OH2 4885   8.262   6.374   2.603
 1643TIP3    H1 4886   8.291   6.438   2.537
 1643TIP3    H2 4887   8.289   6.413   2.686
 1644TIP3   OH2 4888   2.734   7.369   0.446
 1644TIP3    H1 4889   2.672   7.363   0.374
 1644TIP3    H2 4890   2.745   7.279   0.476
 1645TIP3   OH2 4891   5.476   0.791   1.875
 1645TIP3    H1 4892   5.414   0.855   1.839
 1645TIP3    H2 4893   5.422   0.714   1.894
 1646TIP3   OH2 4894   1.573   4.942   6.130
 1646TIP3    H1 4895   1.508   4.873   6.148
 1646TIP3    H2 4896   1.522   5.016   6.099
 1647TIP3   OH2 4897   1.322   1.772   4.799
 1647TIP3    H1 4898   1.233   1.756   4.769
 1647TIP3    H2 4899   1.364   1.686   4.796
 1648TIP3   OH2 4900   6.840   4.226   1.500
 1648TIP3    H1 4901   6.829   4.255   1.410
 1648TIP3    H2 4902   6.751   4.207   1.530
 1649TIP3   OH2 4903   5.367   6.563   1.613
 1649TIP3    H1 4904   5.323   6.648   1.612
 1649TIP3    H2 4905   5.411   6.559   1.698
 1650TIP3   OH2 4906   0.064   7.644   4.706
 1650TIP3    H1 4907   0.135   7.637   4.770
 1650TIP3    H2 4908   0.104   7.685   4.630
 1651TIP3   OH2 4909   4.030   4.087   1.121
 1651TIP3    H1 4910   3.958   4.027   1.100
 1651TIP3    H2 4911   4.011   4.117   1.210
 1652TIP3   OH2 4912   4.515   3.361   3.227
 1652TIP3    H1 4913   4.583   3.299   3.200
 1652TIP3    H2 4914   4.489   3.405   3.146
 1653TIP3   OH2 4915   1.481   1.209   3.152
 1653TIP3    H1 4916   1.417   1.140   3.167
 1653TIP3    H2 4917   1.443   1.264   3.083
 1654TIP3   OH2 4918   3.973   4.084   2.745
 1654TIP3    H1 4919   3.905   4.017   2.736
 1654TIP3    H2 4920   3.928   4.161   2.778
 1655TIP3   OH2 4921   5.796   6.049   1.031
 1655TIP3    H1 4922   5.736   5.984   0.994
 1655TIP3    H2 4923   5.792   6.123   0.970
 1656TIP3   OH2 4924   2.835   0.462   3.765
 1656TIP3    H1 4925   2.741   0.451   3.753
 1656TIP3    H2 4926   2.861   0.388   3.820
 1657TIP3   OH2 4927   0.005   0.192   1.825
 1657TIP3    H1 4928  -0.032   0.279   1.813
 1657TIP3    H2 4929   0.066   0.202   1.899
 1658TIP3   OH2 4930   6.394   4.626   2.464
 1658TIP3    H1 4931   6.376   4.536   2.491
 1658TIP3    H2 4932   6.317   4.676   2.494
 1659TIP3   OH2 4933   6.014   5.701   4.456
 1659TIP3    H1 4934   6.099   5.705   4.412
 1659TIP3    H2 4935   5.985   5.792   4.461
 1660TIP3   OH2 4936   6.292   3.672   5.315
 1660TIP3    H1 4937   6.364   3.618   5.350
 1660TIP3    H2 4938   6.260   3.721   5.391
 1661TIP3   OH2 4939   3.499   2.745   2.296
 1661TIP3    H1 4940   3.516   2.838   2.311
 1661TIP3    H2 4941   3.577   2.714   2.249
 1662TIP3   OH2 4942   2.297   0.962   4.192
 1662TIP3    H1 4943   2.284   0.911   4.273
 1662TIP3    H2 4944   2.212   0.960   4.149
 1663TIP3   OH2 4945   4.015   3.180   3.452
 1663TIP3    H1 4946   3.984   3.229   3.376
 1663TIP3    H2 4947   4.106   3.209   3.463
 1664TIP3   OH2 4948   0.933   0.566   5.304
 1664TIP3    H1 4949   1.021   0.603   5.312
 1664TIP3    H2 4950   0.936   0.518   5.221
 1665TIP3   OH2 4951   4.015   5.437   4.504
 1665TIP3    H1 4952   4.071   5.505   4.541
 1665TIP3    H2 4953   4.061   5.355   4.523
 1666TIP3   OH2 4954   5.302   5.753   2.345
 1666TIP3    H1 4955   5.382   5.763   2.397
 1666TIP3    H2 4956   5.317   5.674   2.294
 1667TIP3   OH2 4957   6.536   5.024   5.661
 1667TIP3    H1 4958   6.468   5.062   5.718
 1667TIP3    H2 4959   6.602   5.093   5.655
 1668TIP3   OH2 4960   2.317   1.137   3.276
 1668TIP3    H1 4961   2.347   1.079   3.345
 1668TIP3    H2 4962   2.397   1.176   3.241
 1669TIP3   OH2 4963   2.160   2.138   1.318
 1669TIP3    H1 4964   2.170   2.056   1.366
 1669TIP3    H2 4965   2.093   2.120   1.252
 1670TIP3   OH2 4966   0.625   0.211   2.439
 1670TIP3    H1 4967   0.606   0.146   2.505
 1670TIP3    H2 4968   0.620   0.295   2.485
 1671TIP3   OH2 4969   4.583   0.639   4.233
 1671TIP3    H1 4970   4.657   0.605   4.284
 1671TIP3    H2 4971   4.532   0.690   4.296
 1672TIP3   OH2 4972   5.173   7.106   5.464
 1672TIP3    H1 4973   5.141   7.168   5.530
 1672TIP3    H2 4974   5.200   7.030   5.515
 1673TIP3   OH2 4975   3.529   6.661   5.173
 1673TIP3    H1 4976   3.456   6.600   5.185
 1673TIP3    H2 4977   3.573   6.663   5.258
 1674TIP3   OH2 4978   4.673   6.828   4.203
 1674TIP3    H1 4979   4.705   6.915   4.229
 1674TIP3    H2 4980   4.745   6.769   4.222
 1675TIP3   OH2 4981   5.035   1.049   3.485
 1675TIP3    H1 4982   5.089   1.056   3.407
 1675TIP3    H2 4983   5.026   0.955   3.499
 1676TIP3   OH2 4984   1.561   4.666   3.040
 1676TIP3    H1 4985   1.546   4.750   3.082
 1676TIP3    H2 4986   1.611   4.687   2.961
 1677TIP3   OH2 4987   4.351   0.031   2.177
 1677TIP3    H1 4988   4.322   0.122   2.165
 1677TIP3    H2 4989   4.375   0.002   2.089
 1678TIP3   OH2 4990   0.988   0.488   4.198
 1678TIP3    H1 4991   1.019   0.532   4.278
 1678TIP3    H2 4992   1.051   0.514   4.131
 1679TIP3   OH2 4993   1.319   3.978   5.429
 1679TIP3    H1 4994   1.382   3.906   5.415
 1679TIP3    H2 4995   1.371   4.046   5.472
 1680TIP3   OH2 4996   6.758   3.992   5.395
 1680TIP3    H1 4997   6.780   4.074   5.349
 1680TIP3    H2 4998   6.778   3.923   5.332
 1681TIP3   OH2 4999   6.234   5.262   1.827
 1681TIP3    H1 5000   6.291   5.311   1.767
 1681TIP3    H2 5001   6.197   5.330   1.884
 1682TIP3   OH2 5002   5.102   2.412   4.001
 1682TIP3    H1 5003   5.088   2.320   3.977
 1682TIP3    H2 5004   5.016   2.452   3.995
 1683TIP3   OH2 5005   6.089   3.057   2.770
 1683TIP3    H1 5006   6.091   3.152   2.757
 1683TIP3    H2 5007   6.180   3.031   2.775
 1684TIP3   OH2 5008   3.793   2.006   3.597
 1684TIP3    H1 5009   3.781   2.076   3.533
 1684TIP3    H2 5010   3.750   1.930   3.557
 1685TIP3   OH2 5011   3.246   2.154   6.508
 1685TIP3    H1 5012   3.155   2.182   6.496
 1685TIP3    H2 5013   3.243   2.094   6.583
 1686TIP3   OH2 5014   1.200   0.204   0.911
 1686TIP3    H1 5015   1.156   0.254   0.843
 1686TIP3    H2 5016   1.146   0.216   0.989
 1687TIP3   OH2 5017   7.354   1.165   6.574
 1687TIP3    H1 5018   7.305   1.204   6.645
 1687TIP3    H2 5019   7.439   1.143   6.613
 1688TIP3   OH2 5020   2.605   6.788   3.611
 1688TIP3    H1 5021   2.699   6.803   3.612
 1688TIP3    H2 5022   2.595   6.697   3.584
 1689TIP3   OH2 5023   1.947   4.900   4.702
 1689TIP3    H1 5024   1.987   4.825   4.747
 1689TIP3    H2 5025   1.861   4.909   4.742
 1690TIP3   OH2 5026   2.605   2.671   3.795
 1690TIP3    H1 5027   2.583   2.624   3.875
 1690TIP3    H2 5028   2.554   2.751   3.799
 1691TIP3   OH2 5029   0.151   1.445   5.718
 1691TIP3    H1 5030   0.186   1.364   5.753
 1691TIP3    H2 5031   0.152   1.433   5.623
 1692TIP3   OH2 5032   2.318   1.232   4.183
 1692TIP3    H1 5033   2.299   1.148   4.227
 1692TIP3    H2 5034   2.382   1.210   4.116
 1693TIP3   OH2 5035   0.715   4.756   0.209
 1693TIP3    H1 5036   0.796   4.728   0.252
 1693TIP3    H2 5037   0.676   4.674   0.177
 1694TIP3   OH2 5038   6.194   3.234   0.577
 1694TIP3    H1 5039   6.190   3.170   0.648
 1694TIP3    H2 5040   6.286   3.260   0.573
 1695TIP3   OH2 5041   4.991   5.060   3.369
 1695TIP3    H1 5042   4.942   4.994   3.320
 1695TIP3    H2 5043   4.966   5.044   3.460
 1696TIP3   OH2 5044   3.849   1.844   5.290
 1696TIP3    H1 5045   3.811   1.846   5.378
 1696TIP3    H2 5046   3.837   1.933   5.257
 1697TIP3   OH2 5047   2.550   0.755   5.903
 1697TIP3    H1 5048   2.498   0.835   5.893
 1697TIP3    H2 5049   2.604   0.772   5.980
 1698TIP3   OH2 5050   7.532   0.591   6.691
 1698TIP3    H1 5051   7.476   0.574   6.766
 1698TIP3    H2 5052   7.543   0.506   6.649
 1699TIP3   OH2 5053   0.647   3.844   1.977
 1699TIP3    H1 5054   0.702   3.827   1.901
 1699TIP3    H2 5055   0.593   3.919   1.952
 1700TIP3   OH2 5056   0.426   3.616   5.261
 1700TIP3    H1 5057   0.426   3.541   5.320
 1700TIP3    H2 5058   0.518   3.629   5.238
 1701TIP3   OH2 5059   3.843   1.461   6.490
 1701TIP3    H1 5060   3.776   1.418   6.544
 1701TIP3    H2 5061   3.805   1.465   6.403
 1702TIP3   OH2 5062   3.446   4.692   3.135
 1702TIP3    H1 5063   3.505   4.619   3.114
 1702TIP3    H2 5064   3.426   4.680   3.228
 1703TIP3   OH2 5065   5.433   3.213   3.883
 1703TIP3    H1 5066   5.508   3.207   3.824
 1703TIP3    H2 5067   5.374   3.143   3.855
 1704TIP3   OH2 5068   3.547   6.093   3.155
 1704TIP3    H1 5069   3.551   6.033   3.230
 1704TIP3    H2 5070   3.599   6.049   3.087
 1705TIP3   OH2 5071   3.084   0.560   3.146
 1705TIP3    H1 5072   3.063   0.535   3.236
 1705TIP3    H2 5073   3.096   0.655   3.150
 1706TIP3   OH2 5074   4.481   5.207   5.725
 1706TIP3    H1 5075   4.519   5.247   5.647
 1706TIP3    H2 5076   4.392   5.242   5.730
 1707TIP3   OH2 5077   4.765   4.182   4.991
 1707TIP3    H1 5078   4.798   4.177   5.081
 1707TIP3    H2 5079   4.682   4.134   4.993
 1708TIP3   OH2 5080   6.915   4.536   3.434
 1708TIP3    H1 5081   6.851   4.575   3.375
 1708TIP3    H2 5082   6.996   4.533   3.382
 1709TIP3   OH2 5083   0.527   2.819   2.897
 1709TIP3    H1 5084   0.445   2.870   2.894
 1709TIP3    H2 5085   0.512   2.754   2.966
 1710TIP3   OH2 5086   7.461   0.377   1.369
 1710TIP3    H1 5087   7.549   0.341   1.356
 1710TIP3    H2 5088   7.412   0.305   1.409
 1711TIP3   OH2 5089   0.621   6.352   1.470
 1711TIP3    H1 5090   0.527   6.336   1.469
 1711TIP3    H2 5091   0.630   6.439   1.509
 1712TIP3   OH2 5092   7.488   6.910   0.771
 1712TIP3    H1 5093   7.499   7.005   0.773
 1712TIP3    H2 5094   7.394   6.897   0.772
 1713TIP3   OH2 5095   6.485   0.215   4.980
 1713TIP3    H1 5096   6.422   0.261   5.036
 1713TIP3    H2 5097   6.558   0.195   5.039
 1714TIP3   OH2 5098   1.263   2.133   2.716
 1714TIP3    H1 5099   1.268   2.089   2.801
 1714TIP3    H2 5100   1.212   2.212   2.733
 1715TIP3   OH2 5101   0.950   6.435   1.688
 1715TIP3    H1 5102   0.868   6.400   1.723
 1715TIP3    H2 5103   0.956   6.523   1.726
 1716TIP3   OH2 5104   0.660   1.815   1.570
 1716TIP3    H1 5105   0.653   1.744   1.506
 1716TIP3    H2 5106   0.754   1.835   1.573
 1717TIP3   OH2 5107   2.036   5.564   2.098
 1717TIP3    H1 5108   2.045   5.472   2.072
 1717TIP3    H2 5109   1.962   5.597   2.046
 1718TIP3   OH2 5110   5.674   1.109   1.747
 1718TIP3    H1 5111   5.729   1.097   1.669
 1718TIP3    H2 5112   5.686   1.028   1.796
 1719TIP3   OH2 5113   7.768   5.948   2.095
 1719TIP3    H1 5114   7.765   5.854   2.077
 1719TIP3    H2 5115   7.737   5.989   2.015
 1720TIP3   OH2 5116   1.607   5.500   4.237
 1720TIP3    H1 5117   1.634   5.462   4.153
 1720TIP3    H2 5118   1.684   5.548   4.268
 1721TIP3   OH2 5119   5.235   7.651   2.512
 1721TIP3    H1 5120   5.155   7.692   2.544
 1721TIP3    H2 5121   5.254   7.697   2.430
 1722TIP3   OH2 5122   6.375   3.255   4.466
 1722TIP3    H1 5123   6.459   3.217   4.489
 1722TIP3    H2 5124   6.328   3.262   4.549
 1723TIP3   OH2 5125   1.224   1.440   2.710
 1723TIP3    H1 5126   1.235   1.353   2.672
 1723TIP3    H2 5127   1.148   1.433   2.767
 1724TIP3   OH2 5128   4.230   1.402   6.423
 1724TIP3    H1 5129   4.194   1.368   6.341
 1724TIP3    H2 5130   4.261   1.490   6.401
 1725TIP3   OH2 5131   2.445   1.515   2.532
 1725TIP3    H1 5132   2.481   1.546   2.615
 1725TIP3    H2 5133   2.354   1.493   2.552
 1726TIP3   OH2 5134   2.590   0.987   5.435
 1726TIP3    H1 5135   2.657   1.038   5.480
 1726TIP3    H2 5136   2.625   0.899   5.431
 1727TIP3   OH2 5137   0.210   4.231   3.345
 1727TIP3    H1 5138   0.186   4.155   3.398
 1727TIP3    H2 5139   0.129   4.281   3.335
 1728TIP3   OH2 5140   2.915   4.198   4.947
 1728TIP3    H1 5141   2.984   4.178   5.009
 1728TIP3    H2 5142   2.877   4.113   4.925
 1729TIP3   OH2 5143   2.282   1.126   4.993
 1729TIP3    H1 5144   2.205   1.072   4.974
 1729TIP3    H2 5145   2.331   1.076   5.059
 1730TIP3   OH2 5146   5.373   2.289   0.906
 1730TIP3    H1 5147   5.411   2.259   0.823
 1730TIP3    H2 5148   5.422   2.368   0.928
 1731TIP3   OH2 5149   2.741   0.348   5.659
 1731TIP3    H1 5150   2.702   0.265   5.630
 1731TIP3    H2 5151   2.733   0.347   5.754
 1732TIP3   OH2 5152   6.072   3.886   1.266
 1732TIP3    H1 5153   5.977   3.887   1.255
 1732TIP3    H2 5154   6.097   3.794   1.257
 1733TIP3   OH2 5155   6.887   1.400   4.137
 1733TIP3    H1 5156   6.973   1.408   4.097
 1733TIP3    H2 5157   6.833   1.465   4.093
 1734TIP3   OH2 5158   4.921   4.612   6.469
 1734TIP3    H1 5159   4.990   4.620   6.535
 1734TIP3    H2 5160   4.955   4.659   6.392
 1735TIP3   OH2 5161   0.249   0.245   3.494
 1735TIP3    H1 5162   0.268   0.300   3.570
 1735TIP3    H2 5163   0.193   0.299   3.438
 1736TIP3   OH2 5164   5.708   2.219   5.248
 1736TIP3    H1 5165   5.785   2.172   5.281
 1736TIP3    H2 5166   5.722   2.224   5.154
 1737TIP3   OH2 5167   2.916   2.399   1.602
 1737TIP3    H1 5168   2.886   2.459   1.671
 1737TIP3    H2 5169   2.836   2.373   1.557
 1738TIP3   OH2 5170   5.502   4.589   0.097
 1738TIP3    H1 5171   5.416   4.624   0.074
 1738TIP3    H2 5172   5.485   4.499   0.123
 1739TIP3   OH2 5173   5.365   4.976   1.918
 1739TIP3    H1 5174   5.359   4.881   1.927
 1739TIP3    H2 5175   5.289   5.001   1.865
 1740TIP3   OH2 5176   3.481   5.076   1.376
 1740TIP3    H1 5177   3.467   5.025   1.456
 1740TIP3    H2 5178   3.474   5.167   1.404
 1741TIP3   OH2 5179   5.735   5.516   2.106
 1741TIP3    H1 5180   5.815   5.516   2.158
 1741TIP3    H2 5181   5.682   5.587   2.142
 1742TIP3   OH2 5182   2.286   1.654   0.670
 1742TIP3    H1 5183   2.260   1.568   0.704
 1742TIP3    H2 5184   2.239   1.663   0.587
 1743TIP3   OH2 5185   4.473   6.912   5.426
 1743TIP3    H1 5186   4.512   6.998   5.409
 1743TIP3    H2 5187   4.492   6.896   5.519
 1744TIP3   OH2 5188   4.757   2.161   0.384
 1744TIP3    H1 5189   4.757   2.230   0.450
 1744TIP3    H2 5190   4.790   2.084   0.429
 1745TIP3   OH2 5191   2.724   3.897   6.690
 1745TIP3    H1 5192   2.766   3.843   6.756
 1745TIP3    H2 5193   2.791   3.961   6.664
 1746TIP3   OH2 5194   6.658   7.418   5.906
 1746TIP3    H1 5195   6.673   7.466   5.988
 1746TIP3    H2 5196   6.638   7.329   5.935
 1747TIP3   OH2 5197   3.461   5.196   2.454
 1747TIP3    H1 5198   3.449   5.102   2.449
 1747TIP3    H2 5199   3.498   5.220   2.369
 1748TIP3   OH2 5200   7.317   0.241   1.808
 1748TIP3    H1 5201   7.364   0.173   1.761
 1748TIP3    H2 5202   7.296   0.202   1.893
 1749TIP3   OH2 5203   5.633   5.877   3.224
 1749TIP3    H1 5204   5.595   5.920   3.300
 1749TIP3    H2 5205   5.660   5.791   3.255
 1750TIP3   OH2 5206   7.550   3.573   4.737
 1750TIP3    H1 5207   7.558   3.588   4.832
 1750TIP3    H2 5208   7.531   3.660   4.701
 1751TIP3   OH2 5209   5.434   2.274   4.764
 1751TIP3    H1 5210   5.411   2.363   4.791
 1751TIP3    H2 5211   5.521   2.282   4.726
 1752TIP3   OH2 5212   0.518   2.259   3.010
 1752TIP3    H1 5213   0.552   2.289   2.926
 1752TIP3    H2 5214   0.434   2.219   2.988
 1753TIP3   OH2 5215   7.177   0.542   0.425
 1753TIP3    H1 5216   7.185   0.579   0.513
 1753TIP3    H2 5217   7.087   0.560   0.399
 1754TIP3   OH2 5218   6.108   4.181   2.597
 1754TIP3    H1 5219   6.167   4.107   2.607
 1754TIP3    H2 5220   6.021   4.141   2.588
 1755TIP3   OH2 5221   5.861   6.489   4.206
 1755TIP3    H1 5222   5.819   6.488   4.120
 1755TIP3    H2 5223   5.811   6.552   4.257
 1756TIP3   OH2 5224   1.379   0.290   0.644
 1756TIP3    H1 5225   1.313   0.228   0.677
 1756TIP3    H2 5226   1.462   0.245   0.660
 1757TIP3   OH2 5227   2.857   6.602   4.299
 1757TIP3    H1 5228   2.932   6.656   4.322
 1757TIP3    H2 5229   2.790   6.664   4.271
 1758TIP3   OH2 5230   6.844   5.201   1.503
 1758TIP3    H1 5231   6.902   5.242   1.567
 1758TIP3    H2 5232   6.829   5.269   1.437
 1759TIP3   OH2 5233   1.249   5.069   4.623
 1759TIP3    H1 5234   1.181   5.115   4.574
 1759TIP3    H2 5235   1.318   5.052   4.559
 1760TIP3   OH2 5236   0.858   1.826   1.977
 1760TIP3    H1 5237   0.796   1.898   1.986
 1760TIP3    H2 5238   0.819   1.754   2.026
 1761TIP3   OH2 5239   1.005   1.759   6.383
 1761TIP3    H1 5240   0.971   1.669   6.385
 1761TIP3    H2 5241   1.033   1.777   6.472
 1762TIP3   OH2 5242   5.826   1.978   2.573
 1762TIP3    H1 5243   5.734   2.001   2.588
 1762TIP3    H2 5244   5.857   1.948   2.659
 1763TIP3   OH2 5245   1.379   2.712   3.444
 1763TIP3    H1 5246   1.431   2.721   3.524
 1763TIP3    H2 5247   1.400   2.624   3.412
 1764TIP3   OH2 5248   1.374   6.276   4.217
 1764TIP3    H1 5249   1.313   6.205   4.237
 1764TIP3    H2 5250   1.352   6.303   4.128
 1765TIP3   OH2 5251   6.063   2.686   1.758
 1765TIP3    H1 5252   6.102   2.664   1.843
 1765TIP3    H2 5253   6.099   2.620   1.699
 1766TIP3   OH2 5254   5.585   7.458   1.188
 1766TIP3    H1 5255   5.645   7.466   1.263
 1766TIP3    H2 5256   5.556   7.367   1.191
 1767TIP3   OH2 5257   4.943   6.596   2.009
 1767TIP3    H1 5258   4.850   6.576   2.018
 1767TIP3    H2 5259   4.961   6.582   1.916
 1768TIP3   OH2 5260   3.203   3.737   0.818
 1768TIP3    H1 5261   3.256   3.768   0.745
 1768TIP3    H2 5262   3.173   3.650   0.791
 1769TIP3   OH2 5263   7.866   4.530   1.222
 1769TIP3    H1 5264   7.798   4.477   1.264
 1769TIP3    H2 5265   7.948   4.496   1.258
 1770TIP3   OH2 5266   6.629   6.426   6.393
 1770TIP3    H1 5267   6.597   6.482   6.464
 1770TIP3    H2 5268   6.662   6.486   6.327
 1771TIP3   OH2 5269   8.121   0.147   5.940
 1771TIP3    H1 5270   8.197   0.101   5.976
 1771TIP3    H2 5271   8.099   0.098   5.860
 1772TIP3   OH2 5272   2.695   1.366   0.489
 1772TIP3    H1 5273   2.688   1.274   0.462
 1772TIP3    H2 5274   2.754   1.405   0.425
 1773TIP3   OH2 5275   5.461   7.758   6.255
 1773TIP3    H1 5276   5.518   7.767   6.178
 1773TIP3    H2 5277   5.445   7.664   6.263
 1774TIP3   OH2 5278   0.839   7.180   2.979
 1774TIP3    H1 5279   0.823   7.222   2.895
 1774TIP3    H2 5280   0.934   7.189   2.993
 1775TIP3   OH2 5281   1.213   5.131   3.465
 1775TIP3    H1 5282   1.244   5.215   3.501
 1775TIP3    H2 5283   1.262   5.121   3.383
 1776TIP3   OH2 5284   7.504   7.715   1.592
 1776TIP3    H1 5285   7.537   7.638   1.547
 1776TIP3    H2 5286   7.545   7.789   1.547
 1777TIP3   OH2 5287   4.570   0.723   2.027
 1777TIP3    H1 5288   4.560   0.800   2.083
 1777TIP3    H2 5289   4.652   0.739   1.980
 1778TIP3   OH2 5290   7.984   3.566   6.129
 1778TIP3    H1 5291   7.936   3.486   6.149
 1778TIP3    H2 5292   7.982   3.616   6.211
 1779TIP3   OH2 5293   3.230   4.638   2.329
 1779TIP3    H1 5294   3.255   4.641   2.421
 1779TIP3    H2 5295   3.268   4.718   2.291
 1780TIP3   OH2 5296   4.102   3.143   1.735
 1780TIP3    H1 5297   4.112   3.070   1.673
 1780TIP3    H2 5298   4.129   3.106   1.819
 1781TIP3   OH2 5299   3.743   6.752   2.106
 1781TIP3    H1 5300   3.804   6.793   2.045
 1781TIP3    H2 5301   3.661   6.746   2.058
 1782TIP3   OH2 5302   3.478   5.039   4.278
 1782TIP3    H1 5303   3.539   4.992   4.335
 1782TIP3    H2 5304   3.477   5.128   4.313
 1783TIP3   OH2 5305   5.681   0.497   0.550
 1783TIP3    H1 5306   5.666   0.575   0.497
 1783TIP3    H2 5307   5.776   0.493   0.561
 1784TIP3   OH2 5308   1.776   6.214   2.822
 1784TIP3    H1 5309   1.768   6.198   2.917
 1784TIP3    H2 5310   1.870   6.205   2.805
 1785TIP3   OH2 5311   4.528   4.441   3.824
 1785TIP3    H1 5312   4.592   4.509   3.806
 1785TIP3    H2 5313   4.575   4.359   3.809
 1786TIP3   OH2 5314   7.413   1.111   6.318
 1786TIP3    H1 5315   7.508   1.119   6.314
 1786TIP3    H2 5316   7.390   1.136   6.407
 1787TIP3   OH2 5317   3.091   4.809   5.655
 1787TIP3    H1 5318   2.995   4.808   5.655
 1787TIP3    H2 5319   3.115   4.812   5.748
 1788TIP3   OH2 5320   5.627   3.496   2.038
 1788TIP3    H1 5321   5.722   3.501   2.049
 1788TIP3    H2 5322   5.593   3.570   2.087
 1789TIP3   OH2 5323   4.987   7.290   6.172
 1789TIP3    H1 5324   4.902   7.332   6.185
 1789TIP3    H2 5325   4.973   7.229   6.100
 1790TIP3   OH2 5326   2.515   3.490   5.067
 1790TIP3    H1 5327   2.572   3.471   5.142
 1790TIP3    H2 5328   2.431   3.513   5.105
 1791TIP3   OH2 5329   1.001   3.695   2.591
 1791TIP3    H1 5330   1.048   3.728   2.514
 1791TIP3    H2 5331   1.010   3.765   2.656
 1792TIP3   OH2 5332   2.749   4.408   0.445
 1792TIP3    H1 5333   2.666   4.387   0.404
 1792TIP3    H2 5334   2.772   4.495   0.411
 1793TIP3   OH2 5335   7.481   7.664   4.210
 1793TIP3    H1 5336   7.485   7.623   4.296
 1793TIP3    H2 5337   7.556   7.628   4.163
 1794TIP3   OH2 5338   4.713   1.689   4.242
 1794TIP3    H1 5339   4.771   1.656   4.173
 1794TIP3    H2 5340   4.744   1.778   4.259
 1795TIP3   OH2 5341   3.324   0.870   0.302
 1795TIP3    H1 5342   3.255   0.804   0.306
 1795TIP3    H2 5343   3.280   0.952   0.328
 1796TIP3   OH2 5344   7.280   7.484   1.330
 1796TIP3    H1 5345   7.253   7.484   1.422
 1796TIP3    H2 5346   7.201   7.458   1.282
 1797TIP3   OH2 5347   1.333   4.875   4.401
 1797TIP3    H1 5348   1.356   4.804   4.341
 1797TIP3    H2 5349   1.401   4.873   4.468
 1798TIP3   OH2 5350   6.110   6.307   6.001
 1798TIP3    H1 5351   6.093   6.213   5.999
 1798TIP3    H2 5352   6.026   6.345   6.027
 1799TIP3   OH2 5353   4.839   5.983   0.457
 1799TIP3    H1 5354   4.764   6.007   0.402
 1799TIP3    H2 5355   4.852   6.059   0.513
 1800TIP3   OH2 5356   6.439   4.691   5.158
 1800TIP3    H1 5357   6.436   4.646   5.242
 1800TIP3    H2 5358   6.527   4.671   5.124
 1801TIP3   OH2 5359   6.284   5.417   6.352
 1801TIP3    H1 5360   6.198   5.401   6.313
 1801TIP3    H2 5361   6.333   5.464   6.284
 1802TIP3   OH2 5362   6.661   5.187   6.602
 1802TIP3    H1 5363   6.713   5.209   6.680
 1802TIP3    H2 5364   6.645   5.271   6.560
 1803TIP3   OH2 5365   1.943   7.058   3.285
 1803TIP3    H1 5366   1.878   7.085   3.220
 1803TIP3    H2 5367   2.025   7.053   3.236
 1804TIP3   OH2 5368   4.491   7.664   1.774
 1804TIP3    H1 5369   4.460   7.738   1.826
 1804TIP3    H2 5370   4.478   7.691   1.683
 1805TIP3   OH2 5371   4.938   0.266   4.688
 1805TIP3    H1 5372   4.918   0.239   4.777
 1805TIP3    H2 5373   4.980   0.351   4.698
 1806TIP3   OH2 5374   5.256   5.080   3.720
 1806TIP3    H1 5375   5.340   5.035   3.725
 1806TIP3    H2 5376   5.279   5.173   3.717
 1807TIP3   OH2 5377   2.506   6.040   0.855
 1807TIP3    H1 5378   2.563   6.065   0.782
 1807TIP3    H2 5379   2.563   5.992   0.915
 1808TIP3   OH2 5380   2.698   4.786   0.615
 1808TIP3    H1 5381   2.745   4.745   0.542
 1808TIP3    H2 5382   2.757   4.776   0.689
 1809TIP3   OH2 5383   1.931   1.982   2.861
 1809TIP3    H1 5384   1.984   1.908   2.831
 1809TIP3    H2 5385   1.950   2.052   2.799
 1810TIP3   OH2 5386   5.074   0.766   1.128
 1810TIP3    H1 5387   5.017   0.691   1.145
 1810TIP3    H2 5388   5.040   0.835   1.186
 1811TIP3   OH2 5389   1.939   1.333   1.353
 1811TIP3    H1 5390   1.952   1.246   1.392
 1811TIP3    H2 5391   1.847   1.353   1.369
 1812TIP3   OH2 5392   7.038   1.131   0.101
 1812TIP3    H1 5393   6.958   1.083   0.077
 1812TIP3    H2 5394   7.107   1.087   0.052
 1813TIP3   OH2 5395   4.359   1.044   6.456
 1813TIP3    H1 5396   4.294   1.010   6.517
 1813TIP3    H2 5397   4.320   1.030   6.370
 1814TIP3   OH2 5398   6.351   5.893   2.632
 1814TIP3    H1 5399   6.426   5.834   2.629
 1814TIP3    H2 5400   6.278   5.841   2.598
 1815TIP3   OH2 5401   4.825   1.508   0.982
 1815TIP3    H1 5402   4.898   1.459   0.945
 1815TIP3    H2 5403   4.751   1.447   0.978
 1816TIP3   OH2 5404   0.286   1.156   1.540
 1816TIP3    H1 5405   0.194   1.170   1.561
 1816TIP3    H2 5406   0.319   1.100   1.610
 1817TIP3   OH2 5407   0.697   4.167   2.115
 1817TIP3    H1 5408   0.680   4.164   2.021
 1817TIP3    H2 5409   0.766   4.101   2.129
 1818TIP3   OH2 5410   5.702   1.531   2.845
 1818TIP3    H1 5411   5.746   1.555   2.763
 1818TIP3    H2 5412   5.680   1.438   2.834
 1819TIP3   OH2 5413   4.744   3.020   1.858
 1819TIP3    H1 5414   4.817   3.030   1.919
 1819TIP3    H2 5415   4.668   3.050   1.907
 1820TIP3   OH2 5416   6.162   0.569   5.692
 1820TIP3    H1 5417   6.207   0.646   5.656
 1820TIP3    H2 5418   6.079   0.566   5.645
 1821TIP3   OH2 5419   5.134   5.742   0.704
 1821TIP3    H1 5420   5.189   5.739   0.782
 1821TIP3    H2 5421   5.047   5.718   0.736
 1822TIP3   OH2 5422   2.098   3.975   3.674
 1822TIP3    H1 5423   2.153   3.896   3.671
 1822TIP3    H2 5424   2.026   3.956   3.614
 1823TIP3   OH2 5425   5.170   0.457   4.232
 1823TIP3    H1 5426   5.107   0.431   4.299
 1823TIP3    H2 5427   5.133   0.424   4.150
 1824TIP3   OH2 5428   5.507   4.038   1.282
 1824TIP3    H1 5429   5.525   3.975   1.213
 1824TIP3    H2 5430   5.429   4.004   1.326
 1825TIP3   OH2 5431   0.402   7.620   5.663
 1825TIP3    H1 5432   0.492   7.617   5.697
 1825TIP3    H2 5433   0.347   7.626   5.741
 1826TIP3   OH2 5434   6.787   4.237   4.317
 1826TIP3    H1 5435   6.828   4.206   4.236
 1826TIP3    H2 5436   6.859   4.272   4.369
 1827TIP3   OH2 5437   3.190   2.124   4.169
 1827TIP3    H1 5438   3.099   2.122   4.198
 1827TIP3    H2 5439   3.196   2.202   4.114
 1828TIP3   OH2 5440   2.827   2.691   3.287
 1828TIP3    H1 5441   2.913   2.696   3.245
 1828TIP3    H2 5442   2.809   2.598   3.294
 1829TIP3   OH2 5443   5.783   3.739   4.953
 1829TIP3    H1 5444   5.813   3.824   4.986
 1829TIP3    H2 5445   5.712   3.761   4.892
 1830TIP3   OH2 5446   6.610   6.517   4.310
 1830TIP3    H1 5447   6.615   6.450   4.242
 1830TIP3    H2 5448   6.518   6.544   4.310
 1831TIP3   OH2 5449   6.870   4.889   1.945
 1831TIP3    H1 5450   6.780   4.870   1.968
 1831TIP3    H2 5451   6.895   4.821   1.882
 1832TIP3   OH2 5452   4.368   0.849   1.379
 1832TIP3    H1 5453   4.370   0.763   1.338
 1832TIP3    H2 5454   4.378   0.833   1.472
 1833TIP3   OH2 5455   3.107   3.875   1.698
 1833TIP3    H1 5456   3.057   3.855   1.619
 1833TIP3    H2 5457   3.096   3.970   1.710
 1834TIP3   OH2 5458   2.605   6.129   0.622
 1834TIP3    H1 5459   2.668   6.196   0.599
 1834TIP3    H2 5460   2.651   6.046   0.607
 1835TIP3   OH2 5461   4.612   0.814   5.870
 1835TIP3    H1 5462   4.603   0.744   5.806
 1835TIP3    H2 5463   4.660   0.883   5.824
 1836TIP3   OH2 5464   5.046   1.127   4.469
 1836TIP3    H1 5465   5.102   1.204   4.459
 1836TIP3    H2 5466   5.016   1.130   4.559
 1837TIP3   OH2 5467   7.105   6.009   5.873
 1837TIP3    H1 5468   7.057   6.049   5.945
 1837TIP3    H2 5469   7.196   6.037   5.886
 1838TIP3   OH2 5470   2.347   2.611   1.909
 1838TIP3    H1 5471   2.348   2.556   1.987
 1838TIP3    H2 5472   2.390   2.558   1.842
 1839TIP3   OH2 5473   1.030   4.290   2.465
 1839TIP3    H1 5474   0.938   4.316   2.460
 1839TIP3    H2 5475   1.028   4.194   2.471
 1840TIP3   OH2 5476   7.403   2.902   2.741
 1840TIP3    H1 5477   7.410   2.900   2.836
 1840TIP3    H2 5478   7.445   2.821   2.711
 1841TIP3   OH2 5479   5.372   2.578   3.984
 1841TIP3    H1 5480   5.328   2.494   3.971
 1841TIP3    H2 5481   5.301   2.643   3.978
 1842TIP3   OH2 5482   5.725   0.829   2.553
 1842TIP3    H1 5483   5.699   0.742   2.586
 1842TIP3    H2 5484   5.643   0.877   2.545
 1843TIP3   OH2 5485   2.113   1.249   3.114
 1843TIP3    H1 5486   2.183   1.222   3.174
 1843TIP3    H2 5487   2.034   1.249   3.168
 1844TIP3   OH2 5488   5.493   2.694   5.281
 1844TIP3    H1 5489   5.545   2.631   5.231
 1844TIP3    H2 5490   5.543   2.775   5.278
 1845TIP3   OH2 5491   2.887   5.392   3.222
 1845TIP3    H1 5492   2.935   5.328   3.168
 1845TIP3    H2 5493   2.810   5.414   3.170
 1846TIP3   OH2 5494   0.240   6.194   1.677
 1846TIP3    H1 5495   0.159   6.224   1.637
 1846TIP3    H2 5496   0.221   6.104   1.706
 1847TIP3   OH2 5497   4.351   0.791   2.719
 1847TIP3    H1 5498   4.325   0.853   2.651
 1847TIP3    H2 5499   4.444   0.809   2.734
 1848TIP3   OH2 5500   3.793   6.666   1.811
 1848TIP3    H1 5501   3.750   6.706   1.735
 1848TIP3    H2 5502   3.884   6.696   1.806
 1849TIP3   OH2 5503   8.123   0.696   1.663
 1849TIP3    H1 5504   8.070   0.697   1.743
 1849TIP3    H2 5505   8.169   0.612   1.667
 1850TIP3   OH2 5506   7.172   3.695   1.772
 1850TIP3    H1 5507   7.254   3.648   1.756
 1850TIP3    H2 5508   7.187   3.741   1.855
 1851TIP3   OH2 5509   4.858   6.237   3.960
 1851TIP3    H1 5510   4.953   6.228   3.970
 1851TIP3    H2 5511   4.842   6.212   3.869
 1852TIP3   OH2 5512   5.485   2.853   3.024
 1852TIP3    H1 5513   5.454   2.815   3.106
 1852TIP3    H2 5514   5.482   2.782   2.961
 1853TIP3   OH2 5515   1.879   5.129   6.001
 1853TIP3    H1 5516   1.952   5.159   5.946
 1853TIP3    H2 5517   1.876   5.035   5.987
 1854TIP3   OH2 5518   4.954   5.101   2.699
 1854TIP3    H1 5519   4.892   5.150   2.646
 1854TIP3    H2 5520   4.945   5.137   2.787
 1855TIP3   OH2 5521   0.063   6.167   0.198
 1855TIP3    H1 5522   0.159   6.168   0.192
 1855TIP3    H2 5523   0.034   6.131   0.114
 1856TIP3   OH2 5524   5.832   5.813   6.472
 1856TIP3    H1 5525   5.804   5.725   6.494
 1856TIP3    H2 5526   5.924   5.804   6.445
 1857TIP3   OH2 5527   0.049   2.971   5.802
 1857TIP3    H1 5528  -0.006   2.961   5.880
 1857TIP3    H2 5529  -0.013   2.975   5.729
 1858TIP3   OH2 5530   3.750   5.525   3.078
 1858TIP3    H1 5531   3.745   5.599   3.018
 1858TIP3    H2 5532   3.827   5.543   3.131
 1859TIP3   OH2 5533   1.404   7.344   2.214
 1859TIP3    H1 5534   1.458   7.413   2.252
 1859TIP3    H2 5535   1.438   7.333   2.125
 1860TIP3   OH2 5536   3.589   4.596   2.672
 1860TIP3    H1 5537   3.676   4.592   2.712
 1860TIP3    H2 5538   3.572   4.690   2.662
 1861TIP3   OH2 5539   0.823   6.229   6.124
 1861TIP3    H1 5540   0.872   6.242   6.205
 1861TIP3    H2 5541   0.810   6.135   6.119
 1862TIP3   OH2 5542   0.428   7.323   2.516
 1862TIP3    H1 5543   0.428   7.418   2.500
 1862TIP3    H2 5544   0.356   7.309   2.577
 1863TIP3   OH2 5545   1.082   7.773   5.038
 1863TIP3    H1 5546   0.993   7.742   5.022
 1863TIP3    H2 5547   1.097   7.757   5.131
 1864TIP3   OH2 5548   8.256   5.171   5.160
 1864TIP3    H1 5549   8.313   5.219   5.220
 1864TIP3    H2 5550   8.216   5.239   5.106
 1865TIP3   OH2 5551   0.690   1.760   3.237
 1865TIP3    H1 5552   0.693   1.770   3.141
 1865TIP3    H2 5553   0.601   1.730   3.255
 1866TIP3   OH2 5554   4.309   4.497   2.457
 1866TIP3    H1 5555   4.234   4.552   2.435
 1866TIP3    H2 5556   4.356   4.487   2.374
 1867TIP3   OH2 5557   4.046   3.441   4.385
 1867TIP3    H1 5558   4.078   3.526   4.415
 1867TIP3    H2 5559   3.970   3.461   4.330
 1868TIP3   OH2 5560   5.594   6.232   3.224
 1868TIP3    H1 5561   5.575   6.259   3.314
 1868TIP3    H2 5562   5.677   6.184   3.230
 1869TIP3   OH2 5563   6.889   2.457   1.210
 1869TIP3    H1 5564   6.875   2.475   1.117
 1869TIP3    H2 5565   6.975   2.494   1.229
 1870TIP3   OH2 5566   8.170   1.838   5.914
 1870TIP3    H1 5567   8.118   1.823   5.993
 1870TIP3    H2 5568   8.245   1.780   5.923
 1871TIP3   OH2 5569   5.964   7.215   5.639
 1871TIP3    H1 5570   6.055   7.230   5.613
 1871TIP3    H2 5571   5.959   7.121   5.657
 1872TIP3   OH2 5572   3.477   4.338   5.057
 1872TIP3    H1 5573   3.475   4.420   5.105
 1872TIP3    H2 5574   3.433   4.357   4.974
 1873TIP3   OH2 5575   0.795   2.506   2.425
 1873TIP3    H1 5576   0.712   2.554   2.418
 1873TIP3    H2 5577   0.837   2.542   2.503
 1874TIP3   OH2 5578   0.223   5.001   6.484
 1874TIP3    H1 5579   0.225   5.033   6.574
 1874TIP3    H2 5580   0.280   5.061   6.436
 1875TIP3   OH2 5581   4.355   7.536   5.933
 1875TIP3    H1 5582   4.273   7.544   5.884
 1875TIP3    H2 5583   4.397   7.459   5.896
 1876TIP3   OH2 5584   3.457   4.039   0.709
 1876TIP3    H1 5585   3.553   4.033   0.706
 1876TIP3    H2 5586   3.440   4.131   0.728
 1877TIP3   OH2 5587   4.263   6.539   1.532
 1877TIP3    H1 5588   4.182   6.510   1.572
 1877TIP3    H2 5589   4.263   6.634   1.543
 1878TIP3   OH2 5590   1.777   3.998   4.244
 1878TIP3    H1 5591   1.738   4.083   4.266
 1878TIP3    H2 5592   1.704   3.946   4.210
 1879TIP3   OH2 5593   1.842   2.150   1.655
 1879TIP3    H1 5594   1.918   2.116   1.701
 1879TIP3    H2 5595   1.846   2.110   1.568
 1880TIP3   OH2 5596   7.625   0.260   6.465
 1880TIP3    H1 5597   7.597   0.283   6.377
 1880TIP3    H2 5598   7.720   0.269   6.464
 1881TIP3   OH2 5599   1.580   1.328   5.576
 1881TIP3    H1 5600   1.580   1.337   5.481
 1881TIP3    H2 5601   1.487   1.323   5.599
 1882TIP3   OH2 5602   6.303   7.420   6.321
 1882TIP3    H1 5603   6.273   7.447   6.408
 1882TIP3    H2 5604   6.371   7.356   6.338
 1883TIP3   OH2 5605   3.441   6.810   2.440
 1883TIP3    H1 5606   3.420   6.739   2.502
 1883TIP3    H2 5607   3.418   6.774   2.354
 1884TIP3   OH2 5608   5.694   2.250   4.961
 1884TIP3    H1 5609   5.738   2.309   4.900
 1884TIP3    H2 5610   5.602   2.251   4.933
 1885TIP3   OH2 5611   2.189   0.624   4.175
 1885TIP3    H1 5612   2.140   0.542   4.182
 1885TIP3    H2 5613   2.217   0.628   4.084
 1886TIP3   OH2 5614   2.700   2.233   1.437
 1886TIP3    H1 5615   2.729   2.260   1.350
 1886TIP3    H2 5616   2.614   2.194   1.423
 1887TIP3   OH2 5617   4.353   4.160   2.867
 1887TIP3    H1 5618   4.385   4.226   2.929
 1887TIP3    H2 5619   4.285   4.114   2.915
 1888TIP3   OH2 5620   5.442   3.703   2.660
 1888TIP3    H1 5621   5.433   3.781   2.715
 1888TIP3    H2 5622   5.532   3.706   2.628
 1889TIP3   OH2 5623   5.239   0.906   0.083
 1889TIP3    H1 5624   5.180   0.868   0.018
 1889TIP3    H2 5625   5.183   0.928   0.157
 1890TIP3   OH2 5626   7.863   4.383   2.759
 1890TIP3    H1 5627   7.882   4.343   2.674
 1890TIP3    H2 5628   7.768   4.372   2.770
 1891TIP3   OH2 5629   4.945   1.405   3.922
 1891TIP3    H1 5630   4.953   1.325   3.974
 1891TIP3    H2 5631   4.883   1.382   3.852
 1892TIP3   OH2 5632   4.787   7.685   2.847
 1892TIP3    H1 5633   4.746   7.771   2.849
 1892TIP3    H2 5634   4.775   7.655   2.757
 1893TIP3   OH2 5635   0.242   0.485   2.963
 1893TIP3    H1 5636   0.153   0.479   2.931
 1893TIP3    H2 5637   0.248   0.572   3.002
 1894TIP3   OH2 5638   3.994   2.754   2.046
 1894TIP3    H1 5639   3.968   2.668   2.078
 1894TIP3    H2 5640   4.089   2.749   2.039
 1895TIP3   OH2 5641   2.867   6.056   3.637
 1895TIP3    H1 5642   2.805   5.985   3.654
 1895TIP3    H2 5643   2.929   6.051   3.710
 1896TIP3   OH2 5644   2.866   7.589   4.630
 1896TIP3    H1 5645   2.860   7.494   4.625
 1896TIP3    H2 5646   2.857   7.618   4.539
 1897TIP3   OH2 5647   7.667   3.193   3.548
 1897TIP3    H1 5648   7.582   3.192   3.502
 1897TIP3    H2 5649   7.714   3.118   3.511
 1898TIP3   OH2 5650   6.377   6.712   6.143
 1898TIP3    H1 5651   6.405   6.715   6.052
 1898TIP3    H2 5652   6.379   6.619   6.167
 1899TIP3   OH2 5653   1.567   1.163   0.189
 1899TIP3    H1 5654   1.595   1.145   0.099
 1899TIP3    H2 5655   1.493   1.104   0.203
 1900TIP3   OH2 5656   3.391   1.068   6.172
 1900TIP3    H1 5657   3.482   1.080   6.200
 1900TIP3    H2 5658   3.339   1.098   6.247
 1901TIP3   OH2 5659   5.557   7.307   2.855
 1901TIP3    H1 5660   5.479   7.253   2.861
 1901TIP3    H2 5661   5.599   7.279   2.773
 1902TIP3   OH2 5662   3.577   3.631   3.109
 1902TIP3    H1 5663   3.581   3.538   3.086
 1902TIP3    H2 5664   3.541   3.673   3.031
 1903TIP3   OH2 5665   2.339   0.147   6.649
 1903TIP3    H1 5666   2.248   0.120   6.637
 1903TIP3    H2 5667   2.365   0.182   6.563
 1904TIP3   OH2 5668   1.576   6.715   1.890
 1904TIP3    H1 5669   1.572   6.805   1.922
 1904TIP3    H2 5670   1.668   6.701   1.867
 1905TIP3   OH2 5671   3.271   3.224   3.695
 1905TIP3    H1 5672   3.305   3.185   3.775
 1905TIP3    H2 5673   3.176   3.226   3.708
 1906TIP3   OH2 5674   8.316   0.454   4.468
 1906TIP3    H1 5675   8.265   0.401   4.529
 1906TIP3    H2 5676   8.304   0.544   4.498
 1907TIP3   OH2 5677   4.250   4.366   0.920
 1907TIP3    H1 5678   4.340   4.399   0.915
 1907TIP3    H2 5679   4.214   4.381   0.832
 1908TIP3   OH2 5680   1.108   6.835   1.418
 1908TIP3    H1 5681   1.015   6.815   1.402
 1908TIP3    H2 5682   1.110   6.930   1.430
 1909TIP3   OH2 5683   4.111   5.972   3.991
 1909TIP3    H1 5684   4.165   6.027   4.048
 1909TIP3    H2 5685   4.163   5.963   3.911
 1910TIP3   OH2 5686   2.516   2.310   6.404
 1910TIP3    H1 5687   2.504   2.230   6.352
 1910TIP3    H2 5688   2.450   2.371   6.371
 1911TIP3   OH2 5689   0.007   6.233   6.592
 1911TIP3    H1 5690  -0.021   6.270   6.676
 1911TIP3    H2 5691   0.055   6.304   6.549
 1912TIP3   OH2 5692   6.235   2.734   0.808
 1912TIP3    H1 5693   6.187   2.677   0.868
 1912TIP3    H2 5694   6.324   2.738   0.844
 1913TIP3   OH2 5695   5.508   2.931   1.273
 1913TIP3    H1 5696   5.560   2.941   1.193
 1913TIP3    H2 5697   5.439   2.869   1.249
 1914TIP3   OH2 5698   4.431   2.360   1.417
 1914TIP3    H1 5699   4.400   2.383   1.505
 1914TIP3    H2 5700   4.440   2.265   1.418
 1915TIP3   OH2 5701   8.253   7.633   6.045
 1915TIP3    H1 5702   8.164   7.610   6.069
 1915TIP3    H2 5703   8.308   7.584   6.106
 1916TIP3   OH2 5704   1.840   0.167   3.265
 1916TIP3    H1 5705   1.894   0.103   3.312
 1916TIP3    H2 5706   1.750   0.145   3.291
 1917TIP3   OH2 5707   2.046   6.752   4.726
 1917TIP3    H1 5708   2.033   6.660   4.703
 1917TIP3    H2 5709   1.958   6.783   4.747
 1918TIP3   OH2 5710   1.168   6.821   6.127
 1918TIP3    H1 5711   1.169   6.832   6.032
 1918TIP3    H2 5712   1.247   6.769   6.146
 1919TIP3   OH2 5713   1.956   0.052   0.310
 1919TIP3    H1 5714   1.994  -0.031   0.340
 1919TIP3    H2 5715   2.010   0.119   0.353
 1920TIP3   OH2 5716   7.990   3.543   4.839
 1920TIP3    H1 5717   7.993   3.539   4.744
 1920TIP3    H2 5718   8.026   3.460   4.868
 1921TIP3   OH2 5719   6.348   7.080   3.671
 1921TIP3    H1 5720   6.257   7.053   3.661
 1921TIP3    H2 5721   6.347   7.141   3.745
 1922TIP3   OH2 5722   6.263   5.917   3.017
 1922TIP3    H1 5723   6.243   5.871   3.098
 1922TIP3    H2 5724   6.329   5.862   2.974
 1923TIP3   OH2 5725   7.577   2.154   1.687
 1923TIP3    H1 5726   7.499   2.108   1.655
 1923TIP3    H2 5727   7.554   2.182   1.775
 1924TIP3   OH2 5728   2.978   6.341   1.918
 1924TIP3    H1 5729   3.033   6.419   1.906
 1924TIP3    H2 5730   3.015   6.297   1.994
 1925TIP3   OH2 5731   7.263   2.509   3.524
 1925TIP3    H1 5732   7.251   2.484   3.432
 1925TIP3    H2 5733   7.217   2.592   3.532
 1926TIP3   OH2 5734   6.216   1.191   4.982
 1926TIP3    H1 5735   6.292   1.179   4.926
 1926TIP3    H2 5736   6.180   1.103   4.993
 1927TIP3   OH2 5737   0.323   1.056   0.375
 1927TIP3    H1 5738   0.328   1.105   0.457
 1927TIP3    H2 5739   0.235   1.019   0.375
 1928TIP3   OH2 5740   6.401   6.285   6.687
 1928TIP3    H1 5741   6.347   6.258   6.613
 1928TIP3    H2 5742   6.408   6.206   6.741
 1929TIP3   OH2 5743   4.876   6.723   3.375
 1929TIP3    H1 5744   4.788   6.727   3.338
 1929TIP3    H2 5745   4.885   6.634   3.407
 1930TIP3   OH2 5746   5.013   5.857   5.611
 1930TIP3    H1 5747   5.052   5.799   5.546
 1930TIP3    H2 5748   5.086   5.912   5.641
 1931TIP3   OH2 5749   2.465   2.140   1.131
 1931TIP3    H1 5750   2.541   2.191   1.158
 1931TIP3    H2 5751   2.452   2.164   1.039
 1932TIP3   OH2 5752   7.126   4.466   0.478
 1932TIP3    H1 5753   7.036   4.485   0.452
 1932TIP3    H2 5754   7.118   4.418   0.560
 1933TIP3   OH2 5755   1.940   7.288   0.505
 1933TIP3    H1 5756   1.905   7.199   0.506
 1933TIP3    H2 5757   1.962   7.304   0.414
 1934TIP3   OH2 5758   6.422   7.483   4.759
 1934TIP3    H1 5759   6.407   7.424   4.685
 1934TIP3    H2 5760   6.336   7.520   4.779
 1935TIP3   OH2 5761   8.092   3.119   4.013
 1935TIP3    H1 5762   8.176   3.165   4.003
 1935TIP3    H2 5763   8.103   3.039   3.961
 1936TIP3   OH2 5764   6.282   1.450   4.546
 1936TIP3    H1 5765   6.376   1.463   4.557
 1936TIP3    H2 5766   6.242   1.517   4.602
 1937TIP3   OH2 5767   4.947   0.499   2.244
 1937TIP3    H1 5768   4.970   0.409   2.267
 1937TIP3    H2 5769   4.853   0.505   2.258
 1938TIP3   OH2 5770   3.526   5.789   5.992
 1938TIP3    H1 5771   3.563   5.813   6.077
 1938TIP3    H2 5772   3.515   5.872   5.946
 1939TIP3   OH2 5773   2.240   2.131   2.405
 1939TIP3    H1 5774   2.182   2.059   2.380
 1939TIP3    H2 5775   2.182   2.203   2.428
 1940TIP3   OH2 5776   3.937   2.409   3.301
 1940TIP3    H1 5777   3.848   2.441   3.287
 1940TIP3    H2 5778   3.974   2.470   3.365
 1941TIP3   OH2 5779   2.026   7.073   4.924
 1941TIP3    H1 5780   1.967   7.090   4.997
 1941TIP3    H2 5781   2.079   6.999   4.952
 1942TIP3   OH2 5782   7.965   3.862   4.588
 1942TIP3    H1 5783   7.932   3.780   4.551
 1942TIP3    H2 5784   8.014   3.835   4.666
 1943TIP3   OH2 5785   8.257   6.507   4.792
 1943TIP3    H1 5786   8.236   6.462   4.710
 1943TIP3    H2 5787   8.262   6.600   4.767
 1944TIP3   OH2 5788   2.677   5.524   6.128
 1944TIP3    H1 5789   2.702   5.446   6.079
 1944TIP3    H2 5790   2.649   5.586   6.061
 1945TIP3   OH2 5791   5.373   5.398   1.705
 1945TIP3    H1 5792   5.430   5.391   1.782
 1945TIP3    H2 5793   5.379   5.489   1.678
 1946TIP3   OH2 5794   2.763   1.001   0.008
 1946TIP3    H1 5795   2.757   1.056   0.086
 1946TIP3    H2 5796   2.825   0.932   0.031
 1947TIP3   OH2 5797   5.887   7.820   6.519
 1947TIP3    H1 5798   5.818   7.755   6.525
 1947TIP3    H2 5799   5.891   7.859   6.607
 1948TIP3   OH2 5800   4.259   5.282   2.761
 1948TIP3    H1 5801   4.318   5.209   2.745
 1948TIP3    H2 5802   4.265   5.337   2.683
 1949TIP3   OH2 5803   8.286   0.429   5.620
 1949TIP3    H1 5804   8.296   0.400   5.710
 1949TIP3    H2 5805   8.279   0.348   5.570
 1950TIP3   OH2 5806   7.930   5.266   4.262
 1950TIP3    H1 5807   7.982   5.346   4.256
 1950TIP3    H2 5808   7.885   5.261   4.178
 1951TIP3   OH2 5809   2.945   2.782   5.825
 1951TIP3    H1 5810   2.887   2.814   5.894
 1951TIP3    H2 5811   2.970   2.694   5.853
 1952TIP3   OH2 5812   5.214   4.172   2.091
 1952TIP3    H1 5813   5.178   4.086   2.114
 1952TIP3    H2 5814   5.300   4.174   2.132
 1953TIP3   OH2 5815   7.816   7.692   5.598
 1953TIP3    H1 5816   7.819   7.625   5.529
 1953TIP3    H2 5817   7.897   7.741   5.586
 1954TIP3   OH2 5818   2.370   1.935   1.571
 1954TIP3    H1 5819   2.414   1.938   1.486
 1954TIP3    H2 5820   2.278   1.918   1.550
 1955TIP3   OH2 5821   3.563   6.599   5.721
 1955TIP3    H1 5822   3.644   6.648   5.733
 1955TIP3    H2 5823   3.591   6.513   5.688
 1956TIP3   OH2 5824   4.804   1.747   4.830
 1956TIP3    H1 5825   4.808   1.736   4.735
 1956TIP3    H2 5826   4.778   1.838   4.843
 1957TIP3   OH2 5827   3.104   3.924   5.271
 1957TIP3    H1 5828   3.101   3.842   5.222
 1957TIP3    H2 5829   3.198   3.938   5.287
 1958TIP3   OH2 5830   5.319   2.704   2.218
 1958TIP3    H1 5831   5.271   2.723   2.298
 1958TIP3    H2 5832   5.350   2.614   2.229
 1959TIP3   OH2 5833   1.164   7.384   1.464
 1959TIP3    H1 5834   1.183   7.378   1.370
 1959TIP3    H2 5835   1.173   7.477   1.485
 1960TIP3   OH2 5836   3.438   6.289   5.031
 1960TIP3    H1 5837   3.348   6.322   5.032
 1960TIP3    H2 5838   3.457   6.272   4.939
 1961TIP3   OH2 5839   3.675   4.671   5.336
 1961TIP3    H1 5840   3.682   4.718   5.252
 1961TIP3    H2 5841   3.761   4.681   5.376
 1962TIP3   OH2 5842   3.453   7.232   0.469
 1962TIP3    H1 5843   3.361   7.244   0.489
 1962TIP3    H2 5844   3.497   7.308   0.508
 1963TIP3   OH2 5845   5.672   6.014   0.711
 1963TIP3    H1 5846   5.602   5.981   0.654
 1963TIP3    H2 5847   5.674   5.953   0.785
 1964TIP3   OH2 5848   6.397   4.696   1.259
 1964TIP3    H1 5849   6.438   4.685   1.345
 1964TIP3    H2 5850   6.458   4.752   1.210
 1965TIP3   OH2 5851   7.077   2.976   2.661
 1965TIP3    H1 5852   7.106   2.951   2.749
 1965TIP3    H2 5853   7.088   2.896   2.609
 1966TIP3   OH2 5854   2.653   6.076   5.531
 1966TIP3    H1 5855   2.569   6.121   5.526
 1966TIP3    H2 5856   2.695   6.112   5.609
 1967TIP3   OH2 5857   3.638   4.774   2.331
 1967TIP3    H1 5858   3.711   4.836   2.331
 1967TIP3    H2 5859   3.561   4.829   2.346
 1968TIP3   OH2 5860   2.001   4.691   4.845
 1968TIP3    H1 5861   2.051   4.610   4.854
 1968TIP3    H2 5862   1.923   4.676   4.899
 1969TIP3   OH2 5863   7.366   3.286   2.142
 1969TIP3    H1 5864   7.322   3.304   2.059
 1969TIP3    H2 5865   7.437   3.350   2.145
 1970TIP3   OH2 5866   6.351   0.313   5.223
 1970TIP3    H1 5867   6.361   0.234   5.275
 1970TIP3    H2 5868   6.264   0.345   5.245
 1971TIP3   OH2 5869   1.074   0.599   6.646
 1971TIP3    H1 5870   1.103   0.655   6.574
 1971TIP3    H2 5871   1.075   0.656   6.723
 1972TIP3   OH2 5872   3.033   5.435   1.326
 1972TIP3    H1 5873   2.963   5.492   1.294
 1972TIP3    H2 5874   3.073   5.398   1.247
 1973TIP3   OH2 5875   4.891   2.716   2.952
 1973TIP3    H1 5876   4.931   2.751   2.872
 1973TIP3    H2 5877   4.942   2.755   3.023
 1974TIP3   OH2 5878   1.589   3.009   3.345
 1974TIP3    H1 5879   1.629   2.946   3.405
 1974TIP3    H2 5880   1.554   3.077   3.402
 1975TIP3   OH2 5881   4.469   3.497   1.932
 1975TIP3    H1 5882   4.539   3.467   1.990
 1975TIP3    H2 5883   4.394   3.440   1.953
 1976TIP3   OH2 5884   2.248   7.196   3.949
 1976TIP3    H1 5885   2.177   7.133   3.951
 1976TIP3    H2 5886   2.219   7.267   4.007
 1977TIP3   OH2 5887   3.691   5.189   6.651
 1977TIP3    H1 5888   3.607   5.144   6.644
 1977TIP3    H2 5889   3.683   5.264   6.593
 1978TIP3   OH2 5890   4.543   5.052   4.397
 1978TIP3    H1 5891   4.466   5.054   4.454
 1978TIP3    H2 5892   4.548   4.961   4.367
 1979TIP3   OH2 5893   8.314   2.742   1.004
 1979TIP3    H1 5894   8.261   2.758   1.082
 1979TIP3    H2 5895   8.272   2.666   0.963
 1980TIP3   OH2 5896   1.344   5.828   3.732
 1980TIP3    H1 5897   1.348   5.770   3.809
 1980TIP3    H2 5898   1.306   5.909   3.765
 1981TIP3   OH2 5899   6.274   3.046   4.779
 1981TIP3    H1 5900   6.236   3.132   4.793
 1981TIP3    H2 5901   6.263   3.001   4.863
 1982TIP3   OH2 5902   0.441   7.578   2.571
 1982TIP3    H1 5903   0.353   7.585   2.609
 1982TIP3    H2 5904   0.500   7.588   2.646
 1983TIP3   OH2 5905   7.958   2.852   3.555
 1983TIP3    H1 5906   7.874   2.812   3.575
 1983TIP3    H2 5907   8.007   2.848   3.638
 1984TIP3   OH2 5908   6.466   7.021   0.747
 1984TIP3    H1 5909   6.510   7.097   0.710
 1984TIP3    H2 5910   6.462   7.038   0.841
 1985TIP3   OH2 5911   3.750   2.700   1.390
 1985TIP3    H1 5912   3.734   2.763   1.319
 1985TIP3    H2 5913   3.702   2.735   1.465
 1986TIP3   OH2 5914   1.169   4.284   2.702
 1986TIP3    H1 5915   1.156   4.293   2.607
 1986TIP3    H2 5916   1.126   4.201   2.724
 1987TIP3   OH2 5917   6.488   2.731   0.905
 1987TIP3    H1 5918   6.550   2.762   0.971
 1987TIP3    H2 5919   6.536   2.737   0.822
 1988TIP3   OH2 5920   7.694   4.956   0.698
 1988TIP3    H1 5921   7.632   4.930   0.766
 1988TIP3    H2 5922   7.684   5.051   0.692
 1989TIP3   OH2 5923   6.853   2.469   4.928
 1989TIP3    H1 5924   6.943   2.436   4.925
 1989TIP3    H2 5925   6.860   2.554   4.971
 1990TIP3   OH2 5926   2.748   1.081   3.250
 1990TIP3    H1 5927   2.758   1.043   3.163
 1990TIP3    H2 5928   2.684   1.151   3.239
 1991TIP3   OH2 5929   0.868   0.800   1.577
 1991TIP3    H1 5930   0.902   0.714   1.601
 1991TIP3    H2 5931   0.872   0.851   1.658
 1992TIP3   OH2 5932   1.454   2.814   2.895
 1992TIP3    H1 5933   1.439   2.844   2.985
 1992TIP3    H2 5934   1.546   2.832   2.879
 1993TIP3   OH2 5935   3.501   0.067   4.930
 1993TIP3    H1 5936   3.553  -0.011   4.914
 1993TIP3    H2 5937   3.416   0.034   4.959
 1994TIP3   OH2 5938   8.277   5.982   6.456
 1994TIP3    H1 5939   8.308   6.066   6.488
 1994TIP3    H2 5940   8.183   5.995   6.441
 1995TIP3   OH2 5941   1.321   1.494   5.558
 1995TIP3    H1 5942   1.317   1.400   5.573
 1995TIP3    H2 5943   1.235   1.517   5.524
 1996TIP3   OH2 5944   2.346   5.701   2.269
 1996TIP3    H1 5945   2.297   5.703   2.351
 1996TIP3    H2 5946   2.399   5.781   2.271
 1997TIP3   OH2 5947   2.687   0.676   2.841
 1997TIP3    H1 5948   2.701   0.731   2.917
 1997TIP3    H2 5949   2.694   0.736   2.766
 1998TIP3   OH2 5950   1.178   7.454   0.896
 1998TIP3    H1 5951   1.258   7.500   0.924
 1998TIP3    H2 5952   1.118   7.523   0.871
 1999TIP3   OH2 5953   7.579   5.112   5.603
 1999TIP3    H1 5954   7.624   5.101   5.520
 1999TIP3    H2 5955   7.489   5.086   5.585
 2000TIP3   OH2 5956   6.688   7.765   2.297
 2000TIP3    H1 5957   6.637   7.758   2.217
 2000TIP3    H2 5958   6.642   7.831   2.349
 2001TIP3   OH2 5959   1.555   3.437   6.667
 2001TIP3    H1 5960   1.548   3.350   6.707
 2001TIP3    H2 5961   1.529   3.497   6.736
 2002TIP3   OH2 5962   5.452   0.270   2.586
 2002TIP3    H1 5963   5.358   0.254   2.599
 2002TIP3    H2 5964   5.493   0.184   2.597
 2003TIP3   OH2 5965   3.371   6.365   5.930
 2003TIP3    H1 5966   3.295   6.371   5.988
 2003TIP3    H2 5967   3.428   6.437   5.957
 2004TIP3   OH2 5968   0.847   0.918   0.787
 2004TIP3    H1 5969   0.941   0.910   0.768
 2004TIP3    H2 5970   0.843   0.919   0.883
 2005TIP3   OH2 5971   1.209   5.165   2.630
 2005TIP3    H1 5972   1.123   5.202   2.613
 2005TIP3    H2 5973   1.199   5.071   2.616
 2006TIP3   OH2 5974   3.604   5.550   4.713
 2006TIP3    H1 5975   3.638   5.627   4.759
 2006TIP3    H2 5976   3.612   5.572   4.620
 2007TIP3   OH2 5977   3.441   2.997   1.194
 2007TIP3    H1 5978   3.396   3.076   1.223
 2007TIP3    H2 5979   3.402   2.927   1.246
 2008TIP3   OH2 5980   1.755   4.827   1.693
 2008TIP3    H1 5981   1.779   4.795   1.606
 2008TIP3    H2 5982   1.811   4.776   1.753
 2009TIP3   OH2 5983   2.081   2.224   6.517
 2009TIP3    H1 5984   2.071   2.278   6.438
 2009TIP3    H2 5985   2.028   2.268   6.583
 2010TIP3   OH2 5986   2.702   4.206   6.355
 2010TIP3    H1 5987   2.610   4.188   6.376
 2010TIP3    H2 5988   2.738   4.121   6.331
 2011TIP3   OH2 5989   0.488   3.647   6.665
 2011TIP3    H1 5990   0.561   3.679   6.613
 2011TIP3    H2 5991   0.520   3.566   6.706
 2012TIP3   OH2 5992   6.040   6.031   1.184
 2012TIP3    H1 5993   5.972   6.004   1.122
 2012TIP3    H2 5994   6.031   6.126   1.190
 2013TIP3   OH2 5995   0.321   4.759   0.138
 2013TIP3    H1 5996   0.395   4.817   0.118
 2013TIP3    H2 5997   0.264   4.811   0.195
 2014TIP3   OH2 5998   1.251   6.487   6.224
 2014TIP3    H1 5999   1.288   6.456   6.141
 2014TIP3    H2 6000   1.307   6.561   6.248
 2015TIP3   OH2 6001   7.331  -0.018   1.133
 2015TIP3    H1 6002   7.353   0.064   1.090
 2015TIP3    H2 6003   7.235  -0.020   1.134
 2016TIP3   OH2 6004   3.539   1.120   5.622
 2016TIP3    H1 6005   3.608   1.067   5.661
 2016TIP3    H2 6006   3.584   1.198   5.590
 2017TIP3   OH2 6007   0.602   7.779   4.159
 2017TIP3    H1 6008   0.611   7.684   4.159
 2017TIP3    H2 6009   0.509   7.795   4.147
 2018TIP3   OH2 6010   5.166   2.096   6.516
 2018TIP3    H1 6011   5.141   2.004   6.529
 2018TIP3    H2 6012   5.179   2.104   6.421
 2019TIP3   OH2 6013   0.830   6.071   3.764
 2019TIP3    H1 6014   0.772   6.023   3.824
 2019TIP3    H2 6015   0.896   6.110   3.822
 2020TIP3   OH2 6016   0.492   4.598   0.395
 2020TIP3    H1 6017   0.511   4.566   0.306
 2020TIP3    H2 6018   0.410   4.555   0.418
 2021TIP3   OH2 6019   1.852   6.661   1.806
 2021TIP3    H1 6020   1.921   6.643   1.870
 2021TIP3    H2 6021   1.857   6.588   1.744
 2022TIP3   OH2 6022   2.283   2.488   6.391
 2022TIP3    H1 6023   2.208   2.433   6.372
 2022TIP3    H2 6024   2.262   2.531   6.473
 2023TIP3   OH2 6025   6.094   7.175   6.336
 2023TIP3    H1 6026   6.039   7.104   6.368
 2023TIP3    H2 6027   6.176   7.133   6.310
 2024TIP3   OH2 6028   6.217   4.190   1.577
 2024TIP3    H1 6029   6.242   4.220   1.490
 2024TIP3    H2 6030   6.218   4.094   1.571
 2025TIP3   OH2 6031   5.958   7.099   6.713
 2025TIP3    H1 6032   6.017   7.026   6.696
 2025TIP3    H2 6033   5.870   7.063   6.705
 2026TIP3   OH2 6034   2.564   0.581   4.760
 2026TIP3    H1 6035   2.561   0.664   4.807
 2026TIP3    H2 6036   2.636   0.533   4.801
 2027TIP3   OH2 6037   3.393   2.819   0.077
 2027TIP3    H1 6038   3.468   2.760   0.077
 2027TIP3    H2 6039   3.389   2.853   0.167
 2028TIP3   OH2 6040   3.208   6.019   6.609
 2028TIP3    H1 6041   3.287   5.979   6.575
 2028TIP3    H2 6042   3.145   5.947   6.616
 2029TIP3   OH2 6043   0.042   1.085   1.642
 2029TIP3    H1 6044   0.097   1.006   1.635
 2029TIP3    H2 6045  -0.040   1.060   1.599
 2030TIP3   OH2 6046   7.754   2.762   2.665
 2030TIP3    H1 6047   7.690   2.807   2.610
 2030TIP3    H2 6048   7.839   2.781   2.625
 2031TIP3   OH2 6049   4.080   4.968   0.091
 2031TIP3    H1 6050   3.986   4.983   0.080
 2031TIP3    H2 6051   4.091   4.873   0.078
 2032TIP3   OH2 6052   2.953   4.670   6.662
 2032TIP3    H1 6053   2.949   4.643   6.570
 2032TIP3    H2 6054   3.005   4.751   6.660
 2033TIP3   OH2 6055   7.894   2.047   0.831
 2033TIP3    H1 6056   7.812   2.091   0.808
 2033TIP3    H2 6057   7.896   1.968   0.777
 2034TIP3   OH2 6058   0.721   4.608   2.687
 2034TIP3    H1 6059   0.626   4.607   2.699
 2034TIP3    H2 6060   0.757   4.613   2.776
 2035TIP3   OH2 6061   2.418   1.817   0.192
 2035TIP3    H1 6062   2.347   1.796   0.252
 2035TIP3    H2 6063   2.486   1.752   0.211
 2036TIP3   OH2 6064   6.799   2.934   3.924
 2036TIP3    H1 6065   6.731   2.972   3.980
 2036TIP3    H2 6066   6.763   2.850   3.896
 2037TIP3   OH2 6067   5.460   5.528   4.656
 2037TIP3    H1 6068   5.492   5.441   4.681
 2037TIP3    H2 6069   5.447   5.574   4.739
 2038TIP3   OH2 6070   0.192   2.158   4.613
 2038TIP3    H1 6071   0.270   2.212   4.600
 2038TIP3    H2 6072   0.158   2.184   4.699
 2039TIP3   OH2 6073   1.818   3.233   2.404
 2039TIP3    H1 6074   1.833   3.154   2.353
 2039TIP3    H2 6075   1.900   3.282   2.396
 2040TIP3   OH2 6076   6.612   5.653   4.815
 2040TIP3    H1 6077   6.644   5.566   4.837
 2040TIP3    H2 6078   6.540   5.638   4.754
 2041TIP3   OH2 6079   8.088   3.456   3.499
 2041TIP3    H1 6080   8.096   3.384   3.437
 2041TIP3    H2 6081   7.999   3.489   3.486
 2042TIP3   OH2 6082   8.165   6.360   0.121
 2042TIP3    H1 6083   8.244   6.307   0.131
 2042TIP3    H2 6084   8.123   6.326   0.042
 2043TIP3   OH2 6085   2.548   3.842   4.481
 2043TIP3    H1 6086   2.541   3.820   4.388
 2043TIP3    H2 6087   2.460   3.826   4.516
 2044TIP3   OH2 6088   1.983   7.487   2.816
 2044TIP3    H1 6089   2.053   7.540   2.777
 2044TIP3    H2 6090   1.982   7.406   2.766
 2045TIP3   OH2 6091   4.065   4.147   5.816
 2045TIP3    H1 6092   3.986   4.103   5.785
 2045TIP3    H2 6093   4.128   4.136   5.745
 2046TIP3   OH2 6094   1.552   3.944   2.111
 2046TIP3    H1 6095   1.604   3.989   2.177
 2046TIP3    H2 6096   1.589   3.856   2.106
 2047TIP3   OH2 6097   3.686   4.952   2.946
 2047TIP3    H1 6098   3.687   4.861   2.916
 2047TIP3    H2 6099   3.752   4.996   2.893
 2048TIP3   OH2 6100   5.503   5.057   1.667
 2048TIP3    H1 6101   5.425   5.055   1.722
 2048TIP3    H2 6102   5.551   4.978   1.692
 2049TIP3   OH2 6103   2.139   0.886   6.349
 2049TIP3    H1 6104   2.132   0.980   6.364
 2049TIP3    H2 6105   2.051   0.852   6.368
 2050TIP3   OH2 6106   1.207   4.325   4.713
 2050TIP3    H1 6107   1.187   4.349   4.804
 2050TIP3    H2 6108   1.122   4.320   4.670
 2051TIP3   OH2 6109   2.977   3.369   0.209
 2051TIP3    H1 6110   2.982   3.433   0.139
 2051TIP3    H2 6111   2.960   3.420   0.288
 2052TIP3   OH2 6112   5.600   5.130   2.176
 2052TIP3    H1 6113   5.670   5.131   2.241
 2052TIP3    H2 6114   5.642   5.101   2.095
 2053TIP3   OH2 6115   7.217   0.203   0.855
 2053TIP3    H1 6116   7.232   0.113   0.826
 2053TIP3    H2 6117   7.165   0.242   0.785
 2054TIP3   OH2 6118   6.454   3.018   0.671
 2054TIP3    H1 6119   6.411   3.090   0.624
 2054TIP3    H2 6120   6.446   2.943   0.612
 2055TIP3   OH2 6121   3.462   1.406   2.925
 2055TIP3    H1 6122   3.375   1.367   2.935
 2055TIP3    H2 6123   3.522   1.332   2.919
 2056TIP3   OH2 6124   4.853   5.538   4.133
 2056TIP3    H1 6125   4.904   5.615   4.156
 2056TIP3    H2 6126   4.763   5.569   4.130
 2057TIP3   OH2 6127   2.250   2.578   2.836
 2057TIP3    H1 6128   2.168   2.616   2.865
 2057TIP3    H2 6129   2.228   2.487   2.815
 2058TIP3   OH2 6130   1.751   6.195   4.785
 2058TIP3    H1 6131   1.758   6.141   4.864
 2058TIP3    H2 6132   1.677   6.159   4.737
 2059TIP3   OH2 6133   7.715   5.569   6.421
 2059TIP3    H1 6134   7.740   5.650   6.378
 2059TIP3    H2 6135   7.703   5.506   6.350
 2060TIP3   OH2 6136   6.142   6.239   4.157
 2060TIP3    H1 6137   6.144   6.328   4.120
 2060TIP3    H2 6138   6.193   6.245   4.237
 2061TIP3   OH2 6139   0.772   3.565   3.948
 2061TIP3    H1 6140   0.759   3.533   3.859
 2061TIP3    H2 6141   0.705   3.521   4.000
 2062TIP3   OH2 6142   2.912   1.960   2.102
 2062TIP3    H1 6143   2.881   1.937   2.014
 2062TIP3    H2 6144   2.930   2.054   2.097
 2063TIP3   OH2 6145   4.746   6.813   1.204
 2063TIP3    H1 6146   4.833   6.781   1.230
 2063TIP3    H2 6147   4.762   6.861   1.123
 2064TIP3   OH2 6148   5.047   6.839   5.125
 2064TIP3    H1 6149   5.063   6.863   5.034
 2064TIP3    H2 6150   5.014   6.749   5.121
 2065TIP3   OH2 6151   1.639   1.560   3.402
 2065TIP3    H1 6152   1.638   1.536   3.309
 2065TIP3    H2 6153   1.680   1.485   3.445
 2066TIP3   OH2 6154   5.626   2.948   0.169
 2066TIP3    H1 6155   5.628   2.869   0.114
 2066TIP3    H2 6156   5.559   2.930   0.235
 2067TIP3   OH2 6157   6.428   0.489   4.905
 2067TIP3    H1 6158   6.515   0.450   4.917
 2067TIP3    H2 6159   6.433   0.572   4.953
 2068TIP3   OH2 6160   0.705   0.745   2.530
 2068TIP3    H1 6161   0.679   0.702   2.612
 2068TIP3    H2 6162   0.797   0.767   2.543
 2069TIP3   OH2 6163   1.790   6.533   0.881
 2069TIP3    H1 6164   1.820   6.446   0.855
 2069TIP3    H2 6165   1.715   6.516   0.938
 2070TIP3   OH2 6166   6.965   0.486   0.003
 2070TIP3    H1 6167   6.900   0.552   0.025
 2070TIP3    H2 6168   6.944   0.412   0.060
 2071TIP3   OH2 6169   4.805   2.104   1.522
 2071TIP3    H1 6170   4.807   2.079   1.430
 2071TIP3    H2 6171   4.834   2.195   1.523
 2072TIP3   OH2 6172   4.384   2.781   3.052
 2072TIP3    H1 6173   4.394   2.688   3.075
 2072TIP3    H2 6174   4.473   2.817   3.059
 2073TIP3   OH2 6175   2.329   3.312   6.447
 2073TIP3    H1 6176   2.356   3.316   6.539
 2073TIP3    H2 6177   2.409   3.286   6.400
 2074TIP3   OH2 6178   4.611   4.411   1.734
 2074TIP3    H1 6179   4.698   4.447   1.749
 2074TIP3    H2 6180   4.601   4.410   1.639
 2075TIP3   OH2 6181   0.876   5.069   0.504
 2075TIP3    H1 6182   0.803   5.009   0.491
 2075TIP3    H2 6183   0.909   5.087   0.416
 2076TIP3   OH2 6184   1.669   6.278   5.935
 2076TIP3    H1 6185   1.677   6.241   5.847
 2076TIP3    H2 6186   1.747   6.247   5.982
 2077TIP3   OH2 6187   1.873   6.302   1.619
 2077TIP3    H1 6188   1.828   6.239   1.562
 2077TIP3    H2 6189   1.854   6.387   1.581
 2078TIP3   OH2 6190   0.805   1.529   1.831
 2078TIP3    H1 6191   0.864   1.594   1.794
 2078TIP3    H2 6192   0.863   1.465   1.873
 2079TIP3   OH2 6193   7.187   3.188   6.500
 2079TIP3    H1 6194   7.158   3.097   6.503
 2079TIP3    H2 6195   7.129   3.230   6.437
 2080TIP3   OH2 6196   3.533   3.692   2.853
 2080TIP3    H1 6197   3.569   3.762   2.799
 2080TIP3    H2 6198   3.554   3.611   2.805
 2081TIP3   OH2 6199   5.366   5.113   6.230
 2081TIP3    H1 6200   5.278   5.124   6.194
 2081TIP3    H2 6201   5.379   5.019   6.234
 2082TIP3   OH2 6202   4.975   0.223   3.378
 2082TIP3    H1 6203   5.029   0.296   3.409
 2082TIP3    H2 6204   4.919   0.203   3.453
 2083TIP3   OH2 6205   3.990   0.152   4.908
 2083TIP3    H1 6206   4.031   0.194   4.983
 2083TIP3    H2 6207   3.965   0.065   4.939
 2084TIP3   OH2 6208   0.063   7.112   0.333
 2084TIP3    H1 6209   0.143   7.078   0.292
 2084TIP3    H2 6210   0.084   7.204   0.353
 2085TIP3   OH2 6211   4.038   3.418   2.730
 2085TIP3    H1 6212   4.120   3.425   2.780
 2085TIP3    H2 6213   3.980   3.483   2.770
 2086TIP3   OH2 6214   8.074   0.388   2.258
 2086TIP3    H1 6215   8.125   0.376   2.339
 2086TIP3    H2 6216   8.008   0.319   2.260
 2087TIP3   OH2 6217   5.265   0.409   2.287
 2087TIP3    H1 6218   5.316   0.439   2.212
 2087TIP3    H2 6219   5.248   0.316   2.269
 2088TIP3   OH2 6220   6.926   6.379   6.539
 2088TIP3    H1 6221   6.889   6.294   6.564
 2088TIP3    H2 6222   6.921   6.432   6.618
 2089TIP3   OH2 6223   4.784   1.151   3.441
 2089TIP3    H1 6224   4.879   1.137   3.433
 2089TIP3    H2 6225   4.776   1.237   3.483
 2090TIP3   OH2 6226   0.135   2.351   5.425
 2090TIP3    H1 6227   0.228   2.326   5.426
 2090TIP3    H2 6228   0.120   2.390   5.511
 2091TIP3   OH2 6229   2.502   2.346   4.597
 2091TIP3    H1 6230   2.444   2.317   4.526
 2091TIP3    H2 6231   2.448   2.405   4.650
 2092TIP3   OH2 6232   5.122   0.726   2.307
 2092TIP3    H1 6233   5.210   0.693   2.321
 2092TIP3    H2 6234   5.069   0.648   2.292
 2093TIP3   OH2 6235   6.135   6.497   4.139
 2093TIP3    H1 6236   6.053   6.545   4.127
 2093TIP3    H2 6237   6.161   6.516   4.229
 2094TIP3   OH2 6238   4.529   2.316   3.729
 2094TIP3    H1 6239   4.465   2.247   3.746
 2094TIP3    H2 6240   4.505   2.386   3.791
 2095TIP3   OH2 6241   6.538   5.039   6.022
 2095TIP3    H1 6242   6.533   5.092   6.102
 2095TIP3    H2 6243   6.463   5.067   5.970
 2096TIP3   OH2 6244   0.602   0.813   0.567
 2096TIP3    H1 6245   0.568   0.852   0.486
 2096TIP3    H2 6246   0.697   0.828   0.563
 2097TIP3   OH2 6247   1.911   5.379   1.168
 2097TIP3    H1 6248   1.900   5.472   1.149
 2097TIP3    H2 6249   1.951   5.376   1.254
 2098TIP3   OH2 6250   3.409   6.187   5.311
 2098TIP3    H1 6251   3.381   6.270   5.350
 2098TIP3    H2 6252   3.416   6.207   5.217
 2099TIP3   OH2 6253   6.516   3.733   1.754
 2099TIP3    H1 6254   6.488   3.823   1.772
 2099TIP3    H2 6255   6.451   3.701   1.691
 2100TIP3   OH2 6256   3.610   5.630   4.438
 2100TIP3    H1 6257   3.528   5.598   4.402
 2100TIP3    H2 6258   3.629   5.709   4.388
 2101TIP3   OH2 6259   3.183   3.672   4.756
 2101TIP3    H1 6260   3.116   3.646   4.693
 2101TIP3    H2 6261   3.142   3.743   4.807
 2102TIP3   OH2 6262   7.111   5.047   4.562
 2102TIP3    H1 6263   7.034   5.046   4.617
 2102TIP3    H2 6264   7.183   5.018   4.619
 2103TIP3   OH2 6265   1.833   6.088   4.268
 2103TIP3    H1 6266   1.746   6.059   4.240
 2103TIP3    H2 6267   1.869   6.131   4.190
 2104TIP3   OH2 6268   6.401   5.513   1.389
 2104TIP3    H1 6269   6.403   5.432   1.440
 2104TIP3    H2 6270   6.491   5.525   1.359
 2105TIP3   OH2 6271   3.828   1.400   5.500
 2105TIP3    H1 6272   3.829   1.328   5.563
 2105TIP3    H2 6273   3.836   1.356   5.415
 2106TIP3   OH2 6274   1.260   4.297   1.350
 2106TIP3    H1 6275   1.257   4.231   1.281
 2106TIP3    H2 6276   1.278   4.379   1.304
 2107TIP3   OH2 6277   4.190   1.516   5.823
 2107TIP3    H1 6278   4.193   1.603   5.783
 2107TIP3    H2 6279   4.103   1.483   5.801
 2108TIP3   OH2 6280   6.699   5.903   4.926
 2108TIP3    H1 6281   6.749   5.931   4.850
 2108TIP3    H2 6282   6.672   5.813   4.905
 2109TIP3   OH2 6283   5.930   6.941   4.177
 2109TIP3    H1 6284   5.927   6.887   4.255
 2109TIP3    H2 6285   5.850   6.919   4.129
 2110TIP3   OH2 6286   1.926   1.489   1.841
 2110TIP3    H1 6287   1.948   1.573   1.882
 2110TIP3    H2 6288   1.847   1.507   1.791
 2111TIP3   OH2 6289   7.187   3.437   2.394
 2111TIP3    H1 6290   7.119   3.432   2.327
 2111TIP3    H2 6291   7.168   3.364   2.453
 2112TIP3   OH2 6292   4.625   1.398   6.789
 2112TIP3    H1 6293   4.650   1.322   6.735
 2112TIP3    H2 6294   4.708   1.442   6.808
 2113TIP3   OH2 6295   6.320   6.893   4.996
 2113TIP3    H1 6296   6.403   6.934   5.019
 2113TIP3    H2 6297   6.302   6.833   5.069
 2114TIP3   OH2 6298   2.692   0.791   5.124
 2114TIP3    H1 6299   2.746   0.791   5.203
 2114TIP3    H2 6300   2.668   0.699   5.112
 2115TIP3   OH2 6301   2.351   4.395   4.624
 2115TIP3    H1 6302   2.310   4.460   4.681
 2115TIP3    H2 6303   2.411   4.445   4.569
 2116TIP3   OH2 6304   6.642   7.348   6.695
 2116TIP3    H1 6305   6.612   7.257   6.692
 2116TIP3    H2 6306   6.733   7.342   6.723
 2117TIP3   OH2 6307   6.470   6.753   0.844
 2117TIP3    H1 6308   6.416   6.805   0.785
 2117TIP3    H2 6309   6.560   6.779   0.823
 2118TIP3   OH2 6310   2.826   1.473   0.284
 2118TIP3    H1 6311   2.886   1.530   0.332
 2118TIP3    H2 6312   2.883   1.420   0.229
 2119TIP3   OH2 6313   0.866   6.341   4.037
 2119TIP3    H1 6314   0.939   6.290   4.002
 2119TIP3    H2 6315   0.891   6.432   4.023
 2120TIP3   OH2 6316   1.033   0.334   1.699
 2120TIP3    H1 6317   0.957   0.379   1.662
 2120TIP3    H2 6318   1.096   0.404   1.717
 2121TIP3   OH2 6319   1.473   1.689   4.221
 2121TIP3    H1 6320   1.497   1.770   4.265
 2121TIP3    H2 6321   1.439   1.717   4.136
 2122TIP3   OH2 6322   7.810   0.053   5.639
 2122TIP3    H1 6323   7.896   0.047   5.681
 2122TIP3    H2 6324   7.753  -0.002   5.692
 2123TIP3   OH2 6325   3.033   5.998   4.196
 2123TIP3    H1 6326   2.985   6.027   4.118
 2123TIP3    H2 6327   3.052   5.905   4.180
 2124TIP3   OH2 6328   4.668   3.823   6.527
 2124TIP3    H1 6329   4.706   3.876   6.457
 2124TIP3    H2 6330   4.744   3.784   6.571
 2125TIP3   OH2 6331   3.264   7.649   6.324
 2125TIP3    H1 6332   3.261   7.572   6.380
 2125TIP3    H2 6333   3.263   7.614   6.235
 2126TIP3   OH2 6334   6.360   0.247   3.274
 2126TIP3    H1 6335   6.388   0.335   3.300
 2126TIP3    H2 6336   6.369   0.247   3.178
 2127TIP3   OH2 6337   7.847   2.305   3.774
 2127TIP3    H1 6338   7.922   2.274   3.724
 2127TIP3    H2 6339   7.792   2.351   3.710
 2128TIP3   OH2 6340   5.475   2.535   0.980
 2128TIP3    H1 6341   5.430   2.601   1.033
 2128TIP3    H2 6342   5.529   2.585   0.919
 2129TIP3   OH2 6343   5.483   7.678   3.789
 2129TIP3    H1 6344   5.537   7.739   3.839
 2129TIP3    H2 6345   5.507   7.694   3.697
 2130TIP3   OH2 6346   2.669   3.693   6.439
 2130TIP3    H1 6347   2.586   3.669   6.481
 2130TIP3    H2 6348   2.728   3.621   6.462
 2131TIP3   OH2 6349   2.864   7.229   0.196
 2131TIP3    H1 6350   2.814   7.155   0.230
 2131TIP3    H2 6351   2.798   7.292   0.168
 2132TIP3   OH2 6352   6.593   3.205   3.851
 2132TIP3    H1 6353   6.501   3.205   3.878
 2132TIP3    H2 6354   6.593   3.162   3.766
 2133TIP3   OH2 6355   0.799   1.623   4.948
 2133TIP3    H1 6356   0.777   1.589   5.035
 2133TIP3    H2 6357   0.866   1.562   4.916
 2134TIP3   OH2 6358   1.882   1.574   2.308
 2134TIP3    H1 6359   1.966   1.613   2.334
 2134TIP3    H2 6360   1.879   1.491   2.356
 2135TIP3   OH2 6361   3.023   7.259   5.904
 2135TIP3    H1 6362   2.953   7.316   5.872
 2135TIP3    H2 6363   3.103   7.296   5.868
 2136TIP3   OH2 6364   7.300   3.068   5.294
 2136TIP3    H1 6365   7.309   3.121   5.215
 2136TIP3    H2 6366   7.216   3.094   5.331
 2137TIP3   OH2 6367   3.849   6.014   3.959
 2137TIP3    H1 6368   3.934   5.971   3.968
 2137TIP3    H2 6369   3.855   6.092   4.013
 2138TIP3   OH2 6370   6.504   3.966   0.166
 2138TIP3    H1 6371   6.417   3.939   0.196
 2138TIP3    H2 6372   6.564   3.908   0.212
 2139TIP3   OH2 6373   7.097   3.166   0.817
 2139TIP3    H1 6374   7.182   3.172   0.861
 2139TIP3    H2 6375   7.117   3.140   0.727
 2140TIP3   OH2 6376   6.165   1.204   4.604
 2140TIP3    H1 6377   6.232   1.272   4.596
 2140TIP3    H2 6378   6.207   1.125   4.569
 2141TIP3   OH2 6379   3.309   5.893   1.738
 2141TIP3    H1 6380   3.386   5.890   1.682
 2141TIP3    H2 6381   3.267   5.976   1.717
 2142TIP3   OH2 6382   3.876   0.814   5.819
 2142TIP3    H1 6383   3.911   0.895   5.856
 2142TIP3    H2 6384   3.781   0.824   5.823
 2143TIP3   OH2 6385   2.933   1.530   0.993
 2143TIP3    H1 6386   2.852   1.487   1.020
 2143TIP3    H2 6387   2.940   1.606   1.052
 2144TIP3   OH2 6388   6.248   0.704   0.909
 2144TIP3    H1 6389   6.202   0.778   0.870
 2144TIP3    H2 6390   6.281   0.737   0.992
 2145TIP3   OH2 6391   6.175   3.917   1.536
 2145TIP3    H1 6392   6.168   3.827   1.568
 2145TIP3    H2 6393   6.182   3.908   1.441
 2146TIP3   OH2 6394   2.569   3.190   5.224
 2146TIP3    H1 6395   2.637   3.224   5.165
 2146TIP3    H2 6396   2.604   3.106   5.254
 2147TIP3   OH2 6397   7.552   6.603   2.914
 2147TIP3    H1 6398   7.535   6.553   2.834
 2147TIP3    H2 6399   7.536   6.542   2.985
 2148TIP3   OH2 6400   5.010   6.733   1.295
 2148TIP3    H1 6401   5.061   6.742   1.375
 2148TIP3    H2 6402   5.056   6.785   1.230
 2149TIP3   OH2 6403   6.279   1.692   1.720
 2149TIP3    H1 6404   6.195   1.737   1.730
 2149TIP3    H2 6405   6.302   1.664   1.808
 2150TIP3   OH2 6406   6.628   4.891   3.101
 2150TIP3    H1 6407   6.655   4.820   3.159
 2150TIP3    H2 6408   6.576   4.849   3.033
 2151TIP3   OH2 6409   0.507   5.509   1.803
 2151TIP3    H1 6410   0.432   5.453   1.820
 2151TIP3    H2 6411   0.500   5.531   1.709
 2152TIP3   OH2 6412   4.683   3.645   0.367
 2152TIP3    H1 6413   4.676   3.586   0.442
 2152TIP3    H2 6414   4.631   3.722   0.393
 2153TIP3   OH2 6415   5.575   0.183   1.495
 2153TIP3    H1 6416   5.556   0.268   1.534
 2153TIP3    H2 6417   5.518   0.121   1.541
 2154TIP3   OH2 6418   8.087   3.470   2.588
 2154TIP3    H1 6419   8.004   3.506   2.621
 2154TIP3    H2 6420   8.151   3.540   2.604
 2155TIP3   OH2 6421   4.424   2.266   2.223
 2155TIP3    H1 6422   4.405   2.349   2.267
 2155TIP3    H2 6423   4.512   2.277   2.187
 2156TIP3   OH2 6424   6.973   1.778   2.416
 2156TIP3    H1 6425   6.964   1.767   2.511
 2156TIP3    H2 6426   7.029   1.705   2.389
 2157TIP3   OH2 6427   7.175   0.672   5.492
 2157TIP3    H1 6428   7.256   0.621   5.496
 2157TIP3    H2 6429   7.176   0.712   5.405
 2158TIP3   OH2 6430   0.765   6.101   1.566
 2158TIP3    H1 6431   0.829   6.075   1.499
 2158TIP3    H2 6432   0.707   6.162   1.520
 2159TIP3   OH2 6433   3.434   3.228   4.030
 2159TIP3    H1 6434   3.493   3.153   4.023
 2159TIP3    H2 6435   3.491   3.305   4.021
 2160TIP3   OH2 6436   1.667   3.767   0.408
 2160TIP3    H1 6437   1.747   3.779   0.356
 2160TIP3    H2 6438   1.691   3.797   0.496
 2161TIP3   OH2 6439   5.313   3.061   2.890
 2161TIP3    H1 6440   5.246   3.023   2.834
 2161TIP3    H2 6441   5.368   2.987   2.916
 2162TIP3   OH2 6442   2.315   5.666   2.714
 2162TIP3    H1 6443   2.261   5.652   2.793
 2162TIP3    H2 6444   2.369   5.588   2.709
 2163TIP3   OH2 6445   1.572   4.658   0.217
 2163TIP3    H1 6446   1.598   4.641   0.126
 2163TIP3    H2 6447   1.645   4.626   0.269
 2164TIP3   OH2 6448   2.052   4.911   5.828
 2164TIP3    H1 6449   2.106   4.989   5.843
 2164TIP3    H2 6450   1.989   4.938   5.762
 2165TIP3   OH2 6451   6.723   3.484   0.477
 2165TIP3    H1 6452   6.756   3.394   0.469
 2165TIP3    H2 6453   6.662   3.494   0.403
 2166TIP3   OH2 6454   0.021   5.616   2.811
 2166TIP3    H1 6455   0.088   5.617   2.743
 2166TIP3    H2 6456   0.028   5.529   2.850
 2167TIP3   OH2 6457   0.604   3.890   1.687
 2167TIP3    H1 6458   0.649   3.873   1.604
 2167TIP3    H2 6459   0.513   3.904   1.663
 2168TIP3   OH2 6460   6.208   1.115   6.460
 2168TIP3    H1 6461   6.117   1.142   6.451
 2168TIP3    H2 6462   6.238   1.157   6.541
 2169TIP3   OH2 6463   7.388   1.191   4.388
 2169TIP3    H1 6464   7.309   1.239   4.413
 2169TIP3    H2 6465   7.382   1.182   4.293
 2170TIP3   OH2 6466   3.593   6.016   5.842
 2170TIP3    H1 6467   3.653   6.085   5.869
 2170TIP3    H2 6468   3.612   6.001   5.750
 2171TIP3   OH2 6469   8.087   1.764   3.415
 2171TIP3    H1 6470   8.135   1.780   3.496
 2171TIP3    H2 6471   8.111   1.675   3.389
 2172TIP3   OH2 6472   7.919   2.027   1.351
 2172TIP3    H1 6473   7.942   1.938   1.323
 2172TIP3    H2 6474   7.848   2.014   1.414
 2173TIP3   OH2 6475   4.236   4.154   3.721
 2173TIP3    H1 6476   4.241   4.110   3.636
 2173TIP3    H2 6477   4.254   4.085   3.785
 2174TIP3   OH2 6478   7.354   4.425   3.361
 2174TIP3    H1 6479   7.327   4.388   3.446
 2174TIP3    H2 6480   7.274   4.463   3.325
 2175TIP3   OH2 6481   0.075   3.958   2.633
 2175TIP3    H1 6482   0.119   4.016   2.695
 2175TIP3    H2 6483  -0.016   3.957   2.660
 2176TIP3   OH2 6484   5.581   2.187   0.715
 2176TIP3    H1 6485   5.674   2.190   0.736
 2176TIP3    H2 6486   5.563   2.095   0.696
 2177TIP3   OH2 6487   4.308   1.889   0.532
 2177TIP3    H1 6488   4.278   1.924   0.616
 2177TIP3    H2 6489   4.394   1.851   0.552
 2178TIP3   OH2 6490   1.464   6.249   5.642
 2178TIP3    H1 6491   1.372   6.238   5.666
 2178TIP3    H2 6492   1.505   6.167   5.668
 2179TIP3   OH2 6493   4.162   3.523   1.695
 2179TIP3    H1 6494   4.227   3.578   1.652
 2179TIP3    H2 6495   4.172   3.543   1.789
 2180TIP3   OH2 6496   0.321   6.069   3.129
 2180TIP3    H1 6497   0.256   6.063   3.058
 2180TIP3    H2 6498   0.404   6.045   3.087
 2181TIP3   OH2 6499   6.033   7.264   2.456
 2181TIP3    H1 6500   6.047   7.304   2.543
 2181TIP3    H2 6501   6.015   7.339   2.399
 2182TIP3   OH2 6502   4.866   1.785   0.997
 2182TIP3    H1 6503   4.960   1.771   0.999
 2182TIP3    H2 6504   4.830   1.705   0.958
 2183TIP3   OH2 6505   4.972   6.643   6.728
 2183TIP3    H1 6506   4.921   6.576   6.682
 2183TIP3    H2 6507   4.972   6.718   6.669
 2184TIP3   OH2 6508   2.062   5.301   5.380
 2184TIP3    H1 6509   1.988   5.329   5.325
 2184TIP3    H2 6510   2.133   5.360   5.355
 2185TIP3   OH2 6511   5.906   5.030   5.167
 2185TIP3    H1 6512   5.983   4.985   5.202
 2185TIP3    H2 6513   5.845   4.959   5.146
 2186TIP3   OH2 6514   7.461   0.753   3.880
 2186TIP3    H1 6515   7.512   0.674   3.896
 2186TIP3    H2 6516   7.475   0.807   3.958
 2187TIP3   OH2 6517   1.170   1.554   4.243
 2187TIP3    H1 6518   1.102   1.621   4.237
 2187TIP3    H2 6519   1.231   1.589   4.308
 2188TIP3   OH2 6520   3.510   0.578   5.210
 2188TIP3    H1 6521   3.605   0.576   5.199
 2188TIP3    H2 6522   3.477   0.621   5.131
 2189TIP3   OH2 6523   7.520   5.563   0.937
 2189TIP3    H1 6524   7.502   5.469   0.932
 2189TIP3    H2 6525   7.569   5.574   1.018
 2190TIP3   OH2 6526   7.616   2.448   2.116
 2190TIP3    H1 6527   7.652   2.470   2.030
 2190TIP3    H2 6528   7.577   2.529   2.148
 2191TIP3   OH2 6529   5.305   4.143   1.002
 2191TIP3    H1 6530   5.236   4.095   0.954
 2191TIP3    H2 6531   5.277   4.139   1.093
 2192TIP3   OH2 6532   7.189   7.731   3.590
 2192TIP3    H1 6533   7.248   7.713   3.517
 2192TIP3    H2 6534   7.160   7.821   3.577
 2193TIP3   OH2 6535   5.017   0.465   5.918
 2193TIP3    H1 6536   5.067   0.387   5.892
 2193TIP3    H2 6537   4.926   0.436   5.919
 2194TIP3   OH2 6538   6.368   3.217   5.692
 2194TIP3    H1 6539   6.327   3.131   5.699
 2194TIP3    H2 6540   6.320   3.271   5.755
 2195TIP3   OH2 6541   1.591   1.535   6.336
 2195TIP3    H1 6542   1.537   1.486   6.274
 2195TIP3    H2 6543   1.671   1.554   6.287
 2196TIP3   OH2 6544   1.971   5.409   4.822
 2196TIP3    H1 6545   1.985   5.314   4.826
 2196TIP3    H2 6546   2.035   5.439   4.757
 2197TIP3   OH2 6547   2.699   4.440   3.281
 2197TIP3    H1 6548   2.620   4.388   3.266
 2197TIP3    H2 6549   2.667   4.529   3.297
 2198TIP3   OH2 6550   5.157   1.920   4.399
 2198TIP3    H1 6551   5.220   1.867   4.350
 2198TIP3    H2 6552   5.141   1.871   4.479
 2199TIP3   OH2 6553   4.595   0.405   1.482
 2199TIP3    H1 6554   4.550   0.485   1.509
 2199TIP3    H2 6555   4.553   0.380   1.399
 2200TIP3   OH2 6556   2.895   2.886   6.607
 2200TIP3    H1 6557   2.957   2.944   6.653
 2200TIP3    H2 6558   2.919   2.896   6.514
 2201TIP3   OH2 6559   7.413   4.077   1.319
 2201TIP3    H1 6560   7.446   4.023   1.391
 2201TIP3    H2 6561   7.395   4.162   1.359
 2202TIP3   OH2 6562   0.464   2.866   3.419
 2202TIP3    H1 6563   0.480   2.943   3.474
 2202TIP3    H2 6564   0.551   2.831   3.402
 2203TIP3   OH2 6565   7.981   3.951   3.850
 2203TIP3    H1 6566   8.062   3.976   3.804
 2203TIP3    H2 6567   7.978   3.856   3.843
 2204TIP3   OH2 6568   4.951   3.932   5.339
 2204TIP3    H1 6569   4.921   3.932   5.430
 2204TIP3    H2 6570   4.871   3.930   5.287
 2205TIP3   OH2 6571   4.782   1.339   4.624
 2205TIP3    H1 6572   4.796   1.259   4.573
 2205TIP3    H2 6573   4.704   1.379   4.585
 2206TIP3   OH2 6574   3.948   5.854   2.633
 2206TIP3    H1 6575   3.912   5.942   2.637
 2206TIP3    H2 6576   3.956   5.827   2.725
 2207TIP3   OH2 6577   0.844   2.430   0.296
 2207TIP3    H1 6578   0.768   2.471   0.335
 2207TIP3    H2 6579   0.892   2.501   0.254
 2208TIP3   OH2 6580   4.464   1.743   3.084
 2208TIP3    H1 6581   4.420   1.657   3.084
 2208TIP3    H2 6582   4.513   1.745   3.002
 2209TIP3   OH2 6583   2.331   5.109   3.050
 2209TIP3    H1 6584   2.295   5.193   3.024
 2209TIP3    H2 6585   2.267   5.044   3.022
 2210TIP3   OH2 6586   4.624   2.013   5.954
 2210TIP3    H1 6587   4.677   2.090   5.971
 2210TIP3    H2 6588   4.563   2.009   6.028
 2211TIP3   OH2 6589   2.090   4.496   2.738
 2211TIP3    H1 6590   2.028   4.496   2.810
 2211TIP3    H2 6591   2.139   4.414   2.748
 2212TIP3   OH2 6592   2.634   3.206   1.519
 2212TIP3    H1 6593   2.604   3.291   1.550
 2212TIP3    H2 6594   2.730   3.213   1.520
 2213TIP3   OH2 6595   4.906   7.285   2.811
 2213TIP3    H1 6596   4.906   7.275   2.906
 2213TIP3    H2 6597   4.988   7.242   2.783
 2214TIP3   OH2 6598   0.718   7.635   5.719
 2214TIP3    H1 6599   0.791   7.616   5.777
 2214TIP3    H2 6600   0.712   7.731   5.719
 2215TIP3   OH2 6601   1.049   3.229   2.470
 2215TIP3    H1 6602   0.986   3.208   2.539
 2215TIP3    H2 6603   1.135   3.217   2.512
 2216TIP3   OH2 6604   3.896   0.370   2.652
 2216TIP3    H1 6605   3.890   0.454   2.696
 2216TIP3    H2 6606   3.990   0.350   2.651
 2217TIP3   OH2 6607   3.924   6.374   6.636
 2217TIP3    H1 6608   3.890   6.301   6.687
 2217TIP3    H2 6609   3.909   6.349   6.545
 2218TIP3   OH2 6610   1.621   6.780   0.676
 2218TIP3    H1 6611   1.714   6.765   0.660
 2218TIP3    H2 6612   1.578   6.744   0.598
 2219TIP3   OH2 6613   6.522   4.285   3.438
 2219TIP3    H1 6614   6.569   4.327   3.510
 2219TIP3    H2 6615   6.445   4.245   3.480
 2220TIP3   OH2 6616   0.676   0.455   4.719
 2220TIP3    H1 6617   0.744   0.398   4.683
 2220TIP3    H2 6618   0.609   0.394   4.751
 2221TIP3   OH2 6619   0.121   1.190   0.180
 2221TIP3    H1 6620   0.217   1.187   0.181
 2221TIP3    H2 6621   0.096   1.150   0.097
 2222TIP3   OH2 6622   0.572   6.116   2.991
 2222TIP3    H1 6623   0.659   6.143   3.023
 2222TIP3    H2 6624   0.558   6.168   2.912
 2223TIP3   OH2 6625   7.032   2.808   1.000
 2223TIP3    H1 6626   7.124   2.793   0.979
 2223TIP3    H2 6627   7.002   2.871   0.934
 2224TIP3   OH2 6628   1.888   6.532   2.323
 2224TIP3    H1 6629   1.806   6.581   2.312
 2224TIP3    H2 6630   1.861   6.440   2.320
 2225TIP3   OH2 6631   3.236   7.249   5.219
 2225TIP3    H1 6632   3.159   7.291   5.257
 2225TIP3    H2 6633   3.309   7.306   5.244
 2226TIP3   OH2 6634   6.666   3.144   4.113
 2226TIP3    H1 6635   6.617   3.122   4.034
 2226TIP3    H2 6636   6.616   3.216   4.152
 2227TIP3   OH2 6637   2.649   0.087   3.211
 2227TIP3    H1 6638   2.604   0.170   3.225
 2227TIP3    H2 6639   2.596   0.023   3.258
 2228TIP3   OH2 6640   7.741   5.254   1.772
 2228TIP3    H1 6641   7.683   5.216   1.838
 2228TIP3    H2 6642   7.784   5.179   1.732
 2229TIP3   OH2 6643   3.526   2.432   5.243
 2229TIP3    H1 6644   3.591   2.393   5.301
 2229TIP3    H2 6645   3.554   2.407   5.155
 2230TIP3   OH2 6646   5.243   6.024   5.706
 2230TIP3    H1 6647   5.323   6.075   5.705
 2230TIP3    H2 6648   5.250   5.970   5.785
 2231TIP3   OH2 6649   1.629   7.739   3.449
 2231TIP3    H1 6650   1.655   7.655   3.487
 2231TIP3    H2 6651   1.699   7.799   3.474
 2232TIP3   OH2 6652   5.035   5.899   0.276
 2232TIP3    H1 6653   4.971   5.939   0.335
 2232TIP3    H2 6654   5.064   5.971   0.220
 2233TIP3   OH2 6655   2.625   7.293   5.059
 2233TIP3    H1 6656   2.547   7.261   5.013
 2233TIP3    H2 6657   2.697   7.243   5.022
 2234TIP3   OH2 6658   5.503   6.882   0.891
 2234TIP3    H1 6659   5.578   6.898   0.948
 2234TIP3    H2 6660   5.492   6.964   0.842
 2235TIP3   OH2 6661   6.209   7.449   6.583
 2235TIP3    H1 6662   6.267   7.482   6.652
 2235TIP3    H2 6663   6.211   7.354   6.593
 2236TIP3   OH2 6664   2.346   2.760   2.627
 2236TIP3    H1 6665   2.415   2.713   2.581
 2236TIP3    H2 6666   2.329   2.708   2.705
 2237TIP3   OH2 6667   1.824   1.117   0.335
 2237TIP3    H1 6668   1.734   1.135   0.306
 2237TIP3    H2 6669   1.874   1.110   0.254
 2238TIP3   OH2 6670   5.400   7.620   5.797
 2238TIP3    H1 6671   5.472   7.564   5.827
 2238TIP3    H2 6672   5.337   7.619   5.869
 2239TIP3   OH2 6673   5.454   4.627   4.975
 2239TIP3    H1 6674   5.462   4.545   5.024
 2239TIP3    H2 6675   5.367   4.624   4.936
 2240TIP3   OH2 6676   1.364   5.613   1.888
 2240TIP3    H1 6677   1.413   5.695   1.888
 2240TIP3    H2 6678   1.431   5.545   1.880
 2241TIP3   OH2 6679   3.191   7.180   4.111
 2241TIP3    H1 6680   3.202   7.121   4.037
 2241TIP3    H2 6681   3.096   7.192   4.118
 2242TIP3   OH2 6682   0.817   1.504   1.472
 2242TIP3    H1 6683   0.848   1.419   1.501
 2242TIP3    H2 6684   0.827   1.561   1.549
 2243TIP3   OH2 6685   3.901   6.793   0.053
 2243TIP3    H1 6686   3.993   6.811   0.071
 2243TIP3    H2 6687   3.854   6.864   0.098
 2244TIP3   OH2 6688   6.248   0.978   3.143
 2244TIP3    H1 6689   6.315   1.021   3.197
 2244TIP3    H2 6690   6.262   1.013   3.056
 2245TIP3   OH2 6691   6.269   2.335   1.473
 2245TIP3    H1 6692   6.318   2.396   1.528
 2245TIP3    H2 6693   6.285   2.249   1.513
 2246TIP3   OH2 6694   5.525   6.550   1.841
 2246TIP3    H1 6695   5.482   6.567   1.926
 2246TIP3    H2 6696   5.608   6.508   1.864
 2247TIP3   OH2 6697   8.080   7.708   2.785
 2247TIP3    H1 6698   8.148   7.728   2.849
 2247TIP3    H2 6699   8.124   7.717   2.700
 2248TIP3   OH2 6700   4.111   5.039   6.290
 2248TIP3    H1 6701   4.074   5.051   6.202
 2248TIP3    H2 6702   4.205   5.054   6.279
 2249TIP3   OH2 6703   1.142   6.830   5.847
 2249TIP3    H1 6704   1.144   6.747   5.800
 2249TIP3    H2 6705   1.068   6.878   5.809
 2250TIP3   OH2 6706   7.482   0.069   6.630
 2250TIP3    H1 6707   7.424   0.015   6.577
 2250TIP3    H2 6708   7.551   0.096   6.570
 2251TIP3   OH2 6709   6.888   1.030   5.497
 2251TIP3    H1 6710   6.863   0.939   5.511
 2251TIP3    H2 6711   6.854   1.051   5.410
 2252TIP3   OH2 6712   3.566   4.478   4.482
 2252TIP3    H1 6713   3.488   4.459   4.534
 2252TIP3    H2 6714   3.605   4.393   4.464
 2253TIP3   OH2 6715   5.873   4.701   2.050
 2253TIP3    H1 6716   5.819   4.779   2.043
 2253TIP3    H2 6717   5.928   4.716   2.127
 2254TIP3   OH2 6718   4.973   2.481   1.160
 2254TIP3    H1 6719   4.889   2.458   1.121
 2254TIP3    H2 6720   5.039   2.455   1.096
 2255TIP3   OH2 6721   5.700   1.977   0.370
 2255TIP3    H1 6722   5.718   2.063   0.408
 2255TIP3    H2 6723   5.617   1.988   0.324
 2256TIP3   OH2 6724   7.250   6.407   0.048
 2256TIP3    H1 6725   7.310   6.453  -0.011
 2256TIP3    H2 6726   7.163   6.442   0.026
 2257TIP3   OH2 6727   7.406   6.548   4.195
 2257TIP3    H1 6728   7.385   6.634   4.159
 2257TIP3    H2 6729   7.361   6.545   4.280
 2258TIP3   OH2 6730   4.204   2.175   0.095
 2258TIP3    H1 6731   4.285   2.126   0.080
 2258TIP3    H2 6732   4.221   2.223   0.176
 2259TIP3   OH2 6733   0.708   5.539   2.723
 2259TIP3    H1 6734   0.763   5.488   2.665
 2259TIP3    H2 6735   0.619   5.527   2.689
 2260TIP3   OH2 6736   0.578   2.810   5.914
 2260TIP3    H1 6737   0.657   2.794   5.966
 2260TIP3    H2 6738   0.506   2.775   5.966
 2261TIP3   OH2 6739   2.407   7.802   2.434
 2261TIP3    H1 6740   2.395   7.897   2.436
 2261TIP3    H2 6741   2.467   7.786   2.361
 2262TIP3   OH2 6742   2.161   2.346   3.955
 2262TIP3    H1 6743   2.239   2.301   3.987
 2262TIP3    H2 6744   2.131   2.398   4.029
 2263TIP3   OH2 6745   7.554   1.015   5.143
 2263TIP3    H1 6746   7.464   1.047   5.144
 2263TIP3    H2 6747   7.553   0.938   5.199
 2264TIP3   OH2 6748   1.901   1.668   4.989
 2264TIP3    H1 6749   1.964   1.598   4.968
 2264TIP3    H2 6750   1.956   1.743   5.011
 2265TIP3   OH2 6751   8.282   1.181   2.219
 2265TIP3    H1 6752   8.242   1.205   2.135
 2265TIP3    H2 6753   8.329   1.259   2.246
 2266TIP3   OH2 6754   5.889   6.237   1.709
 2266TIP3    H1 6755   5.902   6.155   1.662
 2266TIP3    H2 6756   5.810   6.275   1.671
 2267TIP3   OH2 6757   1.356   1.002   2.545
 2267TIP3    H1 6758   1.310   1.081   2.574
 2267TIP3    H2 6759   1.286   0.938   2.529
 2268TIP3   OH2 6760   1.505   1.972   6.549
 2268TIP3    H1 6761   1.514   1.881   6.577
 2268TIP3    H2 6762   1.436   2.007   6.605
 2269TIP3   OH2 6763   4.525   3.136   6.709
 2269TIP3    H1 6764   4.615   3.160   6.732
 2269TIP3    H2 6765   4.534   3.061   6.650
 2270TIP3   OH2 6766   5.089   1.116   2.857
 2270TIP3    H1 6767   4.998   1.121   2.885
 2270TIP3    H2 6768   5.085   1.072   2.772
 2271TIP3   OH2 6769   6.405   4.369   4.617
 2271TIP3    H1 6770   6.495   4.399   4.630
 2271TIP3    H2 6771   6.356   4.408   4.689
 2272TIP3   OH2 6772   5.334   7.088   4.245
 2272TIP3    H1 6773   5.307   7.014   4.192
 2272TIP3    H2 6774   5.341   7.161   4.184
 2273TIP3   OH2 6775   5.270   6.019   4.595
 2273TIP3    H1 6776   5.356   5.981   4.611
 2273TIP3    H2 6777   5.259   6.083   4.665
 2274TIP3   OH2 6778   1.335   5.173   6.054
 2274TIP3    H1 6779   1.319   5.139   5.966
 2274TIP3    H2 6780   1.389   5.250   6.041
 2275TIP3   OH2 6781   7.672   5.380   0.021
 2275TIP3    H1 6782   7.672   5.450   0.086
 2275TIP3    H2 6783   7.700   5.423  -0.060
 2276TIP3   OH2 6784   0.783   1.876   4.851
 2276TIP3    H1 6785   0.742   1.941   4.908
 2276TIP3    H2 6786   0.812   1.806   4.910
 2277TIP3   OH2 6787   4.950   5.257   2.920
 2277TIP3    H1 6788   5.022   5.214   2.966
 2277TIP3    H2 6789   4.968   5.350   2.929
 2278TIP3   OH2 6790   6.344   6.794   4.123
 2278TIP3    H1 6791   6.358   6.819   4.214
 2278TIP3    H2 6792   6.432   6.792   4.085
 2279TIP3   OH2 6793   4.498   6.111   4.436
 2279TIP3    H1 6794   4.521   6.204   4.430
 2279TIP3    H2 6795   4.581   6.065   4.423
 2280TIP3   OH2 6796   6.635   6.552   1.773
 2280TIP3    H1 6797   6.688   6.493   1.827
 2280TIP3    H2 6798   6.551   6.556   1.818
 2281TIP3   OH2 6799   5.225   1.002   3.235
 2281TIP3    H1 6800   5.282   0.953   3.175
 2281TIP3    H2 6801   5.282   1.023   3.309
 2282TIP3   OH2 6802   0.280   1.716   0.248
 2282TIP3    H1 6803   0.342   1.722   0.175
 2282TIP3    H2 6804   0.335   1.706   0.326
 2283TIP3   OH2 6805   4.183   0.378   3.713
 2283TIP3    H1 6806   4.212   0.287   3.707
 2283TIP3    H2 6807   4.263   0.429   3.709
 2284TIP3   OH2 6808   4.133   4.825   4.704
 2284TIP3    H1 6809   4.071   4.753   4.702
 2284TIP3    H2 6810   4.118   4.868   4.789
 2285TIP3   OH2 6811   4.910   7.443   4.046
 2285TIP3    H1 6812   4.874   7.355   4.055
 2285TIP3    H2 6813   4.898   7.482   4.132
 2286TIP3   OH2 6814   3.864   6.561   5.764
 2286TIP3    H1 6815   3.881   6.620   5.837
 2286TIP3    H2 6816   3.919   6.594   5.693
 2287TIP3   OH2 6817   7.022   6.180   3.992
 2287TIP3    H1 6818   6.947   6.127   3.966
 2287TIP3    H2 6819   7.098   6.125   3.973
 2288TIP3   OH2 6820   7.121   0.962   2.753
 2288TIP3    H1 6821   7.134   1.034   2.814
 2288TIP3    H2 6822   7.076   0.895   2.804
 2289TIP3   OH2 6823   2.839   0.592   1.130
 2289TIP3    H1 6824   2.888   0.634   1.059
 2289TIP3    H2 6825   2.907   0.550   1.184
 2290TIP3   OH2 6826   5.037   7.311   2.445
 2290TIP3    H1 6827   5.094   7.236   2.458
 2290TIP3    H2 6828   5.056   7.369   2.520
 2291TIP3   OH2 6829   5.890   0.950   2.761
 2291TIP3    H1 6830   5.830   0.895   2.710
 2291TIP3    H2 6831   5.943   0.887   2.810
 2292TIP3   OH2 6832   3.163   1.074   1.367
 2292TIP3    H1 6833   3.074   1.057   1.397
 2292TIP3    H2 6834   3.214   1.085   1.448
 2293TIP3   OH2 6835   1.236   6.251   1.283
 2293TIP3    H1 6836   1.156   6.285   1.323
 2293TIP3    H2 6837   1.209   6.169   1.241
 2294TIP3   OH2 6838   1.018   6.345   6.304
 2294TIP3    H1 6839   1.079   6.395   6.250
 2294TIP3    H2 6840   0.944   6.405   6.317
 2295TIP3   OH2 6841   0.112   1.787   6.109
 2295TIP3    H1 6842   0.100   1.735   6.188
 2295TIP3    H2 6843   0.165   1.732   6.051
 2296TIP3   OH2 6844   4.087   3.421   1.423
 2296TIP3    H1 6845   4.132   3.416   1.507
 2296TIP3    H2 6846   4.018   3.485   1.436
 2297TIP3   OH2 6847   2.989   0.460   3.419
 2297TIP3    H1 6848   2.921   0.402   3.453
 2297TIP3    H2 6849   3.026   0.502   3.496
 2298TIP3   OH2 6850   3.343   3.213   6.577
 2298TIP3    H1 6851   3.387   3.189   6.658
 2298TIP3    H2 6852   3.272   3.272   6.605
 2299TIP3   OH2 6853   5.698   1.059   0.196
 2299TIP3    H1 6854   5.646   0.985   0.165
 2299TIP3    H2 6855   5.680   1.130   0.134
 2300TIP3   OH2 6856   0.762   3.435   3.444
 2300TIP3    H1 6857   0.736   3.440   3.536
 2300TIP3    H2 6858   0.814   3.514   3.429
 2301TIP3   OH2 6859   5.439   1.161   4.600
 2301TIP3    H1 6860   5.531   1.185   4.594
 2301TIP3    H2 6861   5.431   1.081   4.548
 2302TIP3   OH2 6862   6.329   2.210   1.013
 2302TIP3    H1 6863   6.261   2.218   1.080
 2302TIP3    H2 6864   6.411   2.205   1.063
 2303TIP3   OH2 6865   7.338   1.235   4.120
 2303TIP3    H1 6866   7.363   1.154   4.078
 2303TIP3    H2 6867   7.242   1.231   4.127
 2304TIP3   OH2 6868   2.259   0.788   4.400
 2304TIP3    H1 6869   2.318   0.733   4.453
 2304TIP3    H2 6870   2.231   0.731   4.329
 2305TIP3   OH2 6871   4.076   1.734   1.252
 2305TIP3    H1 6872   4.020   1.776   1.318
 2305TIP3    H2 6873   4.111   1.657   1.296
 2306TIP3   OH2 6874   8.311   3.280   1.919
 2306TIP3    H1 6875   8.250   3.274   1.846
 2306TIP3    H2 6876   8.256   3.306   1.993
 2307TIP3   OH2 6877   7.149   6.622   4.971
 2307TIP3    H1 6878   7.212   6.659   5.034
 2307TIP3    H2 6879   7.102   6.556   5.021
 2308TIP3   OH2 6880   7.325   6.067   6.216
 2308TIP3    H1 6881   7.237   6.095   6.193
 2308TIP3    H2 6882   7.334   6.087   6.309
 2309TIP3   OH2 6883   4.521   1.125   3.298
 2309TIP3    H1 6884   4.472   1.198   3.337
 2309TIP3    H2 6885   4.610   1.137   3.330
 2310TIP3   OH2 6886   6.180   2.248   1.240
 2310TIP3    H1 6887   6.233   2.289   1.308
 2310TIP3    H2 6888   6.161   2.161   1.274
 2311TIP3   OH2 6889   2.343   1.944   5.936
 2311TIP3    H1 6890   2.341   2.019   5.876
 2311TIP3    H2 6891   2.256   1.905   5.928
 2312TIP3   OH2 6892   0.116   7.346   6.524
 2312TIP3    H1 6893   0.128   7.285   6.597
 2312TIP3    H2 6894   0.038   7.396   6.546
 2313TIP3   OH2 6895   4.929   5.774   6.437
 2313TIP3    H1 6896   4.934   5.775   6.532
 2313TIP3    H2 6897   4.863   5.841   6.416
 2314TIP3   OH2 6898   3.099   7.419   0.208
 2314TIP3    H1 6899   3.131   7.432   0.119
 2314TIP3    H2 6900   3.026   7.358   0.199
 2315TIP3   OH2 6901   1.176   5.179   0.734
 2315TIP3    H1 6902   1.146   5.124   0.806
 2315TIP3    H2 6903   1.096   5.215   0.696
 2316TIP3   OH2 6904   5.781   3.390   5.969
 2316TIP3    H1 6905   5.831   3.461   6.010
 2316TIP3    H2 6906   5.803   3.313   6.021
 2317TIP3   OH2 6907   2.729   1.644   6.126
 2317TIP3    H1 6908   2.796   1.686   6.072
 2317TIP3    H2 6909   2.710   1.562   6.081
 2318TIP3   OH2 6910   3.080   6.546   2.150
 2318TIP3    H1 6911   3.085   6.568   2.057
 2318TIP3    H2 6912   3.085   6.450   2.152
 2319TIP3   OH2 6913   5.749   5.055   1.492
 2319TIP3    H1 6914   5.801   4.980   1.522
 2319TIP3    H2 6915   5.658   5.029   1.509
 2320TIP3   OH2 6916   7.316   2.343   4.121
 2320TIP3    H1 6917   7.292   2.352   4.029
 2320TIP3    H2 6918   7.410   2.360   4.123
 2321TIP3   OH2 6919   7.532   3.880   1.142
 2321TIP3    H1 6920   7.615   3.902   1.184
 2321TIP3    H2 6921   7.465   3.912   1.203
 2322TIP3   OH2 6922   4.443   6.443   4.605
 2322TIP3    H1 6923   4.477   6.533   4.599
 2322TIP3    H2 6924   4.352   6.450   4.576
 2323TIP3   OH2 6925   0.992   0.854   4.341
 2323TIP3    H1 6926   0.993   0.849   4.245
 2323TIP3    H2 6927   0.900   0.846   4.364
 2324TIP3   OH2 6928   0.059   0.198   2.297
 2324TIP3    H1 6929   0.000   0.266   2.264
 2324TIP3    H2 6930   0.063   0.134   2.227
 2325TIP3   OH2 6931   7.043   3.161   5.343
 2325TIP3    H1 6932   6.987   3.143   5.268
 2325TIP3    H2 6933   6.990   3.139   5.420
 2326TIP3   OH2 6934   2.547   0.871   4.105
 2326TIP3    H1 6935   2.611   0.916   4.159
 2326TIP3    H2 6936   2.466   0.920   4.118
 2327TIP3   OH2 6937   0.431   5.562   3.835
 2327TIP3    H1 6938   0.440   5.572   3.930
 2327TIP3    H2 6939   0.354   5.615   3.813
 2328TIP3   OH2 6940   3.804   2.140   1.731
 2328TIP3    H1 6941   3.800   2.217   1.674
 2328TIP3    H2 6942   3.713   2.111   1.739
 2329TIP3   OH2 6943   8.232   6.893   0.781
 2329TIP3    H1 6944   8.137   6.899   0.792
 2329TIP3    H2 6945   8.253   6.802   0.798
 2330TIP3   OH2 6946   3.911   0.662   1.366
 2330TIP3    H1 6947   3.873   0.637   1.450
 2330TIP3    H2 6948   3.958   0.743   1.384
 2331TIP3   OH2 6949   6.914   3.367   2.660
 2331TIP3    H1 6950   6.917   3.344   2.752
 2331TIP3    H2 6951   6.846   3.435   2.654
 2332TIP3   OH2 6952   5.214   5.165   1.741
 2332TIP3    H1 6953   5.281   5.226   1.712
 2332TIP3    H2 6954   5.142   5.177   1.679
 2333TIP3   OH2 6955   7.103   4.128   2.611
 2333TIP3    H1 6956   7.100   4.108   2.705
 2333TIP3    H2 6957   7.101   4.043   2.568
 2334TIP3   OH2 6958   3.462   7.583   3.413
 2334TIP3    H1 6959   3.431   7.602   3.501
 2334TIP3    H2 6960   3.382   7.577   3.360
 2335TIP3   OH2 6961   0.608   7.396   6.662
 2335TIP3    H1 6962   0.574   7.307   6.672
 2335TIP3    H2 6963   0.536   7.445   6.623
 2336TIP3   OH2 6964   7.041   4.389   6.303
 2336TIP3    H1 6965   6.981   4.348   6.366
 2336TIP3    H2 6966   7.128   4.361   6.331
 2337TIP3   OH2 6967   7.738   7.555   4.034
 2337TIP3    H1 6968   7.791   7.569   3.956
 2337TIP3    H2 6969   7.784   7.602   4.103
 2338TIP3   OH2 6970   5.859   3.619   6.079
 2338TIP3    H1 6971   5.820   3.652   6.160
 2338TIP3    H2 6972   5.826   3.677   6.011
 2339TIP3   OH2 6973   1.839   3.138   0.259
 2339TIP3    H1 6974   1.793   3.187   0.191
 2339TIP3    H2 6975   1.774   3.075   0.290
 2340TIP3   OH2 6976   5.681   7.160   3.760
 2340TIP3    H1 6977   5.630   7.184   3.837
 2340TIP3    H2 6978   5.771   7.185   3.782
 2341TIP3   OH2 6979   7.124   7.470   3.682
 2341TIP3    H1 6980   7.146   7.471   3.589
 2341TIP3    H2 6981   7.208   7.469   3.727
 2342TIP3   OH2 6982   8.331   5.481   6.035
 2342TIP3    H1 6983   8.293   5.442   6.114
 2342TIP3    H2 6984   8.265   5.544   6.005
 2343TIP3   OH2 6985   2.440   4.460   5.682
 2343TIP3    H1 6986   2.504   4.389   5.686
 2343TIP3    H2 6987   2.446   4.494   5.593
 2344TIP3   OH2 6988   7.609   1.828   3.998
 2344TIP3    H1 6989   7.553   1.906   4.000
 2344TIP3    H2 6990   7.681   1.850   4.057
 2345TIP3   OH2 6991   0.515   2.567   5.206
 2345TIP3    H1 6992   0.455   2.582   5.133
 2345TIP3    H2 6993   0.512   2.648   5.257
 2346TIP3   OH2 6994   5.613   3.757   0.080
 2346TIP3    H1 6995   5.597   3.664   0.090
 2346TIP3    H2 6996   5.695   3.762   0.031
 2347TIP3   OH2 6997   2.729   3.217   6.118
 2347TIP3    H1 6998   2.785   3.285   6.154
 2347TIP3    H2 6999   2.641   3.255   6.119
 2348TIP3   OH2 7000   5.173   1.565   4.811
 2348TIP3    H1 7001   5.237   1.551   4.880
 2348TIP3    H2 7002   5.190   1.495   4.747
 2349TIP3   OH2 7003   7.200   5.510   0.020
 2349TIP3    H1 7004   7.170   5.493   0.109
 2349TIP3    H2 7005   7.282   5.460   0.013
 2350TIP3   OH2 7006   1.572   4.382   3.651
 2350TIP3    H1 7007   1.638   4.447   3.675
 2350TIP3    H2 7008   1.538   4.412   3.567
 2351TIP3   OH2 7009   5.324   6.077   1.218
 2351TIP3    H1 7010   5.309   6.033   1.134
 2351TIP3    H2 7011   5.280   6.161   1.209
 2352TIP3   OH2 7012   6.572   4.615   0.914
 2352TIP3    H1 7013   6.532   4.693   0.954
 2352TIP3    H2 7014   6.500   4.552   0.907
 2353TIP3   OH2 7015   3.204   7.154   0.847
 2353TIP3    H1 7016   3.182   7.066   0.818
 2353TIP3    H2 7017   3.232   7.144   0.938
 2354TIP3   OH2 7018   5.311   5.733   0.893
 2354TIP3    H1 7019   5.391   5.681   0.882
 2354TIP3    H2 7020   5.285   5.717   0.983
 2355TIP3   OH2 7021   4.679   1.614   6.472
 2355TIP3    H1 7022   4.592   1.636   6.504
 2355TIP3    H2 7023   4.676   1.635   6.378
 2356TIP3   OH2 7024   4.096   3.544   3.824
 2356TIP3    H1 7025   4.184   3.516   3.797
 2356TIP3    H2 7026   4.037   3.498   3.764
 2357TIP3   OH2 7027   8.185   3.391   6.040
 2357TIP3    H1 7028   8.111   3.447   6.064
 2357TIP3    H2 7029   8.174   3.313   6.094
 2358TIP3   OH2 7030   7.236   4.993   0.140
 2358TIP3    H1 7031   7.272   5.075   0.172
 2358TIP3    H2 7032   7.177   5.018   0.069
 2359TIP3   OH2 7033   0.788   6.607   4.665
 2359TIP3    H1 7034   0.880   6.616   4.639
 2359TIP3    H2 7035   0.791   6.572   4.753
 2360TIP3   OH2 7036   5.845   1.624   2.620
 2360TIP3    H1 7037   5.861   1.545   2.569
 2360TIP3    H2 7038   5.768   1.664   2.579
 2361TIP3   OH2 7039   7.975   7.601   6.214
 2361TIP3    H1 7040   8.031   7.560   6.280
 2361TIP3    H2 7041   7.891   7.613   6.259
 2362TIP3   OH2 7042   6.581   5.985   4.224
 2362TIP3    H1 7043   6.512   5.961   4.285
 2362TIP3    H2 7044   6.639   6.043   4.275
 2363TIP3   OH2 7045   7.848   3.242   1.588
 2363TIP3    H1 7046   7.832   3.306   1.657
 2363TIP3    H2 7047   7.803   3.163   1.618
 2364TIP3   OH2 7048   2.034   1.378   3.950
 2364TIP3    H1 7049   2.026   1.446   3.882
 2364TIP3    H2 7050   2.090   1.311   3.911
 2365TIP3   OH2 7051   2.628   4.105   2.553
 2365TIP3    H1 7052   2.716   4.067   2.558
 2365TIP3    H2 7053   2.594   4.099   2.643
 2366TIP3   OH2 7054   0.064   2.340   2.462
 2366TIP3    H1 7055   0.036   2.251   2.484
 2366TIP3    H2 7056   0.027   2.394   2.531
 2367TIP3   OH2 7057   5.303   0.603   1.134
 2367TIP3    H1 7058   5.234   0.667   1.115
 2367TIP3    H2 7059   5.318   0.559   1.051
 2368TIP3   OH2 7060   1.121   7.231   2.578
 2368TIP3    H1 7061   1.072   7.275   2.509
 2368TIP3    H2 7062   1.069   7.154   2.600
 2369TIP3   OH2 7063   4.988   7.425   1.765
 2369TIP3    H1 7064   5.066   7.474   1.738
 2369TIP3    H2 7065   4.972   7.455   1.855
 2370TIP3   OH2 7066   7.849   2.229   1.154
 2370TIP3    H1 7067   7.783   2.160   1.144
 2370TIP3    H2 7068   7.920   2.186   1.203
 2371TIP3   OH2 7069   3.995   3.040   0.141
 2371TIP3    H1 7070   3.974   3.080   0.225
 2371TIP3    H2 7071   3.913   3.000   0.112
 2372TIP3   OH2 7072   7.696   6.849   6.212
 2372TIP3    H1 7073   7.716   6.941   6.200
 2372TIP3    H2 7074   7.634   6.847   6.285
 2373TIP3   OH2 7075   4.170   7.720   3.075
 2373TIP3    H1 7076   4.156   7.743   3.167
 2373TIP3    H2 7077   4.261   7.747   3.057
 2374TIP3   OH2 7078   6.520   0.363   4.058
 2374TIP3    H1 7079   6.572   0.373   3.979
 2374TIP3    H2 7080   6.582   0.334   4.125
 2375TIP3   OH2 7081   2.988   5.745   3.547
 2375TIP3    H1 7082   3.074   5.769   3.581
 2375TIP3    H2 7083   2.999   5.656   3.514
 2376TIP3   OH2 7084   0.073   5.393   0.252
 2376TIP3    H1 7085   0.067   5.298   0.245
 2376TIP3    H2 7086   0.072   5.410   0.347
 2377TIP3   OH2 7087   1.473   0.771   0.038
 2377TIP3    H1 7088   1.552   0.733   0.077
 2377TIP3    H2 7089   1.447   0.707  -0.029
 2378TIP3   OH2 7090   2.544   4.559   0.907
 2378TIP3    H1 7091   2.510   4.594   0.989
 2378TIP3    H2 7092   2.495   4.605   0.839
 2379TIP3   OH2 7093   7.747   0.604   5.488
 2379TIP3    H1 7094   7.799   0.597   5.408
 2379TIP3    H2 7095   7.748   0.515   5.525
 2380TIP3   OH2 7096   2.679   1.160   4.717
 2380TIP3    H1 7097   2.773   1.143   4.726
 2380TIP3    H2 7098   2.648   1.168   4.807
 2381TIP3   OH2 7099   8.052   6.871   2.199
 2381TIP3    H1 7100   7.969   6.881   2.153
 2381TIP3    H2 7101   8.029   6.825   2.280
 2382TIP3   OH2 7102   1.616   1.203   6.036
 2382TIP3    H1 7103   1.556   1.141   5.993
 2382TIP3    H2 7104   1.701   1.184   5.996
 2383TIP3   OH2 7105   0.184   4.687   6.306
 2383TIP3    H1 7106   0.183   4.773   6.265
 2383TIP3    H2 7107   0.094   4.672   6.334
 2384TIP3   OH2 7108   5.027   5.361   5.618
 2384TIP3    H1 7109   5.085   5.323   5.685
 2384TIP3    H2 7110   5.085   5.415   5.565
 2385TIP3   OH2 7111   8.225   2.518   6.063
 2385TIP3    H1 7112   8.194   2.506   6.153
 2385TIP3    H2 7113   8.176   2.594   6.031
 2386TIP3   OH2 7114   6.967   6.826   2.677
 2386TIP3    H1 7115   6.926   6.763   2.618
 2386TIP3    H2 7116   7.021   6.882   2.620
 2387TIP3   OH2 7117   3.596   5.533   3.776
 2387TIP3    H1 7118   3.520   5.474   3.778
 2387TIP3    H2 7119   3.594   5.578   3.860
 2388TIP3   OH2 7120   6.233   0.120   3.755
 2388TIP3    H1 7121   6.271   0.171   3.826
 2388TIP3    H2 7122   6.208   0.037   3.796
 2389TIP3   OH2 7123   2.939   5.966   4.902
 2389TIP3    H1 7124   2.894   5.950   4.985
 2389TIP3    H2 7125   2.894   6.042   4.865
 2390TIP3   OH2 7126   6.561   6.845   1.195
 2390TIP3    H1 7127   6.635   6.808   1.243
 2390TIP3    H2 7128   6.484   6.814   1.241
 2391TIP3   OH2 7129   1.298   1.000   3.192
 2391TIP3    H1 7130   1.207   1.014   3.164
 2391TIP3    H2 7131   1.305   0.906   3.203
 2392TIP3   OH2 7132   7.648   4.168   3.429
 2392TIP3    H1 7133   7.634   4.196   3.520
 2392TIP3    H2 7134   7.560   4.162   3.392
 2393TIP3   OH2 7135   5.217   5.647   1.177
 2393TIP3    H1 7136   5.127   5.678   1.177
 2393TIP3    H2 7137   5.265   5.713   1.227
 2394TIP3   OH2 7138   0.320   3.968   3.634
 2394TIP3    H1 7139   0.292   3.898   3.575
 2394TIP3    H2 7140   0.411   3.985   3.610
 2395TIP3   OH2 7141   1.150   7.716   2.155
 2395TIP3    H1 7142   1.077   7.771   2.183
 2395TIP3    H2 7143   1.226   7.751   2.201
 2396TIP3   OH2 7144   8.156   0.210   6.296
 2396TIP3    H1 7145   8.159   0.116   6.278
 2396TIP3    H2 7146   8.219   0.223   6.367
 2397TIP3   OH2 7147   2.631   2.456   3.665
 2397TIP3    H1 7148   2.720   2.425   3.683
 2397TIP3    H2 7149   2.624   2.539   3.713
 2398TIP3   OH2 7150   7.093   1.614   0.650
 2398TIP3    H1 7151   7.042   1.535   0.633
 2398TIP3    H2 7152   7.136   1.634   0.567
 2399TIP3   OH2 7153   7.474   3.478   1.723
 2399TIP3    H1 7154   7.452   3.386   1.737
 2399TIP3    H2 7155   7.545   3.477   1.659
 2400TIP3   OH2 7156   1.411   1.893   5.466
 2400TIP3    H1 7157   1.461   1.822   5.507
 2400TIP3    H2 7158   1.335   1.849   5.427
 2401TIP3   OH2 7159   7.057   6.072   1.003
 2401TIP3    H1 7160   7.023   6.040   0.920
 2401TIP3    H2 7161   7.072   6.165   0.989
 2402TIP3   OH2 7162   3.286   3.197   2.781
 2402TIP3    H1 7163   3.298   3.103   2.776
 2402TIP3    H2 7164   3.307   3.229   2.694
 2403TIP3   OH2 7165   6.214   3.962   1.994
 2403TIP3    H1 7166   6.241   4.031   2.055
 2403TIP3    H2 7167   6.272   3.973   1.919
 2404TIP3   OH2 7168   3.155   1.298   2.454
 2404TIP3    H1 7169   3.066   1.305   2.487
 2404TIP3    H2 7170   3.210   1.310   2.531
 2405TIP3   OH2 7171   3.065   5.214   1.960
 2405TIP3    H1 7172   3.099   5.237   1.873
 2405TIP3    H2 7173   3.004   5.285   1.981
 2406TIP3   OH2 7174   3.949   3.137   6.176
 2406TIP3    H1 7175   3.989   3.058   6.213
 2406TIP3    H2 7176   3.856   3.129   6.198
 2407TIP3   OH2 7177   5.621   4.189   2.974
 2407TIP3    H1 7178   5.573   4.205   3.055
 2407TIP3    H2 7179   5.708   4.228   2.990
 2408TIP3   OH2 7180   8.031   5.680   6.439
 2408TIP3    H1 7181   7.995   5.628   6.367
 2408TIP3    H2 7182   7.962   5.743   6.459
 2409TIP3   OH2 7183   7.648   5.425   1.584
 2409TIP3    H1 7184   7.681   5.378   1.661
 2409TIP3    H2 7185   7.617   5.356   1.525
 2410TIP3   OH2 7186   1.821   1.576   6.154
 2410TIP3    H1 7187   1.827   1.586   6.059
 2410TIP3    H2 7188   1.866   1.494   6.173
 2411TIP3   OH2 7189   5.733   4.354   4.125
 2411TIP3    H1 7190   5.827   4.336   4.131
 2411TIP3    H2 7191   5.692   4.277   4.165
 2412TIP3   OH2 7192   3.502   5.353   4.905
 2412TIP3    H1 7193   3.469   5.266   4.883
 2412TIP3    H2 7194   3.537   5.387   4.822
 2413TIP3   OH2 7195   0.733   3.640   2.619
 2413TIP3    H1 7196   0.828   3.638   2.613
 2413TIP3    H2 7197   0.703   3.653   2.529
 2414TIP3   OH2 7198   0.127   5.902   5.576
 2414TIP3    H1 7199   0.159   5.842   5.644
 2414TIP3    H2 7200   0.159   5.865   5.494
 2415TIP3   OH2 7201   7.415   0.225   5.896
 2415TIP3    H1 7202   7.391   0.175   5.818
 2415TIP3    H2 7203   7.459   0.303   5.862
 2416TIP3   OH2 7204   5.057   4.265   2.724
 2416TIP3    H1 7205   5.070   4.358   2.742
 2416TIP3    H2 7206   4.971   4.260   2.683
 2417TIP3   OH2 7207   0.654   5.315   1.283
 2417TIP3    H1 7208   0.619   5.280   1.201
 2417TIP3    H2 7209   0.745   5.338   1.262
 2418TIP3   OH2 7210   5.847   7.747   2.294
 2418TIP3    H1 7211   5.779   7.690   2.330
 2418TIP3    H2 7212   5.846   7.825   2.349
 2419TIP3   OH2 7213   5.287   5.221   2.506
 2419TIP3    H1 7214   5.243   5.171   2.437
 2419TIP3    H2 7215   5.276   5.167   2.584
 2420TIP3   OH2 7216   8.325   2.547   5.657
 2420TIP3    H1 7217   8.267   2.585   5.591
 2420TIP3    H2 7218   8.266   2.517   5.726
 2421TIP3   OH2 7219   6.285   0.881   1.742
 2421TIP3    H1 7220   6.377   0.855   1.739
 2421TIP3    H2 7221   6.268   0.901   1.834
 2422TIP3   OH2 7222   5.662   3.516   1.769
 2422TIP3    H1 7223   5.614   3.462   1.707
 2422TIP3    H2 7224   5.624   3.496   1.854
 2423TIP3   OH2 7225   4.101   4.546   6.501
 2423TIP3    H1 7226   4.056   4.627   6.522
 2423TIP3    H2 7227   4.127   4.555   6.409
 2424TIP3   OH2 7228   6.973   3.810   3.177
 2424TIP3    H1 7229   7.054   3.855   3.154
 2424TIP3    H2 7230   6.927   3.872   3.234
 2425TIP3   OH2 7231   0.654   5.189   1.958
 2425TIP3    H1 7232   0.637   5.228   1.873
 2425TIP3    H2 7233   0.635   5.096   1.946
 2426TIP3   OH2 7234   5.834   5.794   0.600
 2426TIP3    H1 7235   5.812   5.882   0.629
 2426TIP3    H2 7236   5.821   5.739   0.678
 2427TIP3   OH2 7237   5.675   2.315   5.556
 2427TIP3    H1 7238   5.719   2.367   5.490
 2427TIP3    H2 7239   5.702   2.225   5.538
 2428TIP3   OH2 7240   5.629   0.711   1.641
 2428TIP3    H1 7241   5.579   0.766   1.580
 2428TIP3    H2 7242   5.608   0.747   1.727
 2429TIP3   OH2 7243   3.388   3.722   0.218
 2429TIP3    H1 7244   3.319   3.671   0.177
 2429TIP3    H2 7245   3.463   3.663   0.220
 2430TIP3   OH2 7246   4.684   5.119   5.378
 2430TIP3    H1 7247   4.721   5.193   5.426
 2430TIP3    H2 7248   4.736   5.116   5.297
 2431TIP3   OH2 7249   1.978   1.264   4.406
 2431TIP3    H1 7250   2.001   1.171   4.402
 2431TIP3    H2 7251   2.049   1.304   4.457
 2432TIP3   OH2 7252   6.138   4.394   2.339
 2432TIP3    H1 7253   6.186   4.375   2.420
 2432TIP3    H2 7254   6.206   4.406   2.273
 2433TIP3   OH2 7255   5.252   4.724   2.886
 2433TIP3    H1 7256   5.239   4.698   2.794
 2433TIP3    H2 7257   5.166   4.755   2.915
 2434TIP3   OH2 7258   3.373   6.310   1.247
 2434TIP3    H1 7259   3.299   6.362   1.216
 2434TIP3    H2 7260   3.437   6.375   1.275
 2435TIP3   OH2 7261   0.179   1.539   5.962
 2435TIP3    H1 7262   0.240   1.471   5.991
 2435TIP3    H2 7263   0.151   1.511   5.875
 2436TIP3   OH2 7264   6.520   2.859   2.585
 2436TIP3    H1 7265   6.522   2.763   2.590
 2436TIP3    H2 7266   6.610   2.886   2.600
 2437TIP3   OH2 7267   6.367   4.566   2.184
 2437TIP3    H1 7268   6.359   4.610   2.269
 2437TIP3    H2 7269   6.441   4.610   2.141
 2438TIP3   OH2 7270   1.068   4.058   5.223
 2438TIP3    H1 7271   1.109   4.131   5.270
 2438TIP3    H2 7272   1.002   4.024   5.284
 2439TIP3   OH2 7273   2.045   1.771   6.766
 2439TIP3    H1 7274   2.021   1.727   6.847
 2439TIP3    H2 7275   1.965   1.771   6.714
 2440TIP3   OH2 7276   2.531   6.811   0.117
 2440TIP3    H1 7277   2.448   6.801   0.164
 2440TIP3    H2 7278   2.597   6.779   0.178
 2441TIP3   OH2 7279   1.371   5.396   5.005
 2441TIP3    H1 7280   1.345   5.308   4.979
 2441TIP3    H2 7281   1.374   5.445   4.922
 2442TIP3   OH2 7282   7.055   1.291   0.351
 2442TIP3    H1 7283   7.055   1.225   0.281
 2442TIP3    H2 7284   7.085   1.371   0.308
 2443TIP3   OH2 7285   0.665   3.822   3.405
 2443TIP3    H1 7286   0.573   3.813   3.378
 2443TIP3    H2 7287   0.662   3.884   3.478
 2444TIP3   OH2 7288  -0.003   4.189   1.677
 2444TIP3    H1 7289   0.061   4.123   1.649
 2444TIP3    H2 7290   0.049   4.257   1.719
 2445TIP3   OH2 7291   6.834   5.718   3.507
 2445TIP3    H1 7292   6.759   5.759   3.463
 2445TIP3    H2 7293   6.822   5.740   3.599
 2446TIP3   OH2 7294   4.580   1.900   3.641
 2446TIP3    H1 7295   4.562   1.964   3.572
 2446TIP3    H2 7296   4.624   1.828   3.595
 2447TIP3   OH2 7297   2.148   7.022   0.380
 2447TIP3    H1 7298   2.147   6.932   0.413
 2447TIP3    H2 7299   2.151   7.076   0.458
 2448TIP3   OH2 7300   0.615   1.712   0.433
 2448TIP3    H1 7301   0.558   1.669   0.496
 2448TIP3    H2 7302   0.617   1.803   0.461
 2449TIP3   OH2 7303   5.823   4.527   5.109
 2449TIP3    H1 7304   5.741   4.512   5.157
 2449TIP3    H2 7305   5.882   4.563   5.175
 2450TIP3   OH2 7306   1.746   5.039   6.761
 2450TIP3    H1 7307   1.740   5.124   6.717
 2450TIP3    H2 7308   1.745   4.975   6.690
 2451TIP3   OH2 7309   5.464   4.302   4.382
 2451TIP3    H1 7310   5.544   4.269   4.424
 2451TIP3    H2 7311   5.393   4.266   4.434
 2452TIP3   OH2 7312   0.570   2.991   2.575
 2452TIP3    H1 7313   0.647   2.944   2.608
 2452TIP3    H2 7314   0.529   2.930   2.514
 2453TIP3   OH2 7315   8.178   2.971   5.606
 2453TIP3    H1 7316   8.139   3.044   5.557
 2453TIP3    H2 7317   8.104   2.912   5.623
 2454TIP3   OH2 7318   8.024   0.706   4.168
 2454TIP3    H1 7319   8.110   0.746   4.159
 2454TIP3    H2 7320   7.966   0.761   4.115
 2455TIP3   OH2 7321   7.306   3.466   6.013
 2455TIP3    H1 7322   7.329   3.511   5.932
 2455TIP3    H2 7323   7.281   3.378   5.985
 2456TIP3   OH2 7324   2.138   2.163   3.024
 2456TIP3    H1 7325   2.052   2.121   3.036
 2456TIP3    H2 7326   2.133   2.243   3.076
 2457TIP3   OH2 7327   6.121   0.974   3.582
 2457TIP3    H1 7328   6.085   1.059   3.559
 2457TIP3    H2 7329   6.077   0.913   3.523
 2458TIP3   OH2 7330   2.818   4.196   1.232
 2458TIP3    H1 7331   2.871   4.120   1.257
 2458TIP3    H2 7332   2.738   4.158   1.196
 2459TIP3   OH2 7333   4.180   1.823   3.621
 2459TIP3    H1 7334   4.234   1.834   3.699
 2459TIP3    H2 7335   4.241   1.831   3.548
 2460TIP3   OH2 7336   3.239   1.279   3.011
 2460TIP3    H1 7337   3.231   1.244   3.100
 2460TIP3    H2 7338   3.184   1.221   2.958
 2461TIP3   OH2 7339   6.166   5.670   5.638
 2461TIP3    H1 7340   6.160   5.762   5.612
 2461TIP3    H2 7341   6.212   5.627   5.565
 2462TIP3   OH2 7342   1.458   7.318   0.469
 2462TIP3    H1 7343   1.495   7.244   0.421
 2462TIP3    H2 7344   1.403   7.278   0.536
 2463TIP3   OH2 7345   2.198   3.574   5.366
 2463TIP3    H1 7346   2.170   3.517   5.437
 2463TIP3    H2 7347   2.255   3.639   5.409
 2464TIP3   OH2 7348   0.357   4.093   2.166
 2464TIP3    H1 7349   0.387   4.168   2.114
 2464TIP3    H2 7350   0.264   4.111   2.180
 2465TIP3   OH2 7351   3.613   2.900   4.525
 2465TIP3    H1 7352   3.565   2.974   4.488
 2465TIP3    H2 7353   3.696   2.938   4.555
 2466TIP3   OH2 7354   6.511   4.131   1.531
 2466TIP3    H1 7355   6.505   4.179   1.449
 2466TIP3    H2 7356   6.501   4.039   1.505
 2467TIP3   OH2 7357   2.244   2.909   2.946
 2467TIP3    H1 7358   2.187   2.857   2.890
 2467TIP3    H2 7359   2.217   3.000   2.931
 2468TIP3   OH2 7360   7.232   1.655   5.216
 2468TIP3    H1 7361   7.282   1.729   5.182
 2468TIP3    H2 7362   7.291   1.610   5.276
 2469TIP3   OH2 7363   4.265   2.042   4.135
 2469TIP3    H1 7364   4.190   1.984   4.144
 2469TIP3    H2 7365   4.327   1.992   4.082
 2470TIP3   OH2 7366   1.376   5.415   5.841
 2470TIP3    H1 7367   1.281   5.406   5.850
 2470TIP3    H2 7368   1.394   5.506   5.862
 2471TIP3   OH2 7369   1.304   5.137   4.894
 2471TIP3    H1 7370   1.394   5.134   4.861
 2471TIP3    H2 7371   1.251   5.100   4.823
 2472TIP3   OH2 7372   4.284   5.934   3.779
 2472TIP3    H1 7373   4.251   5.945   3.689
 2472TIP3    H2 7374   4.340   6.010   3.793
 2473TIP3   OH2 7375   4.552   1.125   1.907
 2473TIP3    H1 7376   4.478   1.094   1.855
 2473TIP3    H2 7377   4.514   1.142   1.994
 2474TIP3   OH2 7378   3.957   0.151   2.315
 2474TIP3    H1 7379   3.879   0.117   2.358
 2474TIP3    H2 7380   4.030   0.106   2.358
 2475TIP3   OH2 7381   3.804   7.250  -0.008
 2475TIP3    H1 7382   3.805   7.262   0.087
 2475TIP3    H2 7383   3.888   7.286  -0.037
 2476TIP3   OH2 7384   2.779   0.683   3.148
 2476TIP3    H1 7385   2.700   0.639   3.180
 2476TIP3    H2 7386   2.803   0.744   3.218
 2477TIP3   OH2 7387   2.015   4.070   6.256
 2477TIP3    H1 7388   2.048   4.044   6.343
 2477TIP3    H2 7389   2.053   4.005   6.197
 2478TIP3   OH2 7390   1.241   2.813   2.736
 2478TIP3    H1 7391   1.273   2.867   2.664
 2478TIP3    H2 7392   1.319   2.788   2.784
 2479TIP3   OH2 7393   5.651   1.806   6.662
 2479TIP3    H1 7394   5.695   1.729   6.626
 2479TIP3    H2 7395   5.718   1.874   6.662
 2480TIP3   OH2 7396   5.266   0.596   3.129
 2480TIP3    H1 7397   5.357   0.626   3.138
 2480TIP3    H2 7398   5.259   0.523   3.190
 2481TIP3   OH2 7399   1.635   4.993   2.860
 2481TIP3    H1 7400   1.632   4.905   2.821
 2481TIP3    H2 7401   1.597   4.982   2.947
 2482TIP3   OH2 7402   5.729   6.833   1.287
 2482TIP3    H1 7403   5.778   6.902   1.331
 2482TIP3    H2 7404   5.737   6.853   1.194
 2483TIP3   OH2 7405   6.209   1.781   2.926
 2483TIP3    H1 7406   6.272   1.838   2.881
 2483TIP3    H2 7407   6.172   1.726   2.856
 2484TIP3   OH2 7408   1.337   2.169   1.008
 2484TIP3    H1 7409   1.330   2.164   0.912
 2484TIP3    H2 7410   1.415   2.223   1.024
 2485TIP3   OH2 7411   4.878   0.971   0.881
 2485TIP3    H1 7412   4.942   1.040   0.899
 2485TIP3    H2 7413   4.903   0.936   0.796
 2486TIP3   OH2 7414   2.763   6.874   5.049
 2486TIP3    H1 7415   2.831   6.807   5.051
 2486TIP3    H2 7416   2.791   6.938   5.115
 2487TIP3   OH2 7417   4.683   1.736   3.454
 2487TIP3    H1 7418   4.588   1.730   3.445
 2487TIP3    H2 7419   4.718   1.700   3.373
 2488TIP3   OH2 7420   2.586   5.327   3.790
 2488TIP3    H1 7421   2.594   5.328   3.885
 2488TIP3    H2 7422   2.583   5.235   3.767
 2489TIP3   OH2 7423   0.500   4.928   1.016
 2489TIP3    H1 7424   0.518   4.995   1.082
 2489TIP3    H2 7425   0.553   4.954   0.941
 2490TIP3   OH2 7426   4.386   2.612   5.930
 2490TIP3    H1 7427   4.293   2.609   5.952
 2490TIP3    H2 7428   4.431   2.619   6.015
 2491TIP3   OH2 7429   4.008   6.358   3.736
 2491TIP3    H1 7430   4.077   6.418   3.766
 2491TIP3    H2 7431   3.935   6.374   3.796
 2492TIP3   OH2 7432   3.178   5.502   1.548
 2492TIP3    H1 7433   3.235   5.550   1.488
 2492TIP3    H2 7434   3.103   5.477   1.494
 2493TIP3   OH2 7435   2.898   3.917   0.517
 2493TIP3    H1 7436   2.891   3.826   0.545
 2493TIP3    H2 7437   2.990   3.939   0.531
 2494TIP3   OH2 7438   4.099   0.375   3.420
 2494TIP3    H1 7439   4.068   0.315   3.488
 2494TIP3    H2 7440   4.193   0.358   3.414
 2495TIP3   OH2 7441   3.841   5.795   5.318
 2495TIP3    H1 7442   3.784   5.871   5.323
 2495TIP3    H2 7443   3.906   5.818   5.252
 2496TIP3   OH2 7444   0.747   6.118   5.311
 2496TIP3    H1 7445   0.779   6.165   5.234
 2496TIP3    H2 7446   0.663   6.161   5.331
 2497TIP3   OH2 7447   1.134   6.098   6.235
 2497TIP3    H1 7448   1.117   6.181   6.278
 2497TIP3    H2 7449   1.110   6.032   6.300
 2498TIP3   OH2 7450   5.504   5.907   4.759
 2498TIP3    H1 7451   5.499   5.986   4.812
 2498TIP3    H2 7452   5.439   5.848   4.797
 2499TIP3   OH2 7453   5.450   0.464   1.307
 2499TIP3    H1 7454   5.390   0.510   1.248
 2499TIP3    H2 7455   5.514   0.530   1.333
 2500TIP3   OH2 7456   2.919   3.981   2.287
 2500TIP3    H1 7457   2.891   3.947   2.372
 2500TIP3    H2 7458   2.840   3.979   2.233
 2501TIP3   OH2 7459   0.985   0.927   4.937
 2501TIP3    H1 7460   0.940   0.870   5.000
 2501TIP3    H2 7461   0.921   0.941   4.868
 2502TIP3   OH2 7462   5.232   4.129   3.732
 2502TIP3    H1 7463   5.273   4.178   3.661
 2502TIP3    H2 7464   5.191   4.196   3.786
 2503TIP3   OH2 7465   5.870   4.428   2.457
 2503TIP3    H1 7466   5.965   4.421   2.464
 2503TIP3    H2 7467   5.848   4.376   2.379
 2504TIP3   OH2 7468   0.473   2.808   2.064
 2504TIP3    H1 7469   0.490   2.714   2.061
 2504TIP3    H2 7470   0.378   2.815   2.054
 2505TIP3   OH2 7471   1.571   0.139   0.122
 2505TIP3    H1 7472   1.488   0.112   0.084
 2505TIP3    H2 7473   1.636   0.081   0.083
 2506TIP3   OH2 7474   1.834   4.095   1.406
 2506TIP3    H1 7475   1.853   4.060   1.318
 2506TIP3    H2 7476   1.871   4.183   1.405
 2507TIP3   OH2 7477   2.740   6.641   5.952
 2507TIP3    H1 7478   2.821   6.677   5.987
 2507TIP3    H2 7479   2.683   6.631   6.028
 2508TIP3   OH2 7480   5.172   4.835   1.501
 2508TIP3    H1 7481   5.264   4.860   1.488
 2508TIP3    H2 7482   5.153   4.861   1.591
 2509TIP3   OH2 7483   5.523   1.434   2.150
 2509TIP3    H1 7484   5.592   1.377   2.117
 2509TIP3    H2 7485   5.506   1.495   2.078
 2510TIP3   OH2 7486   5.130   3.769   3.916
 2510TIP3    H1 7487   5.126   3.706   3.844
 2510TIP3    H2 7488   5.039   3.798   3.926
 2511TIP3   OH2 7489   2.880   6.075   6.733
 2511TIP3    H1 7490   2.861   6.097   6.641
 2511TIP3    H2 7491   2.831   5.994   6.748
 2512TIP3   OH2 7492   4.915   7.432   6.550
 2512TIP3    H1 7493   4.889   7.344   6.575
 2512TIP3    H2 7494   4.837   7.486   6.563
 2513TIP3   OH2 7495   0.706   5.500   3.000
 2513TIP3    H1 7496   0.779   5.556   3.028
 2513TIP3    H2 7497   0.701   5.513   2.905
 2514TIP3   OH2 7498   4.175   5.726   1.210
 2514TIP3    H1 7499   4.227   5.762   1.138
 2514TIP3    H2 7500   4.239   5.709   1.279
 2515TIP3   OH2 7501   0.730   6.473   3.626
 2515TIP3    H1 7502   0.693   6.417   3.694
 2515TIP3    H2 7503   0.749   6.413   3.554
 2516TIP3   OH2 7504   0.469   2.732   0.246
 2516TIP3    H1 7505   0.483   2.639   0.265
 2516TIP3    H2 7506   0.551   2.760   0.205
 2517TIP3   OH2 7507   7.959   6.389   6.222
 2517TIP3    H1 7508   7.886   6.450   6.211
 2517TIP3    H2 7509   8.005   6.421   6.300
 2518TIP3   OH2 7510   3.038   7.615   3.674
 2518TIP3    H1 7511   3.065   7.689   3.620
 2518TIP3    H2 7512   3.002   7.552   3.612
 2519TIP3   OH2 7513   5.103   2.654   6.661
 2519TIP3    H1 7514   5.170   2.664   6.730
 2519TIP3    H2 7515   5.139   2.703   6.587
 2520TIP3   OH2 7516   1.793   4.260   0.670
 2520TIP3    H1 7517   1.870   4.228   0.623
 2520TIP3    H2 7518   1.828   4.303   0.748
 2521TIP3   OH2 7519   2.598   5.686   5.916
 2521TIP3    H1 7520   2.545   5.664   5.839
 2521TIP3    H2 7521   2.543   5.747   5.965
 2522TIP3   OH2 7522   7.367   2.031   5.433
 2522TIP3    H1 7523   7.445   2.059   5.386
 2522TIP3    H2 7524   7.294   2.070   5.384
 2523TIP3   OH2 7525   7.938   4.763   1.778
 2523TIP3    H1 7526   7.955   4.762   1.683
 2523TIP3    H2 7527   7.982   4.842   1.809
 2524TIP3   OH2 7528   5.732   2.366   4.292
 2524TIP3    H1 7529   5.698   2.401   4.210
 2524TIP3    H2 7530   5.656   2.327   4.335
 2525TIP3   OH2 7531   3.805   3.569   1.432
 2525TIP3    H1 7532   3.810   3.508   1.505
 2525TIP3    H2 7533   3.724   3.545   1.386
 2526TIP3   OH2 7534   3.970   7.068   5.841
 2526TIP3    H1 7535   4.051   7.028   5.809
 2526TIP3    H2 7536   3.933   7.111   5.764
 2527TIP3   OH2 7537   5.944   0.945   5.576
 2527TIP3    H1 7538   5.886   0.914   5.506
 2527TIP3    H2 7539   5.895   0.929   5.656
 2528TIP3   OH2 7540   3.613   6.457   0.865
 2528TIP3    H1 7541   3.601   6.366   0.894
 2528TIP3    H2 7542   3.586   6.457   0.773
 2529TIP3   OH2 7543   7.302   5.857   1.655
 2529TIP3    H1 7544   7.314   5.873   1.749
 2529TIP3    H2 7545   7.392   5.853   1.620
 2530TIP3   OH2 7546   2.239   4.392   3.318
 2530TIP3    H1 7547   2.246   4.470   3.262
 2530TIP3    H2 7548   2.298   4.411   3.391
 2531TIP3   OH2 7549   5.662   1.278   3.071
 2531TIP3    H1 7550   5.694   1.188   3.069
 2531TIP3    H2 7551   5.740   1.331   3.054
 2532TIP3   OH2 7552   0.453   2.124   1.541
 2532TIP3    H1 7553   0.464   2.065   1.466
 2532TIP3    H2 7554   0.476   2.211   1.506
 2533TIP3   OH2 7555   4.459   7.068   4.432
 2533TIP3    H1 7556   4.540   7.058   4.482
 2533TIP3    H2 7557   4.488   7.095   4.345
 2534TIP3   OH2 7558   5.527   4.609   3.340
 2534TIP3    H1 7559   5.451   4.558   3.368
 2534TIP3    H2 7560   5.497   4.657   3.263
 2535TIP3   OH2 7561   6.734   2.489   6.216
 2535TIP3    H1 7562   6.658   2.449   6.175
 2535TIP3    H2 7563   6.748   2.438   6.296
 2536TIP3   OH2 7564   0.075   7.595   0.473
 2536TIP3    H1 7565   0.059   7.681   0.435
 2536TIP3    H2 7566  -0.012   7.558   0.486
 2537TIP3   OH2 7567   6.281   6.928   1.712
 2537TIP3    H1 7568   6.322   6.898   1.631
 2537TIP3    H2 7569   6.353   6.966   1.763
 2538TIP3   OH2 7570   6.765   3.485   3.629
 2538TIP3    H1 7571   6.718   3.409   3.596
 2538TIP3    H2 7572   6.773   3.469   3.723
 2539TIP3   OH2 7573   0.617   4.020   3.625
 2539TIP3    H1 7574   0.626   3.995   3.717
 2539TIP3    H2 7575   0.680   4.091   3.613
 2540TIP3   OH2 7576   1.133   0.697   0.219
 2540TIP3    H1 7577   1.190   0.718   0.145
 2540TIP3    H2 7578   1.187   0.716   0.296
 2541TIP3   OH2 7579   8.133   2.304   5.524
 2541TIP3    H1 7580   8.199   2.275   5.588
 2541TIP3    H2 7581   8.073   2.230   5.517
 2542TIP3   OH2 7582   0.182   2.126   3.454
 2542TIP3    H1 7583   0.158   2.198   3.513
 2542TIP3    H2 7584   0.172   2.163   3.366
 2543TIP3   OH2 7585   2.675   3.845   0.173
 2543TIP3    H1 7586   2.678   3.803   0.258
 2543TIP3    H2 7587   2.694   3.937   0.191
 2544TIP3   OH2 7588   4.825   4.316   2.279
 2544TIP3    H1 7589   4.896   4.352   2.226
 2544TIP3    H2 7590   4.863   4.241   2.324
 2545TIP3   OH2 7591   5.478   3.937   0.464
 2545TIP3    H1 7592   5.489   3.856   0.513
 2545TIP3    H2 7593   5.556   3.988   0.484
 2546TIP3   OH2 7594   3.772   6.875   5.767
 2546TIP3    H1 7595   3.836   6.946   5.770
 2546TIP3    H2 7596   3.701   6.903   5.824
 2547TIP3   OH2 7597   1.530   2.306   4.603
 2547TIP3    H1 7598   1.553   2.363   4.676
 2547TIP3    H2 7599   1.598   2.323   4.537
 2548TIP3   OH2 7600   2.225   0.640   1.049
 2548TIP3    H1 7601   2.276   0.696   0.990
 2548TIP3    H2 7602   2.134   0.655   1.023
 2549TIP3   OH2 7603   3.224   6.974   5.225
 2549TIP3    H1 7604   3.185   6.951   5.141
 2549TIP3    H2 7605   3.245   7.067   5.217
 2550TIP3   OH2 7606   4.247   7.677   2.773
 2550TIP3    H1 7607   4.280   7.588   2.761
 2550TIP3    H2 7608   4.173   7.667   2.833
 2551TIP3   OH2 7609   1.790   1.374   4.706
 2551TIP3    H1 7610   1.785   1.279   4.702
 2551TIP3    H2 7611   1.786   1.402   4.614
 2552TIP3   OH2 7612   6.172   4.621   1.953
 2552TIP3    H1 7613   6.151   4.527   1.952
 2552TIP3    H2 7614   6.109   4.658   2.015
 2553TIP3   OH2 7615   0.464   7.234   3.934
 2553TIP3    H1 7616   0.458   7.320   3.891
 2553TIP3    H2 7617   0.383   7.189   3.909
 2554TIP3   OH2 7618   7.548   2.823   5.542
 2554TIP3    H1 7619   7.629   2.873   5.534
 2554TIP3    H2 7620   7.574   2.743   5.588
 2555TIP3   OH2 7621   5.199   6.809   4.255
 2555TIP3    H1 7622   5.146   6.883   4.281
 2555TIP3    H2 7623   5.201   6.752   4.332
 2556TIP3   OH2 7624   0.839   1.783   4.588
 2556TIP3    H1 7625   0.786   1.833   4.526
 2556TIP3    H2 7626   0.813   1.815   4.674
 2557TIP3   OH2 7627   6.862   3.247   6.149
 2557TIP3    H1 7628   6.853   3.166   6.199
 2557TIP3    H2 7629   6.785   3.250   6.093
 2558TIP3   OH2 7630   5.596   0.687   6.760
 2558TIP3    H1 7631   5.683   0.655   6.737
 2558TIP3    H2 7632   5.580   0.760   6.700
 2559TIP3   OH2 7633   5.784   7.572   1.627
 2559TIP3    H1 7634   5.871   7.613   1.618
 2559TIP3    H2 7635   5.732   7.614   1.559
 2560TIP3   OH2 7636   6.715   7.177   3.837
 2560TIP3    H1 7637   6.692   7.136   3.753
 2560TIP3    H2 7638   6.759   7.259   3.813
 2561TIP3   OH2 7639   2.142   7.456   4.346
 2561TIP3    H1 7640   2.105   7.414   4.269
 2561TIP3    H2 7641   2.075   7.446   4.414
 2562TIP3   OH2 7642   1.454   0.641   5.915
 2562TIP3    H1 7643   1.454   0.610   5.824
 2562TIP3    H2 7644   1.532   0.695   5.922
 2563TIP3   OH2 7645   4.323   0.745   3.774
 2563TIP3    H1 7646   4.393   0.710   3.830
 2563TIP3    H2 7647   4.304   0.675   3.712
 2564TIP3   OH2 7648   3.904   4.813   6.374
 2564TIP3    H1 7649   3.974   4.877   6.369
 2564TIP3    H2 7650   3.896   4.779   6.285
 2565TIP3   OH2 7651   1.318   3.541   1.114
 2565TIP3    H1 7652   1.401   3.580   1.142
 2565TIP3    H2 7653   1.297   3.478   1.183
 2566TIP3   OH2 7654   1.153   2.420   3.475
 2566TIP3    H1 7655   1.171   2.360   3.402
 2566TIP3    H2 7656   1.183   2.505   3.443
 2567TIP3   OH2 7657   4.012   2.689   1.437
 2567TIP3    H1 7658   4.058   2.657   1.359
 2567TIP3    H2 7659   3.919   2.671   1.419
 2568TIP3   OH2 7660   7.970   4.304   0.014
 2568TIP3    H1 7661   8.020   4.381   0.043
 2568TIP3    H2 7662   7.943   4.262   0.095
 2569TIP3   OH2 7663   2.195   7.087   5.932
 2569TIP3    H1 7664   2.263   7.045   5.985
 2569TIP3    H2 7665   2.115   7.036   5.951
 2570TIP3   OH2 7666   7.534   1.147   1.468
 2570TIP3    H1 7667   7.462   1.134   1.530
 2570TIP3    H2 7668   7.571   1.060   1.455
 2571TIP3   OH2 7669   4.997   7.620   6.182
 2571TIP3    H1 7670   4.916   7.584   6.219
 2571TIP3    H2 7671   4.969   7.699   6.136
 2572TIP3   OH2 7672   2.175   1.593   2.057
 2572TIP3    H1 7673   2.160   1.505   2.021
 2572TIP3    H2 7674   2.141   1.652   1.990
 2573TIP3   OH2 7675   7.686   7.331   2.982
 2573TIP3    H1 7676   7.740   7.340   3.061
 2573TIP3    H2 7677   7.692   7.417   2.939
 2574TIP3   OH2 7678   5.963   5.824   3.192
 2574TIP3    H1 7679   5.887   5.767   3.195
 2574TIP3    H2 7680   6.019   5.794   3.264
 2575TIP3   OH2 7681   2.341   3.298   2.761
 2575TIP3    H1 7682   2.263   3.254   2.793
 2575TIP3    H2 7683   2.307   3.368   2.705
 2576TIP3   OH2 7684   8.249   3.694   3.282
 2576TIP3    H1 7685   8.154   3.683   3.270
 2576TIP3    H2 7686   8.266   3.661   3.370
 2577TIP3   OH2 7687   7.564   7.304   6.438
 2577TIP3    H1 7688   7.498   7.332   6.374
 2577TIP3    H2 7689   7.518   7.305   6.521
 2578TIP3   OH2 7690   1.262   3.115   2.604
 2578TIP3    H1 7691   1.238   3.098   2.695
 2578TIP3    H2 7692   1.354   3.143   2.608
 2579TIP3   OH2 7693   3.762   6.280   5.419
 2579TIP3    H1 7694   3.681   6.280   5.469
 2579TIP3    H2 7695   3.781   6.373   5.404
 2580TIP3   OH2 7696   7.299   3.088   6.727
 2580TIP3    H1 7697   7.235   3.104   6.797
 2580TIP3    H2 7698   7.277   3.151   6.659
 2581TIP3   OH2 7699   1.265   4.831   0.530
 2581TIP3    H1 7700   1.238   4.839   0.622
 2581TIP3    H2 7701   1.234   4.745   0.504
 2582TIP3   OH2 7702   0.205   5.295   1.587
 2582TIP3    H1 7703   0.220   5.292   1.681
 2582TIP3    H2 7704   0.195   5.203   1.561
 2583TIP3   OH2 7705   2.514   5.944   2.635
 2583TIP3    H1 7706   2.484   6.021   2.587
 2583TIP3    H2 7707   2.434   5.894   2.652
 2584TIP3   OH2 7708   8.122   5.181   1.291
 2584TIP3    H1 7709   8.152   5.213   1.206
 2584TIP3    H2 7710   8.200   5.181   1.346
 2585TIP3   OH2 7711   5.484   5.031   3.065
 2585TIP3    H1 7712   5.516   5.060   2.980
 2585TIP3    H2 7713   5.486   5.111   3.119
 2586TIP3   OH2 7714   4.116   6.887   3.576
 2586TIP3    H1 7715   4.074   6.802   3.562
 2586TIP3    H2 7716   4.055   6.935   3.631
 2587TIP3   OH2 7717   3.132   6.163   0.104
 2587TIP3    H1 7718   3.120   6.169   0.009
 2587TIP3    H2 7719   3.221   6.129   0.115
 2588TIP3   OH2 7720   3.670  -0.019   5.858
 2588TIP3    H1 7721   3.672   0.070   5.823
 2588TIP3    H2 7722   3.743  -0.022   5.920
 2589TIP3   OH2 7723   1.378   0.968   0.214
 2589TIP3    H1 7724   1.408   0.909   0.145
 2589TIP3    H2 7725   1.395   0.920   0.296
 2590TIP3   OH2 7726   1.616   0.900   3.081
 2590TIP3    H1 7727   1.535   0.898   3.030
 2590TIP3    H2 7728   1.623   0.990   3.112
 2591TIP3   OH2 7729   2.048   3.491   3.933
 2591TIP3    H1 7730   2.013   3.476   4.021
 2591TIP3    H2 7731   2.037   3.585   3.919
 2592TIP3   OH2 7732   0.876   1.574   3.598
 2592TIP3    H1 7733   0.836   1.657   3.569
 2592TIP3    H2 7734   0.831   1.553   3.680
 2593TIP3   OH2 7735   4.890   2.382   6.136
 2593TIP3    H1 7736   4.960   2.357   6.077
 2593TIP3    H2 7737   4.924   2.459   6.183
 2594TIP3   OH2 7738   1.635   5.788   6.582
 2594TIP3    H1 7739   1.559   5.813   6.635
 2594TIP3    H2 7740   1.692   5.864   6.584
 2595TIP3   OH2 7741   4.205   6.491   5.435
 2595TIP3    H1 7742   4.220   6.407   5.479
 2595TIP3    H2 7743   4.284   6.506   5.383
 2596TIP3   OH2 7744   5.166   2.155   3.537
 2596TIP3    H1 7745   5.128   2.194   3.458
 2596TIP3    H2 7746   5.186   2.230   3.593
 2597TIP3   OH2 7747   5.654   2.546   2.305
 2597TIP3    H1 7748   5.657   2.629   2.353
 2597TIP3    H2 7749   5.563   2.518   2.311
 2598TIP3   OH2 7750   1.032   5.400   2.886
 2598TIP3    H1 7751   1.006   5.492   2.892
 2598TIP3    H2 7752   0.986   5.367   2.809
 2599TIP3   OH2 7753   2.634   1.316   2.438
 2599TIP3    H1 7754   2.575   1.242   2.449
 2599TIP3    H2 7755   2.580   1.393   2.458
 2600TIP3   OH2 7756   6.925   2.595   5.218
 2600TIP3    H1 7757   7.008   2.553   5.240
 2600TIP3    H2 7758   6.863   2.559   5.280
 2601TIP3   OH2 7759   3.933   5.497   3.295
 2601TIP3    H1 7760   4.007   5.555   3.314
 2601TIP3    H2 7761   3.855   5.550   3.313
 2602TIP3   OH2 7762   0.242   2.610   2.841
 2602TIP3    H1 7763   0.301   2.655   2.780
 2602TIP3    H2 7764   0.171   2.577   2.786
 2603TIP3   OH2 7765   4.735   4.044   1.411
 2603TIP3    H1 7766   4.828   4.028   1.395
 2603TIP3    H2 7767   4.712   3.983   1.482
 2604TIP3   OH2 7768   2.338   6.894   3.685
 2604TIP3    H1 7769   2.397   6.831   3.644
 2604TIP3    H2 7770   2.308   6.950   3.613
 2605TIP3   OH2 7771   7.097   2.309   4.871
 2605TIP3    H1 7772   7.170   2.337   4.815
 2605TIP3    H2 7773   7.139   2.284   4.953
 2606TIP3   OH2 7774   1.209   6.617   1.563
 2606TIP3    H1 7775   1.183   6.670   1.488
 2606TIP3    H2 7776   1.140   6.631   1.627
 2607TIP3   OH2 7777   8.291   6.744   5.754
 2607TIP3    H1 7778   8.340   6.720   5.675
 2607TIP3    H2 7779   8.293   6.840   5.754
 2608TIP3   OH2 7780   3.188   7.652   0.390
 2608TIP3    H1 7781   3.116   7.597   0.421
 2608TIP3    H2 7782   3.149   7.739   0.379
 2609TIP3   OH2 7783   8.311  -0.010   0.536
 2609TIP3    H1 7784   8.337   0.021   0.623
 2609TIP3    H2 7785   8.231   0.038   0.516
 2610TIP3   OH2 7786   0.401   2.488   4.222
 2610TIP3    H1 7787   0.396   2.555   4.154
 2610TIP3    H2 7788   0.489   2.451   4.214
 2611TIP3   OH2 7789   0.817   4.769   4.872
 2611TIP3    H1 7790   0.856   4.856   4.875
 2611TIP3    H2 7791   0.873   4.719   4.813
 2612TIP3   OH2 7792   8.290   2.849   6.390
 2612TIP3    H1 7793   8.273   2.856   6.485
 2612TIP3    H2 7794   8.215   2.800   6.356
 2613TIP3   OH2 7795   3.624   5.610   3.360
 2613TIP3    H1 7796   3.613   5.677   3.292
 2613TIP3    H2 7797   3.572   5.536   3.329
 2614TIP3   OH2 7798   2.816   5.472   6.427
 2614TIP3    H1 7799   2.734   5.468   6.377
 2614TIP3    H2 7800   2.885   5.463   6.361
 2615TIP3   OH2 7801   7.428   2.026   0.284
 2615TIP3    H1 7802   7.350   1.999   0.236
 2615TIP3    H2 7803   7.469   2.092   0.227
 2616TIP3   OH2 7804   1.858   4.847   3.768
 2616TIP3    H1 7805   1.906   4.914   3.816
 2616TIP3    H2 7806   1.861   4.877   3.677
 2617TIP3   OH2 7807   2.296   3.167   5.040
 2617TIP3    H1 7808   2.388   3.157   5.015
 2617TIP3    H2 7809   2.297   3.238   5.104
 2618TIP3   OH2 7810   7.252   6.651   4.657
 2618TIP3    H1 7811   7.249   6.630   4.750
 2618TIP3    H2 7812   7.160   6.655   4.630
 2619TIP3   OH2 7813   7.841   6.772   5.762
 2619TIP3    H1 7814   7.819   6.861   5.791
 2619TIP3    H2 7815   7.914   6.746   5.819
 2620TIP3   OH2 7816   0.933   1.285   3.870
 2620TIP3    H1 7817   0.956   1.290   3.962
 2620TIP3    H2 7818   0.996   1.341   3.825
 2621TIP3   OH2 7819   1.684   1.790   2.308
 2621TIP3    H1 7820   1.739   1.712   2.295
 2621TIP3    H2 7821   1.743   1.854   2.348
 2622TIP3   OH2 7822   5.753   0.447   4.467
 2622TIP3    H1 7823   5.772   0.497   4.547
 2622TIP3    H2 7824   5.777   0.357   4.488
 2623TIP3   OH2 7825   4.452   2.336   6.437
 2623TIP3    H1 7826   4.535   2.383   6.431
 2623TIP3    H2 7827   4.464   2.276   6.511
 2624TIP3   OH2 7828   4.795   1.617   3.996
 2624TIP3    H1 7829   4.855   1.544   4.010
 2624TIP3    H2 7830   4.790   1.627   3.901
 2625TIP3   OH2 7831   8.215   1.280   3.733
 2625TIP3    H1 7832   8.240   1.325   3.814
 2625TIP3    H2 7833   8.125   1.251   3.749
 2626TIP3   OH2 7834   5.135   5.176   2.033
 2626TIP3    H1 7835   5.046   5.210   2.026
 2626TIP3    H2 7836   5.174   5.194   1.947
 2627TIP3   OH2 7837   4.861   0.989   4.066
 2627TIP3    H1 7838   4.947   1.029   4.050
 2627TIP3    H2 7839   4.877   0.925   4.135
 2628TIP3   OH2 7840   3.306   5.865   2.039
 2628TIP3    H1 7841   3.327   5.841   1.949
 2628TIP3    H2 7842   3.271   5.784   2.078
 2629TIP3   OH2 7843   4.039   6.264   5.130
 2629TIP3    H1 7844   3.958   6.305   5.100
 2629TIP3    H2 7845   4.106   6.295   5.069
 2630TIP3   OH2 7846   6.529   4.031   2.212
 2630TIP3    H1 7847   6.440   4.024   2.246
 2630TIP3    H2 7848   6.583   3.982   2.274
 2631TIP3   OH2 7849   1.595   5.110   5.141
 2631TIP3    H1 7850   1.680   5.068   5.135
 2631TIP3    H2 7851   1.538   5.044   5.180
 2632TIP3   OH2 7852   3.126   4.409   2.568
 2632TIP3    H1 7853   3.060   4.452   2.513
 2632TIP3    H2 7854   3.131   4.465   2.646
 2633TIP3   OH2 7855   2.942   3.596   0.033
 2633TIP3    H1 7856   2.877   3.649  -0.013
 2633TIP3    H2 7857   2.976   3.654   0.102
 2634TIP3   OH2 7858   3.712   2.094   5.139
 2634TIP3    H1 7859   3.696   2.138   5.223
 2634TIP3    H2 7860   3.628   2.098   5.093
 2635TIP3   OH2 7861   5.288   3.040   6.729
 2635TIP3    H1 7862   5.321   3.070   6.814
 2635TIP3    H2 7863   5.337   2.961   6.711
 2636TIP3   OH2 7864   0.278   3.343   1.895
 2636TIP3    H1 7865   0.308   3.356   1.805
 2636TIP3    H2 7866   0.183   3.339   1.888
 2637TIP3   OH2 7867   3.451   0.502   4.623
 2637TIP3    H1 7868   3.451   0.420   4.671
 2637TIP3    H2 7869   3.465   0.569   4.690
 2638TIP3   OH2 7870   5.137   0.727   6.426
 2638TIP3    H1 7871   5.115   0.820   6.437
 2638TIP3    H2 7872   5.061   0.689   6.382
 2639TIP3   OH2 7873   1.010   4.064   4.300
 2639TIP3    H1 7874   1.089   4.089   4.349
 2639TIP3    H2 7875   1.037   3.989   4.248
 2640TIP3   OH2 7876   2.992   2.605   1.330
 2640TIP3    H1 7877   3.043   2.667   1.276
 2640TIP3    H2 7878   3.005   2.635   1.420
 2641TIP3   OH2 7879   0.410   3.951   5.792
 2641TIP3    H1 7880   0.352   4.011   5.746
 2641TIP3    H2 7881   0.422   3.877   5.732
 2642TIP3   OH2 7882   2.409   1.735   3.669
 2642TIP3    H1 7883   2.475   1.672   3.641
 2642TIP3    H2 7884   2.336   1.680   3.700
 2643TIP3   OH2 7885   3.339   1.837   6.255
 2643TIP3    H1 7886   3.358   1.743   6.265
 2643TIP3    H2 7887   3.290   1.859   6.335
 2644TIP3   OH2 7888   2.646   7.178   4.535
 2644TIP3    H1 7889   2.674   7.248   4.475
 2644TIP3    H2 7890   2.721   7.119   4.540
 2645TIP3   OH2 7891   1.016   1.940   0.309
 2645TIP3    H1 7892   1.043   1.852   0.282
 2645TIP3    H2 7893   0.958   1.925   0.384
 2646TIP3   OH2 7894   7.891   7.237   0.986
 2646TIP3    H1 7895   7.857   7.269   1.069
 2646TIP3    H2 7896   7.934   7.154   1.008
 2647TIP3   OH2 7897   3.105   7.398   1.860
 2647TIP3    H1 7898   3.186   7.382   1.811
 2647TIP3    H2 7899   3.129   7.384   1.951
 2648TIP3   OH2 7900   5.138   3.650   5.837
 2648TIP3    H1 7901   5.117   3.597   5.914
 2648TIP3    H2 7902   5.200   3.716   5.869
 2649TIP3   OH2 7903   4.445   3.086   3.253
 2649TIP3    H1 7904   4.528   3.104   3.209
 2649TIP3    H2 7905   4.378   3.107   3.188
 2650TIP3   OH2 7906   7.913   5.336   4.588
 2650TIP3    H1 7907   7.915   5.429   4.565
 2650TIP3    H2 7908   7.989   5.299   4.543
 2651TIP3   OH2 7909   0.068   4.736   5.981
 2651TIP3    H1 7910   0.092   4.708   5.893
 2651TIP3    H2 7911   0.001   4.674   6.009
 2652TIP3   OH2 7912   7.098   3.323   6.284
 2652TIP3    H1 7913   7.017   3.301   6.238
 2652TIP3    H2 7914   7.166   3.316   6.217
 2653TIP3   OH2 7915   2.875   2.956   4.604
 2653TIP3    H1 7916   2.804   2.894   4.584
 2653TIP3    H2 7917   2.906   2.930   4.690
 2654TIP3   OH2 7918   1.495   0.884   5.698
 2654TIP3    H1 7919   1.402   0.906   5.702
 2654TIP3    H2 7920   1.500   0.816   5.632
 2655TIP3   OH2 7921   3.221   5.348   0.582
 2655TIP3    H1 7922   3.205   5.369   0.674
 2655TIP3    H2 7923   3.148   5.389   0.535
 2656TIP3   OH2 7924   2.528   3.050   6.380
 2656TIP3    H1 7925   2.582   2.987   6.427
 2656TIP3    H2 7926   2.537   3.025   6.288
 2657TIP3   OH2 7927   1.256   3.870   1.090
 2657TIP3    H1 7928   1.307   3.913   1.021
 2657TIP3    H2 7929   1.292   3.781   1.094
 2658TIP3   OH2 7930   2.807   0.868   3.396
 2658TIP3    H1 7931   2.757   0.855   3.476
 2658TIP3    H2 7932   2.787   0.957   3.368
 2659TIP3   OH2 7933   0.126   7.247   1.580
 2659TIP3    H1 7934   0.201   7.286   1.536
 2659TIP3    H2 7935   0.092   7.317   1.636
 2660TIP3   OH2 7936   0.990   4.063   2.754
 2660TIP3    H1 7937   1.049   3.990   2.771
 2660TIP3    H2 7938   0.905   4.022   2.739
 2661TIP3   OH2 7939   1.225   7.516  -0.024
 2661TIP3    H1 7940   1.258   7.468   0.052
 2661TIP3    H2 7941   1.134   7.535  -0.002
 2662TIP3   OH2 7942   4.439   1.814   1.000
 2662TIP3    H1 7943   4.442   1.786   1.092
 2662TIP3    H2 7944   4.472   1.903   1.000
 2663TIP3   OH2 7945   0.680   1.632   0.767
 2663TIP3    H1 7946   0.693   1.701   0.832
 2663TIP3    H2 7947   0.764   1.627   0.720
 2664TIP3   OH2 7948   7.503   6.900   2.026
 2664TIP3    H1 7949   7.489   6.879   2.118
 2664TIP3    H2 7950   7.415   6.916   1.991
 2665TIP3   OH2 7951   3.802   0.592   3.289
 2665TIP3    H1 7952   3.877   0.596   3.348
 2665TIP3    H2 7953   3.790   0.683   3.259
 2666TIP3   OH2 7954   6.821   4.577   4.574
 2666TIP3    H1 7955   6.821   4.569   4.479
 2666TIP3    H2 7956   6.750   4.519   4.603
 2667TIP3   OH2 7957   0.789   6.444   6.371
 2667TIP3    H1 7958   0.775   6.492   6.453
 2667TIP3    H2 7959   0.725   6.373   6.374
 2668TIP3   OH2 7960   0.918   0.901   3.616
 2668TIP3    H1 7961   0.883   0.970   3.559
 2668TIP3    H2 7962   1.007   0.930   3.636
 2669TIP3   OH2 7963   6.548   5.190   1.294
 2669TIP3    H1 7964   6.618   5.241   1.254
 2669TIP3    H2 7965   6.467   5.232   1.263
 2670TIP3   OH2 7966   1.193   4.724   6.275
 2670TIP3    H1 7967   1.176   4.666   6.349
 2670TIP3    H2 7968   1.286   4.711   6.256
 2671TIP3   OH2 7969   0.099   1.314   3.503
 2671TIP3    H1 7970   0.030   1.304   3.569
 2671TIP3    H2 7971   0.124   1.406   3.507
 2672TIP3   OH2 7972   7.286   7.598   1.705
 2672TIP3    H1 7973   7.208   7.601   1.650
 2672TIP3    H2 7974   7.353   7.643   1.654
 2673TIP3   OH2 7975   6.767   1.394   3.775
 2673TIP3    H1 7976   6.842   1.444   3.806
 2673TIP3    H2 7977   6.765   1.316   3.831
 2674TIP3   OH2 7978   1.128   3.980   4.682
 2674TIP3    H1 7979   1.141   3.990   4.776
 2674TIP3    H2 7980   1.035   3.997   4.668
 2675TIP3   OH2 7981   7.760   4.500   6.325
 2675TIP3    H1 7982   7.690   4.492   6.261
 2675TIP3    H2 7983   7.840   4.509   6.274
 2676TIP3   OH2 7984   2.493   1.004   0.019
 2676TIP3    H1 7985   2.588   0.993   0.018
 2676TIP3    H2 7986   2.470   0.999   0.112
 2677TIP3   OH2 7987   3.596   1.845   0.959
 2677TIP3    H1 7988   3.692   1.843   0.961
 2677TIP3    H2 7989   3.570   1.754   0.973
 2678TIP3   OH2 7990   4.752   6.013   4.406
 2678TIP3    H1 7991   4.841   6.022   4.440
 2678TIP3    H2 7992   4.761   6.026   4.312
 2679TIP3   OH2 7993   2.724   0.859   6.404
 2679TIP3    H1 7994   2.798   0.899   6.451
 2679TIP3    H2 7995   2.651   0.864   6.466
 2680TIP3   OH2 7996   2.237   2.400   2.116
 2680TIP3    H1 7997   2.214   2.309   2.138
 2680TIP3    H2 7998   2.186   2.419   2.037
 2681TIP3   OH2 7999   5.203   4.946   4.064
 2681TIP3    H1 8000   5.257   5.025   4.067
 2681TIP3    H2 8001   5.118   4.973   4.099
 2682TIP3   OH2 8002   5.729   4.965   1.212
 2682TIP3    H1 8003   5.780   4.884   1.222
 2682TIP3    H2 8004   5.760   5.022   1.282
 2683TIP3   OH2 8005   7.065   1.239   4.285
 2683TIP3    H1 8006   7.000   1.304   4.259
 2683TIP3    H2 8007   7.109   1.278   4.361
 2684TIP3   OH2 8008   0.722   6.075   0.045
 2684TIP3    H1 8009   0.771   6.157   0.055
 2684TIP3    H2 8010   0.635   6.102   0.016
 2685TIP3   OH2 8011   1.336   3.321   4.552
 2685TIP3    H1 8012   1.427   3.296   4.563
 2685TIP3    H2 8013   1.322   3.391   4.616
 2686TIP3   OH2 8014   3.761   5.964   0.027
 2686TIP3    H1 8015   3.727   5.890   0.078
 2686TIP3    H2 8016   3.738   5.943  -0.064
 2687TIP3   OH2 8017   4.352   7.143   0.421
 2687TIP3    H1 8018   4.272   7.090   0.424
 2687TIP3    H2 8019   4.321   7.233   0.410
 2688TIP3   OH2 8020   3.655   6.753   4.052
 2688TIP3    H1 8021   3.691   6.730   3.967
 2688TIP3    H2 8022   3.564   6.777   4.034
 2689TIP3   OH2 8023   4.547   2.930   3.485
 2689TIP3    H1 8024   4.585   3.002   3.536
 2689TIP3    H2 8025   4.525   2.969   3.401
 2690TIP3   OH2 8026   3.343   6.327   4.408
 2690TIP3    H1 8027   3.323   6.250   4.354
 2690TIP3    H2 8028   3.259   6.353   4.445
 2691TIP3   OH2 8029   1.265   2.187   3.041
 2691TIP3    H1 8030   1.288   2.277   3.066
 2691TIP3    H2 8031   1.347   2.138   3.049
 2692TIP3   OH2 8032   3.727   6.524   1.320
 2692TIP3    H1 8033   3.635   6.533   1.294
 2692TIP3    H2 8034   3.772   6.594   1.274
 2693TIP3   OH2 8035   7.752   2.782   5.204
 2693TIP3    H1 8036   7.661   2.788   5.174
 2693TIP3    H2 8037   7.750   2.718   5.275
 2694TIP3   OH2 8038   6.075   0.443   3.097
 2694TIP3    H1 8039   6.041   0.435   3.186
 2694TIP3    H2 8040   6.114   0.531   3.094
 2695TIP3   OH2 8041   2.230   7.495   3.228
 2695TIP3    H1 8042   2.159   7.548   3.263
 2695TIP3    H2 8043   2.229   7.415   3.281
 2696TIP3   OH2 8044   0.636   1.344   6.106
 2696TIP3    H1 8045   0.674   1.258   6.124
 2696TIP3    H2 8046   0.698   1.385   6.045
 2697TIP3   OH2 8047   3.705   3.575   0.977
 2697TIP3    H1 8048   3.686   3.667   0.992
 2697TIP3    H2 8049   3.782   3.557   1.030
 2698TIP3   OH2 8050   1.364   4.473   0.304
 2698TIP3    H1 8051   1.438   4.531   0.289
 2698TIP3    H2 8052   1.369   4.408   0.235
 2699TIP3   OH2 8053   2.432   7.012   6.086
 2699TIP3    H1 8054   2.528   7.019   6.079
 2699TIP3    H2 8055   2.418   6.931   6.136
 2700TIP3   OH2 8056   8.203   7.640   2.292
 2700TIP3    H1 8057   8.170   7.551   2.304
 2700TIP3    H2 8058   8.297   7.629   2.277
 2701TIP3   OH2 8059   6.936   4.196   0.423
 2701TIP3    H1 8060   7.018   4.177   0.468
 2701TIP3    H2 8061   6.943   4.288   0.397
 2702TIP3   OH2 8062   2.821   7.729   1.351
 2702TIP3    H1 8063   2.811   7.808   1.404
 2702TIP3    H2 8064   2.914   7.708   1.356
 2703TIP3   OH2 8065   6.813   0.962   1.226
 2703TIP3    H1 8066   6.870   1.008   1.287
 2703TIP3    H2 8067   6.769   1.031   1.177
 2704TIP3   OH2 8068   5.241   4.628   4.567
 2704TIP3    H1 8069   5.335   4.645   4.576
 2704TIP3    H2 8070   5.207   4.706   4.523
 2705TIP3   OH2 8071   7.708   1.527   3.254
 2705TIP3    H1 8072   7.744   1.542   3.166
 2705TIP3    H2 8073   7.636   1.590   3.261
 2706TIP3   OH2 8074   4.835   6.475   0.708
 2706TIP3    H1 8075   4.811   6.489   0.616
 2706TIP3    H2 8076   4.781   6.536   0.757
 2707TIP3   OH2 8077   0.251   1.440   3.921
 2707TIP3    H1 8078   0.199   1.496   3.863
 2707TIP3    H2 8079   0.312   1.500   3.964
 2708TIP3   OH2 8080   6.779   6.225   0.794
 2708TIP3    H1 8081   6.742   6.222   0.883
 2708TIP3    H2 8082   6.824   6.309   0.790
 2709TIP3   OH2 8083   6.212   3.464   0.309
 2709TIP3    H1 8084   6.209   3.369   0.302
 2709TIP3    H2 8085   6.127   3.494   0.278
 2710TIP3   OH2 8086   4.315   7.036   3.473
 2710TIP3    H1 8087   4.349   7.081   3.550
 2710TIP3    H2 8088   4.235   6.992   3.504
 2711TIP3   OH2 8089   0.076   2.999   6.695
 2711TIP3    H1 8090   0.008   2.932   6.705
 2711TIP3    H2 8091   0.157   2.950   6.682
 2712TIP3   OH2 8092   5.881   3.969   5.715
 2712TIP3    H1 8093   5.840   4.022   5.782
 2712TIP3    H2 8094   5.901   3.886   5.759
 2713TIP3   OH2 8095   6.084   3.933   6.366
 2713TIP3    H1 8096   6.106   3.979   6.285
 2713TIP3    H2 8097   6.069   4.003   6.430
 2714TIP3   OH2 8098   8.059   1.929   2.949
 2714TIP3    H1 8099   8.038   1.859   3.011
 2714TIP3    H2 8100   8.098   1.885   2.874
 2715TIP3   OH2 8101   7.052   0.642   4.192
 2715TIP3    H1 8102   7.036   0.556   4.230
 2715TIP3    H2 8103   7.068   0.624   4.099
 2716TIP3   OH2 8104   2.292   6.134   1.829
 2716TIP3    H1 8105   2.336   6.129   1.744
 2716TIP3    H2 8106   2.240   6.054   1.834
 2717TIP3   OH2 8107   6.264   5.320   2.531
 2717TIP3    H1 8108   6.211   5.261   2.478
 2717TIP3    H2 8109   6.324   5.362   2.469
 2718TIP3   OH2 8110   5.094   5.713   5.382
 2718TIP3    H1 8111   5.077   5.625   5.347
 2718TIP3    H2 8112   5.007   5.754   5.385
 2719TIP3   OH2 8113   6.933   2.859   6.329
 2719TIP3    H1 8114   6.904   2.947   6.353
 2719TIP3    H2 8115   6.872   2.831   6.261
 2720TIP3   OH2 8116   7.737   7.343   4.695
 2720TIP3    H1 8117   7.706   7.255   4.674
 2720TIP3    H2 8118   7.676   7.374   4.763
 2721TIP3   OH2 8119   5.737   1.483   4.269
 2721TIP3    H1 8120   5.809   1.472   4.332
 2721TIP3    H2 8121   5.673   1.537   4.315
 2722TIP3   OH2 8122   7.071   1.587   3.734
 2722TIP3    H1 8123   7.057   1.679   3.757
 2722TIP3    H2 8124   7.011   1.572   3.660
 2723TIP3   OH2 8125   0.180   4.866   3.113
 2723TIP3    H1 8126   0.141   4.912   3.039
 2723TIP3    H2 8127   0.274   4.863   3.093
 2724TIP3   OH2 8128   5.152   7.543   6.640
 2724TIP3    H1 8129   5.068   7.504   6.615
 2724TIP3    H2 8130   5.202   7.547   6.558
 2725TIP3   OH2 8131   7.371   7.170   2.635
 2725TIP3    H1 8132   7.402   7.258   2.613
 2725TIP3    H2 8133   7.378   7.165   2.730
 2726TIP3   OH2 8134   7.213   3.986   4.470
 2726TIP3    H1 8135   7.155   4.027   4.534
 2726TIP3    H2 8136   7.294   4.037   4.475
 2727TIP3   OH2 8137   8.017   1.332   2.136
 2727TIP3    H1 8138   8.093   1.369   2.090
 2727TIP3    H2 8139   7.990   1.401   2.195
 2728TIP3   OH2 8140   2.909   7.355   3.581
 2728TIP3    H1 8141   2.963   7.296   3.528
 2728TIP3    H2 8142   2.839   7.382   3.522
 2729TIP3   OH2 8143   4.295   7.200   5.647
 2729TIP3    H1 8144   4.289   7.211   5.742
 2729TIP3    H2 8145   4.263   7.112   5.631
 2730TIP3   OH2 8146   6.571   3.052   0.357
 2730TIP3    H1 8147   6.488   3.010   0.379
 2730TIP3    H2 8148   6.551   3.146   0.359
 2731TIP3   OH2 8149   4.122   4.066   2.997
 2731TIP3    H1 8150   4.107   4.031   3.084
 2731TIP3    H2 8151   4.035   4.073   2.958
 2732TIP3   OH2 8152   6.496   1.296   6.367
 2732TIP3    H1 8153   6.524   1.206   6.357
 2732TIP3    H2 8154   6.484   1.308   6.461
 2733TIP3   OH2 8155   0.637   3.853   5.935
 2733TIP3    H1 8156   0.567   3.885   5.878
 2733TIP3    H2 8157   0.657   3.927   5.992
 2734TIP3   OH2 8158   0.109   6.813   5.494
 2734TIP3    H1 8159   0.058   6.791   5.415
 2734TIP3    H2 8160   0.200   6.794   5.470
 2735TIP3   OH2 8161   6.257   4.058   2.352
 2735TIP3    H1 8162   6.177   4.009   2.334
 2735TIP3    H2 8163   6.235   4.149   2.329
 2736TIP3   OH2 8164   4.842   5.442   6.758
 2736TIP3    H1 8165   4.856   5.532   6.728
 2736TIP3    H2 8166   4.905   5.390   6.710
 2737TIP3   OH2 8167   2.530   1.326   5.477
 2737TIP3    H1 8168   2.501   1.357   5.392
 2737TIP3    H2 8169   2.625   1.339   5.476
 2738TIP3   OH2 8170   0.598   5.933   5.847
 2738TIP3    H1 8171   0.660   5.993   5.806
 2738TIP3    H2 8172   0.632   5.846   5.826
 2739TIP3   OH2 8173   4.423   1.691   3.371
 2739TIP3    H1 8174   4.413   1.664   3.279
 2739TIP3    H2 8175   4.362   1.635   3.419
 2740TIP3   OH2 8176   0.968   4.604   4.174
 2740TIP3    H1 8177   0.997   4.554   4.250
 2740TIP3    H2 8178   1.039   4.594   4.111
 2741TIP3   OH2 8179   4.786   0.978   1.973
 2741TIP3    H1 8180   4.783   0.979   2.068
 2741TIP3    H2 8181   4.704   1.019   1.946
 2742TIP3   OH2 8182   4.383   4.982   6.234
 2742TIP3    H1 8183   4.473   5.011   6.220
 2742TIP3    H2 8184   4.368   4.917   6.165
 2743TIP3   OH2 8185   1.155   5.752   6.562
 2743TIP3    H1 8186   1.196   5.676   6.603
 2743TIP3    H2 8187   1.115   5.800   6.634
 2744TIP3   OH2 8188   0.823   1.536   2.974
 2744TIP3    H1 8189   0.797   1.499   3.059
 2744TIP3    H2 8190   0.765   1.612   2.963
 2745TIP3   OH2 8191   6.078   5.239   4.733
 2745TIP3    H1 8192   6.120   5.325   4.738
 2745TIP3    H2 8193   5.998   5.249   4.786
 2746TIP3   OH2 8194   4.725   0.071   2.900
 2746TIP3    H1 8195   4.811   0.110   2.915
 2746TIP3    H2 8196   4.711   0.079   2.805
 2747TIP3   OH2 8197   8.325   0.321   0.938
 2747TIP3    H1 8198   8.246   0.353   0.895
 2747TIP3    H2 8199   8.311   0.340   1.031
 2748TIP3   OH2 8200   0.602   0.796   1.982
 2748TIP3    H1 8201   0.655   0.874   1.967
 2748TIP3    H2 8202   0.555   0.813   2.063
 2749TIP3   OH2 8203   4.130   2.940   6.292
 2749TIP3    H1 8204   4.190   2.871   6.263
 2749TIP3    H2 8205   4.092   2.906   6.373
 2750TIP3   OH2 8206   2.716   3.263   2.762
 2750TIP3    H1 8207   2.769   3.336   2.792
 2750TIP3    H2 8208   2.780   3.195   2.739
 2751TIP3   OH2 8209   6.415   7.343   3.813
 2751TIP3    H1 8210   6.488   7.405   3.820
 2751TIP3    H2 8211   6.340   7.397   3.788
 2752TIP3   OH2 8212   4.725   1.824   5.644
 2752TIP3    H1 8213   4.749   1.780   5.562
 2752TIP3    H2 8214   4.746   1.760   5.712
 2753TIP3   OH2 8215   5.912   6.670   6.760
 2753TIP3    H1 8216   5.848   6.741   6.752
 2753TIP3    H2 8217   5.996   6.714   6.773
 2754TIP3   OH2 8218   1.018   4.761   2.293
 2754TIP3    H1 8219   0.965   4.714   2.357
 2754TIP3    H2 8220   0.970   4.842   2.276
 2755TIP3   OH2 8221   5.927   4.114   0.068
 2755TIP3    H1 8222   6.019   4.126   0.043
 2755TIP3    H2 8223   5.881   4.182   0.019
 2756TIP3   OH2 8224   3.247   6.525   4.783
 2756TIP3    H1 8225   3.342   6.531   4.770
 2756TIP3    H2 8226   3.210   6.561   4.703
 2757TIP3   OH2 8227   4.869   7.349   5.649
 2757TIP3    H1 8228   4.812   7.425   5.634
 2757TIP3    H2 8229   4.809   7.274   5.652
 2758TIP3   OH2 8230   1.649   7.544   2.185
 2758TIP3    H1 8231   1.665   7.500   2.268
 2758TIP3    H2 8232   1.727   7.598   2.171
 2759TIP3   OH2 8233   0.737   5.758   4.942
 2759TIP3    H1 8234   0.740   5.841   4.894
 2759TIP3    H2 8235   0.786   5.775   5.022
 2760TIP3   OH2 8236   5.718   6.932   4.661
 2760TIP3    H1 8237   5.652   6.900   4.600
 2760TIP3    H2 8238   5.798   6.886   4.636
 2761TIP3   OH2 8239   4.176   1.301   1.838
 2761TIP3    H1 8240   4.257   1.318   1.885
 2761TIP3    H2 8241   4.203   1.287   1.748
 2762TIP3   OH2 8242   2.988   4.003   4.661
 2762TIP3    H1 8243   2.915   3.943   4.677
 2762TIP3    H2 8244   2.946   4.088   4.646
 2763TIP3   OH2 8245   5.720   6.445   2.674
 2763TIP3    H1 8246   5.758   6.449   2.586
 2763TIP3    H2 8247   5.776   6.383   2.722
 2764TIP3   OH2 8248   6.211   0.390   4.809
 2764TIP3    H1 8249   6.282   0.438   4.850
 2764TIP3    H2 8250   6.242   0.300   4.804
 2765TIP3   OH2 8251   3.048   0.211   3.643
 2765TIP3    H1 8252   3.076   0.121   3.631
 2765TIP3    H2 8253   3.065   0.231   3.735
 2766TIP3   OH2 8254   0.693   6.010   4.822
 2766TIP3    H1 8255   0.680   6.066   4.900
 2766TIP3    H2 8256   0.750   6.062   4.765
 2767TIP3   OH2 8257   5.264   2.931   5.586
 2767TIP3    H1 8258   5.280   3.017   5.625
 2767TIP3    H2 8259   5.169   2.928   5.573
 2768TIP3   OH2 8260   0.811   0.467   5.783
 2768TIP3    H1 8261   0.782   0.520   5.708
 2768TIP3    H2 8262   0.736   0.468   5.843
 2769TIP3   OH2 8263   3.707   5.973   5.589
 2769TIP3    H1 8264   3.687   5.991   5.497
 2769TIP3    H2 8265   3.760   5.893   5.587
 2770TIP3   OH2 8266   0.929   2.090   4.383
 2770TIP3    H1 8267   0.969   2.034   4.450
 2770TIP3    H2 8268   0.901   2.029   4.315
 2771TIP3   OH2 8269   3.993   2.472   2.071
 2771TIP3    H1 8270   4.022   2.427   2.150
 2771TIP3    H2 8271   3.916   2.424   2.042
 2772TIP3   OH2 8272   5.367   0.302   6.582
 2772TIP3    H1 8273   5.421   0.377   6.557
 2772TIP3    H2 8274   5.295   0.340   6.632
 2773TIP3   OH2 8275   1.780   1.989   5.217
 2773TIP3    H1 8276   1.730   1.908   5.202
 2773TIP3    H2 8277   1.785   2.030   5.131
 2774TIP3   OH2 8278   6.784   6.376   1.906
 2774TIP3    H1 8279   6.744   6.298   1.945
 2774TIP3    H2 8280   6.837   6.414   1.976
 2775TIP3   OH2 8281   7.241   1.237   6.111
 2775TIP3    H1 8282   7.208   1.165   6.058
 2775TIP3    H2 8283   7.302   1.196   6.172
 2776TIP3   OH2 8284   6.281   6.705   5.211
 2776TIP3    H1 8285   6.239   6.671   5.290
 2776TIP3    H2 8286   6.364   6.657   5.206
 2777TIP3   OH2 8287   8.214   1.925   4.798
 2777TIP3    H1 8288   8.180   2.014   4.788
 2777TIP3    H2 8289   8.175   1.893   4.880
 2778TIP3   OH2 8290   7.202   7.367   0.264
 2778TIP3    H1 8291   7.290   7.361   0.301
 2778TIP3    H2 8292   7.182   7.278   0.235
 2779TIP3   OH2 8293   3.451   3.412   4.381
 2779TIP3    H1 8294   3.410   3.495   4.402
 2779TIP3    H2 8295   3.388   3.345   4.409
 2780TIP3   OH2 8296   2.571   5.530   5.106
 2780TIP3    H1 8297   2.490   5.511   5.153
 2780TIP3    H2 8298   2.636   5.546   5.174
 2781TIP3   OH2 8299   0.721   2.897   0.577
 2781TIP3    H1 8300   0.809   2.875   0.608
 2781TIP3    H2 8301   0.725   2.991   0.558
 2782TIP3   OH2 8302   0.300   7.807   2.004
 2782TIP3    H1 8303   0.363   7.778   1.938
 2782TIP3    H2 8304   0.258   7.726   2.034
 2783TIP3   OH2 8305   7.648   0.770   0.984
 2783TIP3    H1 8306   7.605   0.855   0.994
 2783TIP3    H2 8307   7.626   0.744   0.894
 2784TIP3   OH2 8308   7.928   0.585   0.160
 2784TIP3    H1 8309   7.978   0.663   0.137
 2784TIP3    H2 8310   7.937   0.578   0.255
 2785TIP3   OH2 8311   7.497   7.210   1.797
 2785TIP3    H1 8312   7.446   7.167   1.729
 2785TIP3    H2 8313   7.442   7.283   1.826
 2786TIP3   OH2 8314   4.225   2.480   1.863
 2786TIP3    H1 8315   4.140   2.508   1.896
 2786TIP3    H2 8316   4.214   2.476   1.768
 2787TIP3   OH2 8317   6.589   4.105   4.890
 2787TIP3    H1 8318   6.658   4.069   4.945
 2787TIP3    H2 8319   6.542   4.029   4.857
 2788TIP3   OH2 8320   4.909   5.062   2.363
 2788TIP3    H1 8321   4.845   5.104   2.420
 2788TIP3    H2 8322   4.888   4.969   2.368
 2789TIP3   OH2 8323   0.293   0.507   0.261
 2789TIP3    H1 8324   0.268   0.569   0.330
 2789TIP3    H2 8325   0.339   0.437   0.307
 2790TIP3   OH2 8326   5.454   6.938   6.402
 2790TIP3    H1 8327   5.368   6.976   6.422
 2790TIP3    H2 8328   5.506   6.956   6.479
 2791TIP3   OH2 8329   6.055   1.867   5.220
 2791TIP3    H1 8330   6.110   1.832   5.149
 2791TIP3    H2 8331   5.996   1.795   5.241
 2792TIP3   OH2 8332   6.675   3.269   1.349
 2792TIP3    H1 8333   6.746   3.205   1.359
 2792TIP3    H2 8334   6.628   3.240   1.270
 2793TIP3   OH2 8335   3.587   6.184   1.343
 2793TIP3    H1 8336   3.499   6.186   1.305
 2793TIP3    H2 8337   3.621   6.098   1.319
 2794TIP3   OH2 8338   2.571   1.673   1.780
 2794TIP3    H1 8339   2.514   1.596   1.777
 2794TIP3    H2 8340   2.531   1.731   1.845
 2795TIP3   OH2 8341   4.405   4.840   0.268
 2795TIP3    H1 8342   4.459   4.785   0.212
 2795TIP3    H2 8343   4.466   4.902   0.307
 2796TIP3   OH2 8344   1.662   4.898   3.347
 2796TIP3    H1 8345   1.601   4.849   3.403
 2796TIP3    H2 8346   1.637   4.990   3.360
 2797TIP3   OH2 8347   7.485   4.650   2.623
 2797TIP3    H1 8348   7.550   4.606   2.568
 2797TIP3    H2 8349   7.402   4.607   2.600
 2798TIP3   OH2 8350   4.717   3.432   1.076
 2798TIP3    H1 8351   4.694   3.369   1.144
 2798TIP3    H2 8352   4.643   3.492   1.072
 2799TIP3   OH2 8353   6.305   0.808   2.014
 2799TIP3    H1 8354   6.312   0.761   2.097
 2799TIP3    H2 8355   6.212   0.799   1.990
 2800TIP3   OH2 8356   1.765   1.574   1.606
 2800TIP3    H1 8357   1.741   1.577   1.513
 2800TIP3    H2 8358   1.701   1.515   1.646
 2801TIP3   OH2 8359   5.768   3.247   5.745
 2801TIP3    H1 8360   5.759   3.310   5.816
 2801TIP3    H2 8361   5.861   3.245   5.726
 2802TIP3   OH2 8362   6.785   1.330   1.348
 2802TIP3    H1 8363   6.831   1.253   1.383
 2802TIP3    H2 8364   6.693   1.314   1.370
 2803TIP3   OH2 8365   2.507   3.573   0.676
 2803TIP3    H1 8366   2.507   3.669   0.678
 2803TIP3    H2 8367   2.487   3.548   0.766
 2804TIP3   OH2 8368   2.065   5.689   4.477
 2804TIP3    H1 8369   2.158   5.670   4.465
 2804TIP3    H2 8370   2.054   5.778   4.444
 2805TIP3   OH2 8371   4.862   0.646   6.335
 2805TIP3    H1 8372   4.807   0.651   6.413
 2805TIP3    H2 8373   4.801   0.660   6.262
 2806TIP3   OH2 8374   4.356   6.377   4.243
 2806TIP3    H1 8375   4.440   6.387   4.287
 2806TIP3    H2 8376   4.322   6.466   4.236
 2807TIP3   OH2 8377   5.625   4.774   3.554
 2807TIP3    H1 8378   5.590   4.729   3.477
 2807TIP3    H2 8379   5.703   4.723   3.577
 2808TIP3   OH2 8380   1.806   4.736   0.397
 2808TIP3    H1 8381   1.795   4.655   0.447
 2808TIP3    H2 8382   1.725   4.784   0.413
 2809TIP3   OH2 8383   1.209   3.638   2.316
 2809TIP3    H1 8384   1.136   3.657   2.258
 2809TIP3    H2 8385   1.170   3.593   2.391
 2810TIP3   OH2 8386   6.206   4.869   3.844
 2810TIP3    H1 8387   6.161   4.886   3.927
 2810TIP3    H2 8388   6.292   4.835   3.870
 2811TIP3   OH2 8389   1.802   6.651   1.249
 2811TIP3    H1 8390   1.741   6.643   1.322
 2811TIP3    H2 8391   1.868   6.583   1.265
 2812TIP3   OH2 8392   2.201   7.559   5.581
 2812TIP3    H1 8393   2.131   7.582   5.520
 2812TIP3    H2 8394   2.163   7.574   5.667
 2813TIP3   OH2 8395   6.923   6.438   0.807
 2813TIP3    H1 8396   6.893   6.488   0.883
 2813TIP3    H2 8397   6.938   6.505   0.739
 2814TIP3   OH2 8398   6.569   2.270   4.161
 2814TIP3    H1 8399   6.536   2.268   4.072
 2814TIP3    H2 8400   6.664   2.265   4.153
 2815TIP3   OH2 8401   5.938   4.851   0.480
 2815TIP3    H1 8402   5.877   4.913   0.520
 2815TIP3    H2 8403   6.023   4.892   0.488
 2816TIP3   OH2 8404   2.338   6.118   1.063
 2816TIP3    H1 8405   2.251   6.145   1.034
 2816TIP3    H2 8406   2.391   6.117   0.983
 2817TIP3   OH2 8407   4.066   2.619   3.452
 2817TIP3    H1 8408   4.134   2.594   3.515
 2817TIP3    H2 8409   4.112   2.670   3.386
 2818TIP3   OH2 8410   4.760   5.113   3.118
 2818TIP3    H1 8411   4.786   5.022   3.135
 2818TIP3    H2 8412   4.805   5.137   3.037
 2819TIP3   OH2 8413   1.073   2.382   6.281
 2819TIP3    H1 8414   1.117   2.465   6.261
 2819TIP3    H2 8415   1.056   2.387   6.376
 2820TIP3   OH2 8416   3.459   5.504   2.804
 2820TIP3    H1 8417   3.497   5.442   2.867
 2820TIP3    H2 8418   3.398   5.557   2.856
 2821TIP3   OH2 8419   5.982   4.637   2.899
 2821TIP3    H1 8420   5.968   4.565   2.961
 2821TIP3    H2 8421   5.932   4.611   2.822
 2822TIP3   OH2 8422   1.469   4.584   1.449
 2822TIP3    H1 8423   1.381   4.572   1.484
 2822TIP3    H2 8424   1.527   4.542   1.513
 2823TIP3   OH2 8425   5.624   3.218   1.231
 2823TIP3    H1 8426   5.719   3.214   1.219
 2823TIP3    H2 8427   5.602   3.135   1.274
 2824TIP3   OH2 8428   0.454   3.230   2.816
 2824TIP3    H1 8429   0.530   3.172   2.825
 2824TIP3    H2 8430   0.489   3.309   2.775
 2825TIP3   OH2 8431   5.212   6.407   2.191
 2825TIP3    H1 8432   5.290   6.392   2.138
 2825TIP3    H2 8433   5.156   6.331   2.175
 2826TIP3   OH2 8434   2.203   3.004   0.118
 2826TIP3    H1 8435   2.295   3.025   0.104
 2826TIP3    H2 8436   2.182   2.941   0.048
 2827TIP3   OH2 8437   3.723   7.401   5.345
 2827TIP3    H1 8438   3.674   7.376   5.424
 2827TIP3    H2 8439   3.731   7.319   5.296
 2828TIP3   OH2 8440   0.160   4.157   5.973
 2828TIP3    H1 8441   0.207   4.205   6.042
 2828TIP3    H2 8442   0.085   4.213   5.952
 2829TIP3   OH2 8443   5.335   5.364   3.714
 2829TIP3    H1 8444   5.302   5.388   3.800
 2829TIP3    H2 8445   5.374   5.445   3.680
 2830TIP3   OH2 8446   6.676   3.472   5.054
 2830TIP3    H1 8447   6.752   3.477   4.997
 2830TIP3    H2 8448   6.601   3.490   4.997
 2831TIP3   OH2 8449   6.621   4.929   4.060
 2831TIP3    H1 8450   6.612   4.906   4.153
 2831TIP3    H2 8451   6.554   4.995   4.045
 2832TIP3   OH2 8452   2.305   5.643   0.252
 2832TIP3    H1 8453   2.381   5.609   0.205
 2832TIP3    H2 8454   2.299   5.589   0.331
 2833TIP3   OH2 8455   3.649   5.194   1.161
 2833TIP3    H1 8456   3.610   5.261   1.105
 2833TIP3    H2 8457   3.726   5.236   1.198
 2834TIP3   OH2 8458   4.890   7.484   5.111
 2834TIP3    H1 8459   4.856   7.430   5.182
 2834TIP3    H2 8460   4.931   7.422   5.051
 2835TIP3   OH2 8461   4.061   2.104   2.946
 2835TIP3    H1 8462   4.067   2.142   2.859
 2835TIP3    H2 8463   3.971   2.122   2.974
 2836TIP3   OH2 8464   0.275   5.779   3.409
 2836TIP3    H1 8465   0.189   5.818   3.422
 2836TIP3    H2 8466   0.311   5.825   3.333
 2837TIP3   OH2 8467   5.715   2.422   4.757
 2837TIP3    H1 8468   5.649   2.474   4.711
 2837TIP3    H2 8469   5.768   2.486   4.804
 2838TIP3   OH2 8470   0.744   2.646   5.026
 2838TIP3    H1 8471   0.758   2.740   5.030
 2838TIP3    H2 8472   0.661   2.633   5.073
 2839TIP3   OH2 8473   0.371   6.907   4.188
 2839TIP3    H1 8474   0.449   6.874   4.142
 2839TIP3    H2 8475   0.300   6.897   4.125
 2840TIP3   OH2 8476   7.880   1.581   6.325
 2840TIP3    H1 8477   7.920   1.496   6.345
 2840TIP3    H2 8478   7.789   1.561   6.303
 2841TIP3   OH2 8479   5.212   6.319   4.131
 2841TIP3    H1 8480   5.206   6.411   4.103
 2841TIP3    H2 8481   5.282   6.318   4.196
 2842TIP3   OH2 8482   6.292   3.542   0.597
 2842TIP3    H1 8483   6.240   3.482   0.543
 2842TIP3    H2 8484   6.319   3.612   0.537
 2843TIP3   OH2 8485   2.681   7.663   0.605
 2843TIP3    H1 8486   2.653   7.586   0.655
 2843TIP3    H2 8487   2.664   7.639   0.514
 2844TIP3   OH2 8488   1.340   4.603   2.727
 2844TIP3    H1 8489   1.358   4.630   2.817
 2844TIP3    H2 8490   1.246   4.619   2.715
 2845TIP3   OH2 8491   6.803   6.636   4.814
 2845TIP3    H1 8492   6.813   6.555   4.863
 2845TIP3    H2 8493   6.841   6.703   4.870
 2846TIP3   OH2 8494   2.040   4.319   6.121
 2846TIP3    H1 8495   2.042   4.225   6.141
 2846TIP3    H2 8496   2.121   4.334   6.071
 2847TIP3   OH2 8497   7.336   0.501   3.614
 2847TIP3    H1 8498   7.424   0.521   3.580
 2847TIP3    H2 8499   7.282   0.574   3.584
 2848TIP3   OH2 8500   6.287   2.105   2.981
 2848TIP3    H1 8501   6.306   2.101   3.074
 2848TIP3    H2 8502   6.357   2.159   2.944
 2849TIP3   OH2 8503   2.060   5.052   1.896
 2849TIP3    H1 8504   2.060   4.977   1.836
 2849TIP3    H2 8505   2.125   5.029   1.963
 2850TIP3   OH2 8506   5.712   3.133   3.496
 2850TIP3    H1 8507   5.766   3.135   3.416
 2850TIP3    H2 8508   5.703   3.040   3.516
 2851TIP3   OH2 8509   6.297   0.156   2.227
 2851TIP3    H1 8510   6.353   0.079   2.216
 2851TIP3    H2 8511   6.328   0.218   2.162
 2852TIP3   OH2 8512   3.412   4.552   6.779
 2852TIP3    H1 8513   3.319   4.533   6.791
 2852TIP3    H2 8514   3.421   4.569   6.685
 2853TIP3   OH2 8515   6.587   6.486   0.921
 2853TIP3    H1 8516   6.530   6.561   0.906
 2853TIP3    H2 8517   6.670   6.524   0.948
 2854TIP3   OH2 8518   5.016   4.869   6.696
 2854TIP3    H1 8519   4.965   4.930   6.641
 2854TIP3    H2 8520   5.095   4.918   6.719
 2855TIP3   OH2 8521   5.849   0.525   1.985
 2855TIP3    H1 8522   5.942   0.501   1.987
 2855TIP3    H2 8523   5.806   0.458   2.038
 2856TIP3   OH2 8524   4.930   3.874   1.069
 2856TIP3    H1 8525   4.869   3.876   0.995
 2856TIP3    H2 8526   4.938   3.965   1.097
 2857TIP3   OH2 8527   8.039   0.138   6.726
 2857TIP3    H1 8528   8.087   0.206   6.773
 2857TIP3    H2 8529   8.098   0.112   6.654
 2858TIP3   OH2 8530   7.204   5.461   5.043
 2858TIP3    H1 8531   7.286   5.505   5.020
 2858TIP3    H2 8532   7.231   5.376   5.078
 2859TIP3   OH2 8533   1.577   1.644   5.946
 2859TIP3    H1 8534   1.627   1.619   5.869
 2859TIP3    H2 8535   1.583   1.740   5.948
 2860TIP3   OH2 8536   5.705   2.906   1.491
 2860TIP3    H1 8537   5.663   2.860   1.418
 2860TIP3    H2 8538   5.798   2.907   1.469
 2861TIP3   OH2 8539   6.680   2.196   6.160
 2861TIP3    H1 8540   6.647   2.139   6.229
 2861TIP3    H2 8541   6.775   2.196   6.172
 2862TIP3   OH2 8542   4.576   3.702   2.521
 2862TIP3    H1 8543   4.576   3.660   2.435
 2862TIP3    H2 8544   4.585   3.796   2.502
 2863TIP3   OH2 8545   1.089   7.413   3.120
 2863TIP3    H1 8546   1.092   7.322   3.148
 2863TIP3    H2 8547   1.091   7.409   3.024
 2864TIP3   OH2 8548   3.798   7.398   3.299
 2864TIP3    H1 8549   3.765   7.451   3.227
 2864TIP3    H2 8550   3.860   7.338   3.258
 2865TIP3   OH2 8551   5.047   1.204   0.973
 2865TIP3    H1 8552   5.138   1.187   0.947
 2865TIP3    H2 8553   5.011   1.255   0.902
 2866TIP3   OH2 8554   1.446   1.247   2.276
 2866TIP3    H1 8555   1.413   1.206   2.196
 2866TIP3    H2 8556   1.394   1.326   2.286
 2867TIP3   OH2 8557   6.221   6.593   0.266
 2867TIP3    H1 8558   6.187   6.544   0.192
 2867TIP3    H2 8559   6.256   6.527   0.326
 2868TIP3   OH2 8560   3.178   3.457   6.369
 2868TIP3    H1 8561   3.209   3.368   6.354
 2868TIP3    H2 8562   3.162   3.492   6.281
 2869TIP3   OH2 8563   2.084   6.472   1.274
 2869TIP3    H1 8564   2.166   6.522   1.267
 2869TIP3    H2 8565   2.104   6.387   1.235
 2870TIP3   OH2 8566   8.185   5.403   0.736
 2870TIP3    H1 8567   8.165   5.310   0.738
 2870TIP3    H2 8568   8.101   5.446   0.744
 2871TIP3   OH2 8569   4.768   7.750   0.401
 2871TIP3    H1 8570   4.797   7.714   0.485
 2871TIP3    H2 8571   4.848   7.757   0.349
 2872TIP3   OH2 8572   3.734   4.369   0.373
 2872TIP3    H1 8573   3.726   4.368   0.278
 2872TIP3    H2 8574   3.646   4.349   0.405
 2873TIP3   OH2 8575   5.319   6.338  -0.006
 2873TIP3    H1 8576   5.313   6.340   0.089
 2873TIP3    H2 8577   5.237   6.296  -0.034
 2874TIP3   OH2 8578   2.688   7.630   1.669
 2874TIP3    H1 8579   2.656   7.556   1.617
 2874TIP3    H2 8580   2.774   7.602   1.700
 2875TIP3   OH2 8581   2.230   4.719   4.652
 2875TIP3    H1 8582   2.250   4.800   4.697
 2875TIP3    H2 8583   2.139   4.701   4.674
 2876TIP3   OH2 8584   2.510   5.807   4.902
 2876TIP3    H1 8585   2.440   5.742   4.910
 2876TIP3    H2 8586   2.588   5.761   4.932
 2877TIP3   OH2 8587   4.950   4.681   4.409
 2877TIP3    H1 8588   4.889   4.735   4.359
 2877TIP3    H2 8589   5.027   4.736   4.421
 2878TIP3   OH2 8590   2.510   1.951   0.789
 2878TIP3    H1 8591   2.509   2.041   0.822
 2878TIP3    H2 8592   2.578   1.907   0.841
 2879TIP3   OH2 8593   1.394   4.976   1.015
 2879TIP3    H1 8594   1.309   4.980   0.972
 2879TIP3    H2 8595   1.401   4.885   1.044
 2880TIP3   OH2 8596   7.922   0.393   3.358
 2880TIP3    H1 8597   7.945   0.485   3.375
 2880TIP3    H2 8598   7.878   0.365   3.438
 2881TIP3   OH2 8599   8.210   0.824   0.583
 2881TIP3    H1 8600   8.203   0.775   0.665
 2881TIP3    H2 8601   8.304   0.844   0.575
 2882TIP3   OH2 8602   5.358   2.165   5.023
 2882TIP3    H1 8603   5.413   2.197   4.951
 2882TIP3    H2 8604   5.319   2.243   5.060
 2883TIP3   OH2 8605   0.396   2.063   5.136
 2883TIP3    H1 8606   0.388   2.007   5.058
 2883TIP3    H2 8607   0.354   2.145   5.110
 2884TIP3   OH2 8608   2.520   1.429   5.215
 2884TIP3    H1 8609   2.577   1.352   5.214
 2884TIP3    H2 8610   2.574   1.500   5.182
 2885TIP3   OH2 8611   7.786   0.399   0.964
 2885TIP3    H1 8612   7.692   0.410   0.975
 2885TIP3    H2 8613   7.811   0.461   0.896
 2886TIP3   OH2 8614   3.618   3.049   0.324
 2886TIP3    H1 8615   3.523   3.057   0.333
 2886TIP3    H2 8616   3.643   2.981   0.387
 2887TIP3   OH2 8617   6.769   2.953   2.656
 2887TIP3    H1 8618   6.778   3.014   2.729
 2887TIP3    H2 8619   6.832   2.883   2.676
 2888TIP3   OH2 8620   3.899   0.776   1.055
 2888TIP3    H1 8621   3.976   0.796   1.108
 2888TIP3    H2 8622   3.917   0.817   0.970
 2889TIP3   OH2 8623   2.344   2.723   2.231
 2889TIP3    H1 8624   2.263   2.770   2.251
 2889TIP3    H2 8625   2.394   2.783   2.177
 2890TIP3   OH2 8626   7.696   5.318   4.402
 2890TIP3    H1 8627   7.624   5.268   4.363
 2890TIP3    H2 8628   7.775   5.273   4.374
 2891TIP3   OH2 8629   3.455   5.895   4.854
 2891TIP3    H1 8630   3.536   5.880   4.805
 2891TIP3    H2 8631   3.395   5.827   4.824
 2892TIP3   OH2 8632   7.125   1.024   2.432
 2892TIP3    H1 8633   7.219   1.026   2.451
 2892TIP3    H2 8634   7.088   0.969   2.501
 2893TIP3   OH2 8635   6.836   4.560   1.430
 2893TIP3    H1 8636   6.840   4.515   1.346
 2893TIP3    H2 8637   6.850   4.492   1.495
 2894TIP3   OH2 8638   1.345   5.136   0.525
 2894TIP3    H1 8639   1.262   5.148   0.571
 2894TIP3    H2 8640   1.370   5.045   0.544
 2895TIP3   OH2 8641   7.244   4.909   1.968
 2895TIP3    H1 8642   7.300   4.832   1.964
 2895TIP3    H2 8643   7.273   4.964   1.895
 2896TIP3   OH2 8644   7.354   7.739   2.461
 2896TIP3    H1 8645   7.395   7.715   2.378
 2896TIP3    H2 8646   7.327   7.830   2.449
 2897TIP3   OH2 8647   4.564   7.529   1.987
 2897TIP3    H1 8648   4.581   7.593   2.056
 2897TIP3    H2 8649   4.564   7.580   1.906
 2898TIP3   OH2 8650   7.661   6.444   0.381
 2898TIP3    H1 8651   7.656   6.356   0.418
 2898TIP3    H2 8652   7.726   6.438   0.311
 2899TIP3   OH2 8653   0.635   7.288   5.835
 2899TIP3    H1 8654   0.586   7.297   5.753
 2899TIP3    H2 8655   0.628   7.374   5.877
 2900TIP3   OH2 8656   3.574   0.217   2.348
 2900TIP3    H1 8657   3.554   0.181   2.262
 2900TIP3    H2 8658   3.504   0.280   2.364
 2901TIP3   OH2 8659   8.197   5.565   2.161
 2901TIP3    H1 8660   8.215   5.655   2.134
 2901TIP3    H2 8661   8.249   5.510   2.102
 2902TIP3   OH2 8662   5.160   2.627   0.255
 2902TIP3    H1 8663   5.157   2.599   0.164
 2902TIP3    H2 8664   5.087   2.689   0.264
 2903TIP3   OH2 8665   7.284   2.568   2.554
 2903TIP3    H1 8666   7.328   2.556   2.638
 2903TIP3    H2 8667   7.344   2.528   2.491
 2904TIP3   OH2 8668   0.142   1.889   1.427
 2904TIP3    H1 8669   0.123   1.892   1.521
 2904TIP3    H2 8670   0.149   1.796   1.406
 2905TIP3   OH2 8671   1.659   7.447   5.313
 2905TIP3    H1 8672   1.620   7.458   5.399
 2905TIP3    H2 8673   1.653   7.352   5.296
 2906TIP3   OH2 8674   0.877   2.213   3.381
 2906TIP3    H1 8675   0.934   2.141   3.409
 2906TIP3    H2 8676   0.927   2.292   3.398
 2907TIP3   OH2 8677   8.136   3.366   2.108
 2907TIP3    H1 8678   8.161   3.320   2.189
 2907TIP3    H2 8679   8.190   3.445   2.109
 2908TIP3   OH2 8680   1.342   1.468   0.367
 2908TIP3    H1 8681   1.294   1.393   0.334
 2908TIP3    H2 8682   1.424   1.469   0.317
 2909TIP3   OH2 8683   5.707   4.172   0.309
 2909TIP3    H1 8684   5.707   4.131   0.396
 2909TIP3    H2 8685   5.681   4.102   0.249
 2910TIP3   OH2 8686   8.212   4.515   6.158
 2910TIP3    H1 8687   8.234   4.568   6.234
 2910TIP3    H2 8688   8.116   4.515   6.155
 2911TIP3   OH2 8689   6.430   3.074   3.025
 2911TIP3    H1 8690   6.436   3.012   3.098
 2911TIP3    H2 8691   6.412   3.019   2.948
 2912TIP3   OH2 8692   1.237   4.481   5.981
 2912TIP3    H1 8693   1.224   4.501   5.888
 2912TIP3    H2 8694   1.204   4.391   5.990
 2913TIP3   OH2 8695   6.287   4.488   1.118
 2913TIP3    H1 8696   6.200   4.519   1.092
 2913TIP3    H2 8697   6.330   4.565   1.154
 2914TIP3   OH2 8698   3.449   4.978   1.016
 2914TIP3    H1 8699   3.485   4.896   0.982
 2914TIP3    H2 8700   3.383   5.003   0.952
 2915TIP3   OH2 8701   7.662   7.388   3.807
 2915TIP3    H1 8702   7.676   7.431   3.891
 2915TIP3    H2 8703   7.622   7.455   3.752
 2916TIP3   OH2 8704   3.423   6.765   4.585
 2916TIP3    H1 8705   3.468   6.818   4.519
 2916TIP3    H2 8706   3.440   6.675   4.559
 2917TIP3   OH2 8707   6.020   7.591   6.419
 2917TIP3    H1 8708   5.931   7.622   6.438
 2917TIP3    H2 8709   6.033   7.517   6.478
 2918TIP3   OH2 8710   0.368   0.650   1.912
 2918TIP3    H1 8711   0.356   0.588   1.984
 2918TIP3    H2 8712   0.450   0.694   1.932
 2919TIP3   OH2 8713   7.829   5.798   2.742
 2919TIP3    H1 8714   7.735   5.800   2.724
 2919TIP3    H2 8715   7.866   5.863   2.682
 2920TIP3   OH2 8716   2.829   0.356   1.813
 2920TIP3    H1 8717   2.811   0.273   1.858
 2920TIP3    H2 8718   2.924   0.369   1.824
 2921TIP3   OH2 8719   7.493   6.217   3.045
 2921TIP3    H1 8720   7.417   6.175   3.006
 2921TIP3    H2 8721   7.473   6.310   3.043
 2922TIP3   OH2 8722   4.470   6.403   3.585
 2922TIP3    H1 8723   4.563   6.426   3.577
 2922TIP3    H2 8724   4.426   6.487   3.598
 2923TIP3   OH2 8725   2.595   5.846   2.061
 2923TIP3    H1 8726   2.561   5.890   2.139
 2923TIP3    H2 8727   2.568   5.901   1.988
 2924TIP3   OH2 8728   2.658   6.278   1.433
 2924TIP3    H1 8729   2.640   6.258   1.525
 2924TIP3    H2 8730   2.572   6.270   1.390
 2925TIP3   OH2 8731   5.812   0.616   3.229
 2925TIP3    H1 8732   5.768   0.621   3.144
 2925TIP3    H2 8733   5.847   0.527   3.233
 2926TIP3   OH2 8734   0.188   2.871   2.657
 2926TIP3    H1 8735   0.240   2.791   2.650
 2926TIP3    H2 8736   0.229   2.920   2.729
 2927TIP3   OH2 8737   3.500   2.159   6.369
 2927TIP3    H1 8738   3.411   2.174   6.402
 2927TIP3    H2 8739   3.544   2.109   6.438
 2928TIP3   OH2 8740   5.720   6.984   1.025
 2928TIP3    H1 8741   5.742   7.071   1.057
 2928TIP3    H2 8742   5.783   6.967   0.955
 2929TIP3   OH2 8743   5.819   7.409   0.981
 2929TIP3    H1 8744   5.886   7.371   0.925
 2929TIP3    H2 8745   5.866   7.439   1.059
 2930TIP3   OH2 8746   4.152   0.451   2.480
 2930TIP3    H1 8747   4.150   0.500   2.563
 2930TIP3    H2 8748   4.194   0.510   2.418
 2931TIP3   OH2 8749   5.930   3.460   1.735
 2931TIP3    H1 8750   5.838   3.478   1.750
 2931TIP3    H2 8751   5.932   3.410   1.653
 2932TIP3   OH2 8752   4.557   5.391   1.208
 2932TIP3    H1 8753   4.466   5.404   1.183
 2932TIP3    H2 8754   4.558   5.304   1.249
 2933TIP3   OH2 8755   3.524   2.118   3.053
 2933TIP3    H1 8756   3.511   2.026   3.029
 2933TIP3    H2 8757   3.459   2.134   3.122
 2934TIP3   OH2 8758   3.060   1.706   4.353
 2934TIP3    H1 8759   3.118   1.702   4.430
 2934TIP3    H2 8760   3.120   1.710   4.279
 2935TIP3   OH2 8761   0.512   7.660   0.125
 2935TIP3    H1 8762   0.478   7.711   0.198
 2935TIP3    H2 8763   0.551   7.724   0.066
 2936TIP3   OH2 8764   0.875   2.663   1.469
 2936TIP3    H1 8765   0.907   2.744   1.429
 2936TIP3    H2 8766   0.836   2.615   1.396
 2937TIP3   OH2 8767   0.530   6.904   5.680
 2937TIP3    H1 8768   0.489   6.953   5.751
 2937TIP3    H2 8769   0.604   6.860   5.721
 2938TIP3   OH2 8770   7.262   5.506   2.724
 2938TIP3    H1 8771   7.270   5.422   2.770
 2938TIP3    H2 8772   7.342   5.553   2.747
 2939TIP3   OH2 8773   0.372   0.233   2.990
 2939TIP3    H1 8774   0.332   0.320   2.999
 2939TIP3    H2 8775   0.456   0.250   2.947
 2940TIP3   OH2 8776   0.770   3.219   5.713
 2940TIP3    H1 8777   0.740   3.265   5.790
 2940TIP3    H2 8778   0.771   3.127   5.738
 2941TIP3   OH2 8779   1.466   6.808   2.483
 2941TIP3    H1 8780   1.380   6.814   2.525
 2941TIP3    H2 8781   1.505   6.894   2.497
 2942TIP3   OH2 8782   2.660   6.178   2.770
 2942TIP3    H1 8783   2.726   6.218   2.713
 2942TIP3    H2 8784   2.577   6.189   2.723
 2943TIP3   OH2 8785   7.358   6.470   3.674
 2943TIP3    H1 8786   7.282   6.516   3.637
 2943TIP3    H2 8787   7.426   6.537   3.678
 2944TIP3   OH2 8788   7.430   4.114   5.302
 2944TIP3    H1 8789   7.500   4.049   5.300
 2944TIP3    H2 8790   7.457   4.180   5.238
 2945TIP3   OH2 8791   2.528   4.127   0.858
 2945TIP3    H1 8792   2.607   4.084   0.824
 2945TIP3    H2 8793   2.538   4.219   0.831
 2946TIP3   OH2 8794   4.676   2.797   1.657
 2946TIP3    H1 8795   4.621   2.837   1.590
 2946TIP3    H2 8796   4.681   2.864   1.726
 2947TIP3   OH2 8797   1.168   1.899   4.190
 2947TIP3    H1 8798   1.206   1.987   4.185
 2947TIP3    H2 8799   1.219   1.847   4.128
 2948TIP3   OH2 8800   5.797   7.452   2.535
 2948TIP3    H1 8801   5.892   7.455   2.532
 2948TIP3    H2 8802   5.772   7.384   2.472
 2949TIP3   OH2 8803   7.247   5.548   3.772
 2949TIP3    H1 8804   7.309   5.535   3.701
 2949TIP3    H2 8805   7.251   5.466   3.823
 2950TIP3   OH2 8806   7.823   6.389   3.214
 2950TIP3    H1 8807   7.845   6.464   3.158
 2950TIP3    H2 8808   7.833   6.313   3.156
 2951TIP3   OH2 8809   6.684   4.845   0.824
 2951TIP3    H1 8810   6.614   4.782   0.804
 2951TIP3    H2 8811   6.761   4.810   0.780
 2952TIP3   OH2 8812   1.613   6.879   3.317
 2952TIP3    H1 8813   1.602   6.803   3.261
 2952TIP3    H2 8814   1.599   6.846   3.406
 2953TIP3   OH2 8815   6.361   2.725   2.294
 2953TIP3    H1 8816   6.355   2.659   2.225
 2953TIP3    H2 8817   6.422   2.688   2.358
 2954TIP3   OH2 8818   1.078   7.356   0.677
 2954TIP3    H1 8819   1.157   7.304   0.663
 2954TIP3    H2 8820   1.076   7.369   0.772
 2955TIP3   OH2 8821   5.595   1.522   4.800
 2955TIP3    H1 8822   5.594   1.553   4.709
 2955TIP3    H2 8823   5.688   1.511   4.821
 2956TIP3   OH2 8824   7.505   4.202   5.571
 2956TIP3    H1 8825   7.491   4.146   5.494
 2956TIP3    H2 8826   7.588   4.171   5.608
 2957TIP3   OH2 8827   7.103   7.766   1.396
 2957TIP3    H1 8828   7.051   7.755   1.316
 2957TIP3    H2 8829   7.097   7.859   1.417
 2958TIP3   OH2 8830   6.902   2.780   3.424
 2958TIP3    H1 8831   6.836   2.736   3.477
 2958TIP3    H2 8832   6.891   2.744   3.336
 2959TIP3   OH2 8833   1.522   5.161   3.441
 2959TIP3    H1 8834   1.593   5.222   3.424
 2959TIP3    H2 8835   1.467   5.165   3.363
 2960TIP3   OH2 8836   6.278   4.859   4.997
 2960TIP3    H1 8837   6.349   4.795   4.993
 2960TIP3    H2 8838   6.233   4.840   5.079
 2961TIP3   OH2 8839   1.598   2.773   1.655
 2961TIP3    H1 8840   1.644   2.775   1.739
 2961TIP3    H2 8841   1.600   2.681   1.629
 2962TIP3   OH2 8842   6.423   6.260   5.419
 2962TIP3    H1 8843   6.400   6.187   5.477
 2962TIP3    H2 8844   6.390   6.234   5.333
 2963TIP3   OH2 8845   1.709   1.351   4.412
 2963TIP3    H1 8846   1.721   1.417   4.344
 2963TIP3    H2 8847   1.797   1.314   4.425
 2964TIP3   OH2 8848   4.638   2.848   3.037
 2964TIP3    H1 8849   4.655   2.942   3.044
 2964TIP3    H2 8850   4.724   2.810   3.019
 2965TIP3   OH2 8851   7.303   5.311   2.500
 2965TIP3    H1 8852   7.324   5.286   2.411
 2965TIP3    H2 8853   7.367   5.266   2.554
 2966TIP3   OH2 8854   6.889   6.271   4.218
 2966TIP3    H1 8855   6.965   6.278   4.276
 2966TIP3    H2 8856   6.920   6.219   4.144
 2967TIP3   OH2 8857   2.474   5.248   5.067
 2967TIP3    H1 8858   2.561   5.234   5.104
 2967TIP3    H2 8859   2.421   5.276   5.142
 2968TIP3   OH2 8860   7.157   4.671   1.151
 2968TIP3    H1 8861   7.075   4.720   1.146
 2968TIP3    H2 8862   7.225   4.738   1.157
 2969TIP3   OH2 8863   4.324   1.321   1.132
 2969TIP3    H1 8864   4.334   1.384   1.060
 2969TIP3    H2 8865   4.388   1.349   1.197
 2970TIP3   OH2 8866   1.951   3.388   2.963
 2970TIP3    H1 8867   1.946   3.410   2.870
 2970TIP3    H2 8868   1.880   3.437   3.004
 2971TIP3   OH2 8869   0.180   2.799   2.099
 2971TIP3    H1 8870   0.167   2.802   2.193
 2971TIP3    H2 8871   0.116   2.860   2.063
 2972TIP3   OH2 8872   0.310   0.973   4.445
 2972TIP3    H1 8873   0.305   0.891   4.494
 2972TIP3    H2 8874   0.240   0.966   4.380
 2973TIP3   OH2 8875   3.965   1.946   2.702
 2973TIP3    H1 8876   3.914   1.902   2.770
 2973TIP3    H2 8877   4.046   1.972   2.745
 2974TIP3   OH2 8878   7.315   3.652   2.728
 2974TIP3    H1 8879   7.329   3.617   2.640
 2974TIP3    H2 8880   7.341   3.581   2.786
 2975TIP3   OH2 8881   4.865   3.769   3.360
 2975TIP3    H1 8882   4.875   3.727   3.446
 2975TIP3    H2 8883   4.788   3.728   3.322
 2976TIP3   OH2 8884   0.946   4.326   1.235
 2976TIP3    H1 8885   0.973   4.290   1.320
 2976TIP3    H2 8886   0.958   4.420   1.244
 2977TIP3   OH2 8887   4.359   1.046   1.041
 2977TIP3    H1 8888   4.325   1.132   1.066
 2977TIP3    H2 8889   4.450   1.061   1.018
 2978TIP3   OH2 8890   1.245   3.342   4.276
 2978TIP3    H1 8891   1.255   3.338   4.371
 2978TIP3    H2 8892   1.168   3.398   4.262
 2979TIP3   OH2 8893   2.351   0.643   2.928
 2979TIP3    H1 8894   2.392   0.627   3.012
 2979TIP3    H2 8895   2.257   0.646   2.947
 2980TIP3   OH2 8896   1.412   5.831   6.758
 2980TIP3    H1 8897   1.368   5.839   6.843
 2980TIP3    H2 8898   1.371   5.897   6.703
 2981TIP3   OH2 8899   7.702   0.045   6.081
 2981TIP3    H1 8900   7.768   0.106   6.115
 2981TIP3    H2 8901   7.618   0.083   6.108
 2982TIP3   OH2 8902   7.495   6.024   2.279
 2982TIP3    H1 8903   7.539   6.023   2.364
 2982TIP3    H2 8904   7.538   6.094   2.231
 2983TIP3   OH2 8905   5.770   5.263  -0.023
 2983TIP3    H1 8906   5.745   5.353  -0.002
 2983TIP3    H2 8907   5.723   5.210   0.042
 2984TIP3   OH2 8908   1.195   0.596   3.981
 2984TIP3    H1 8909   1.127   0.585   3.915
 2984TIP3    H2 8910   1.194   0.690   4.000
 2985TIP3   OH2 8911   2.665   4.997   5.955
 2985TIP3    H1 8912   2.596   4.938   5.926
 2985TIP3    H2 8913   2.625   5.049   6.024
 2986TIP3   OH2 8914   0.329   5.867   4.317
 2986TIP3    H1 8915   0.235   5.884   4.324
 2986TIP3    H2 8916   0.370   5.953   4.327
 2987TIP3   OH2 8917   8.111   6.310   4.915
 2987TIP3    H1 8918   8.136   6.225   4.880
 2987TIP3    H2 8919   8.169   6.372   4.871
 2988TIP3   OH2 8920   7.375   3.373   6.619
 2988TIP3    H1 8921   7.306   3.329   6.571
 2988TIP3    H2 8922   7.455   3.324   6.598
 2989TIP3   OH2 8923   7.411   1.676  -0.013
 2989TIP3    H1 8924   7.340   1.663   0.050
 2989TIP3    H2 8925   7.490   1.672   0.040
 2990TIP3   OH2 8926   6.788   1.160   4.031
 2990TIP3    H1 8927   6.831   1.238   4.065
 2990TIP3    H2 8928   6.790   1.098   4.103
 2991TIP3   OH2 8929   4.193   6.014   0.364
 2991TIP3    H1 8930   4.152   6.089   0.321
 2991TIP3    H2 8931   4.139   5.940   0.338
 2992TIP3   OH2 8932   7.039   2.512   0.742
 2992TIP3    H1 8933   7.111   2.489   0.801
 2992TIP3    H2 8934   7.063   2.472   0.658
 2993TIP3   OH2 8935   4.037   7.760   6.653
 2993TIP3    H1 8936   4.127   7.733   6.669
 2993TIP3    H2 8937   3.987   7.679   6.658
 2994TIP3   OH2 8938   1.402   2.431   2.389
 2994TIP3    H1 8939   1.483   2.405   2.344
 2994TIP3    H2 8940   1.381   2.517   2.352
 2995TIP3   OH2 8941   0.022   1.601   6.622
 2995TIP3    H1 8942   0.078   1.632   6.693
 2995TIP3    H2 8943   0.022   1.505   6.632
 2996TIP3   OH2 8944   7.876   7.609   4.692
 2996TIP3    H1 8945   7.890   7.652   4.607
 2996TIP3    H2 8946   7.791   7.565   4.683
 2997TIP3   OH2 8947   7.919   0.833   1.500
 2997TIP3    H1 8948   7.965   0.916   1.510
 2997TIP3    H2 8949   7.977   0.768   1.540
 2998TIP3   OH2 8950   7.330   1.458   6.570
 2998TIP3    H1 8951   7.377   1.376   6.580
 2998TIP3    H2 8952   7.398   1.524   6.562
 2999TIP3   OH2 8953   1.847   1.920   0.757
 2999TIP3    H1 8954   1.908   1.899   0.827
 2999TIP3    H2 8955   1.895   1.980   0.700
 3000TIP3   OH2 8956   6.824   2.132   5.044
 3000TIP3    H1 8957   6.865   2.189   4.979
 3000TIP3    H2 8958   6.755   2.087   4.996
 3001TIP3   OH2 8959   7.727   4.578   1.579
 3001TIP3    H1 8960   7.803   4.633   1.561
 3001TIP3    H2 8961   7.761   4.488   1.577
 3002TIP3   OH2 8962   0.157   3.454   1.225
 3002TIP3    H1 8963   0.191   3.530   1.272
 3002TIP3    H2 8964   0.140   3.486   1.137
 3003TIP3   OH2 8965   2.235   0.377   1.136
 3003TIP3    H1 8966   2.166   0.386   1.202
 3003TIP3    H2 8967   2.244   0.464   1.098
 3004TIP3   OH2 8968   5.638   3.284   3.701
 3004TIP3    H1 8969   5.637   3.368   3.654
 3004TIP3    H2 8970   5.681   3.224   3.640
 3005TIP3   OH2 8971   6.845   1.807   2.088
 3005TIP3    H1 8972   6.920   1.802   2.148
 3005TIP3    H2 8973   6.821   1.899   2.087
 3006TIP3   OH2 8974   2.965   7.773   6.619
 3006TIP3    H1 8975   3.005   7.786   6.534
 3006TIP3    H2 8976   2.951   7.862   6.653
 3007TIP3   OH2 8977   0.994   2.604   3.711
 3007TIP3    H1 8978   1.001   2.637   3.621
 3007TIP3    H2 8979   1.064   2.649   3.759
 3008TIP3   OH2 8980   2.260   6.072   4.671
 3008TIP3    H1 8981   2.172   6.036   4.676
 3008TIP3    H2 8982   2.283   6.067   4.578
 3009TIP3   OH2 8983   7.612   6.213   0.721
 3009TIP3    H1 8984   7.626   6.125   0.754
 3009TIP3    H2 8985   7.524   6.236   0.751
 3010TIP3   OH2 8986   2.879   2.373   3.751
 3010TIP3    H1 8987   2.969   2.350   3.774
 3010TIP3    H2 8988   2.833   2.289   3.748
 3011TIP3   OH2 8989   4.017   1.184   0.437
 3011TIP3    H1 8990   4.058   1.255   0.487
 3011TIP3    H2 8991   3.923   1.195   0.453
 3012TIP3   OH2 8992   2.781   0.428   0.272
 3012TIP3    H1 8993   2.686   0.431   0.264
 3012TIP3    H2 8994   2.797   0.409   0.365
 3013TIP3   OH2 8995   2.033   3.803   3.025
 3013TIP3    H1 8996   1.989   3.802   3.110
 3013TIP3    H2 8997   1.963   3.789   2.961
 3014TIP3   OH2 8998   5.106   2.904   2.798
 3014TIP3    H1 8999   5.027   2.905   2.744
 3014TIP3    H2 9000   5.158   2.832   2.764
 3015TIP3   OH2 9001   2.648   0.679   2.010
 3015TIP3    H1 9002   2.652   0.661   1.916
 3015TIP3    H2 9003   2.652   0.774   2.017
 3016TIP3   OH2 9004   7.366   5.329   0.931
 3016TIP3    H1 9005   7.313   5.258   0.967
 3016TIP3    H2 9006   7.304   5.398   0.910
 3017TIP3   OH2 9007   8.161   0.813   1.028
 3017TIP3    H1 9008   8.202   0.838   1.111
 3017TIP3    H2 9009   8.067   0.818   1.046
 3018TIP3   OH2 9010   6.024   0.355   3.819
 3018TIP3    H1 9011   6.037   0.260   3.821
 3018TIP3    H2 9012   6.083   0.389   3.886
 3019TIP3   OH2 9013   7.394   0.627   5.820
 3019TIP3    H1 9014   7.470   0.685   5.821
 3019TIP3    H2 9015   7.430   0.539   5.815
 3020TIP3   OH2 9016   4.544   1.623   2.671
 3020TIP3    H1 9017   4.607   1.659   2.734
 3020TIP3    H2 9018   4.544   1.686   2.599
 3021TIP3   OH2 9019   1.723   1.054   6.305
 3021TIP3    H1 9020   1.786   1.016   6.367
 3021TIP3    H2 9021   1.732   1.001   6.226
 3022TIP3   OH2 9022   2.376   3.780   4.251
 3022TIP3    H1 9023   2.406   3.746   4.166
 3022TIP3    H2 9024   2.317   3.851   4.228
 3023TIP3   OH2 9025   1.133   3.135   1.409
 3023TIP3    H1 9026   1.047   3.096   1.390
 3023TIP3    H2 9027   1.159   3.095   1.492
 3024TIP3   OH2 9028   4.187   3.283   2.519
 3024TIP3    H1 9029   4.222   3.324   2.598
 3024TIP3    H2 9030   4.123   3.347   2.487
 3025TIP3   OH2 9031   5.883   3.718   4.125
 3025TIP3    H1 9032   5.883   3.705   4.030
 3025TIP3    H2 9033   5.862   3.811   4.137
 3026TIP3   OH2 9034   6.642   1.122   0.459
 3026TIP3    H1 9035   6.651   1.185   0.388
 3026TIP3    H2 9036   6.571   1.064   0.431
 3027TIP3   OH2 9037   3.428   5.787   0.357
 3027TIP3    H1 9038   3.399   5.760   0.444
 3027TIP3    H2 9039   3.524   5.782   0.361
 3028TIP3   OH2 9040   1.138   0.923   1.955
 3028TIP3    H1 9041   1.062   0.954   2.006
 3028TIP3    H2 9042   1.131   0.970   1.871
 3029TIP3   OH2 9043   6.494   2.406   6.094
 3029TIP3    H1 9044   6.404   2.439   6.102
 3029TIP3    H2 9045   6.530   2.453   6.019
 3030TIP3   OH2 9046   4.721   3.487   5.754
 3030TIP3    H1 9047   4.732   3.448   5.668
 3030TIP3    H2 9048   4.679   3.419   5.807
 3031TIP3   OH2 9049   2.028   0.877   3.777
 3031TIP3    H1 9050   2.093   0.887   3.707
 3031TIP3    H2 9051   2.044   0.788   3.810
 3032TIP3   OH2 9052   3.821   3.677   1.804
 3032TIP3    H1 9053   3.788   3.625   1.731
 3032TIP3    H2 9054   3.871   3.748   1.764
 3033TIP3   OH2 9055   1.086   6.299   5.024
 3033TIP3    H1 9056   1.172   6.257   5.026
 3033TIP3    H2 9057   1.105   6.391   5.006
 3034TIP3   OH2 9058   0.025   6.852   3.544
 3034TIP3    H1 9059   0.038   6.906   3.467
 3034TIP3    H2 9060   0.033   6.762   3.512
 3035TIP3   OH2 9061   8.194   1.561   4.354
 3035TIP3    H1 9062   8.261   1.528   4.294
 3035TIP3    H2 9063   8.206   1.656   4.355
 3036TIP3   OH2 9064   6.126   7.521   4.730
 3036TIP3    H1 9065   6.122   7.491   4.639
 3036TIP3    H2 9066   6.089   7.609   4.729
 3037TIP3   OH2 9067   7.582   7.009   4.257
 3037TIP3    H1 9068   7.579   6.984   4.165
 3037TIP3    H2 9069   7.663   6.970   4.290
 3038TIP3   OH2 9070   7.061   2.682   4.806
 3038TIP3    H1 9071   7.000   2.754   4.790
 3038TIP3    H2 9072   7.147   2.723   4.811
 3039TIP3   OH2 9073   0.713   5.830   2.677
 3039TIP3    H1 9074   0.657   5.826   2.754
 3039TIP3    H2 9075   0.745   5.741   2.665
 3040TIP3   OH2 9076   3.805   6.828   1.481
 3040TIP3    H1 9077   3.872   6.767   1.451
 3040TIP3    H2 9078   3.838   6.860   1.565
 3041TIP3   OH2 9079   2.244   2.020   6.519
 3041TIP3    H1 9080   2.192   2.100   6.525
 3041TIP3    H2 9081   2.305   2.037   6.447
 3042TIP3   OH2 9082   4.520   5.945   5.394
 3042TIP3    H1 9083   4.494   5.860   5.430
 3042TIP3    H2 9084   4.524   6.002   5.471
 3043TIP3   OH2 9085   1.117   2.095   5.759
 3043TIP3    H1 9086   1.142   2.108   5.667
 3043TIP3    H2 9087   1.179   2.148   5.809
 3044TIP3   OH2 9088   3.224   2.660   3.378
 3044TIP3    H1 9089   3.168   2.595   3.420
 3044TIP3    H2 9090   3.283   2.608   3.324
 3045TIP3   OH2 9091   1.488   4.425   2.434
 3045TIP3    H1 9092   1.396   4.450   2.437
 3045TIP3    H2 9093   1.504   4.403   2.343
 3046TIP3   OH2 9094   3.516   4.197   4.607
 3046TIP3    H1 9095   3.455   4.271   4.601
 3046TIP3    H2 9096   3.466   4.122   4.574
 3047TIP3   OH2 9097   4.019   5.645   2.857
 3047TIP3    H1 9098   4.018   5.550   2.867
 3047TIP3    H2 9099   4.062   5.678   2.936
 3048TIP3   OH2 9100   3.071   7.415   6.440
 3048TIP3    H1 9101   3.060   7.356   6.366
 3048TIP3    H2 9102   3.000   7.479   6.432
 3049TIP3   OH2 9103   0.490   7.741   4.983
 3049TIP3    H1 9104   0.468   7.669   4.924
 3049TIP3    H2 9105   0.523   7.698   5.062
 3050TIP3   OH2 9106   5.055   7.719   3.448
 3050TIP3    H1 9107   5.030   7.665   3.523
 3050TIP3    H2 9108   5.115   7.664   3.397
 3051TIP3   OH2 9109   0.842   4.524   0.780
 3051TIP3    H1 9110   0.786   4.564   0.846
 3051TIP3    H2 9111   0.804   4.550   0.697
 3052TIP3   OH2 9112   1.485   4.789   4.600
 3052TIP3    H1 9113   1.414   4.759   4.657
 3052TIP3    H2 9114   1.552   4.721   4.608
 3053TIP3   OH2 9115   0.455   6.021   5.526
 3053TIP3    H1 9116   0.393   6.025   5.598
 3053TIP3    H2 9117   0.538   6.000   5.566
 3054TIP3   OH2 9118   3.547   4.487   6.529
 3054TIP3    H1 9119   3.624   4.539   6.550
 3054TIP3    H2 9120   3.515   4.523   6.446
 3055TIP3   OH2 9121   6.596   2.580   2.504
 3055TIP3    H1 9122   6.668   2.612   2.450
 3055TIP3    H2 9123   6.540   2.532   2.443
 3056TIP3   OH2 9124   2.786   3.735   3.953
 3056TIP3    H1 9125   2.865   3.681   3.950
 3056TIP3    H2 9126   2.714   3.673   3.955
 3057TIP3   OH2 9127   1.372   2.106   0.717
 3057TIP3    H1 9128   1.398   2.019   0.747
 3057TIP3    H2 9129   1.331   2.090   0.631
 3058TIP3   OH2 9130   2.275   6.446   1.027
 3058TIP3    H1 9131   2.275   6.512   1.097
 3058TIP3    H2 9132   2.364   6.449   0.992
 3059TIP3   OH2 9133   5.656   6.027   5.572
 3059TIP3    H1 9134   5.604   6.085   5.517
 3059TIP3    H2 9135   5.592   5.973   5.618
 3060TIP3   OH2 9136   4.790   7.178   2.000
 3060TIP3    H1 9137   4.852   7.158   2.070
 3060TIP3    H2 9138   4.836   7.154   1.919
 3061TIP3   OH2 9139   7.316   1.860   0.977
 3061TIP3    H1 9140   7.384   1.837   1.041
 3061TIP3    H2 9141   7.299   1.953   0.991
 3062TIP3   OH2 9142   2.626   7.265   2.777
 3062TIP3    H1 9143   2.563   7.265   2.849
 3062TIP3    H2 9144   2.704   7.223   2.812
 3063TIP3   OH2 9145   5.609   5.180   5.253
 3063TIP3    H1 9146   5.560   5.153   5.330
 3063TIP3    H2 9147   5.700   5.186   5.284
 3064TIP3   OH2 9148   8.092   5.962   3.043
 3064TIP3    H1 9149   8.100   5.966   2.948
 3064TIP3    H2 9150   8.033   5.889   3.060
 3065TIP3   OH2 9151   6.238   1.520   2.103
 3065TIP3    H1 9152   6.280   1.479   2.027
 3065TIP3    H2 9153   6.278   1.477   2.179
 3066TIP3   OH2 9154   7.064   3.014   3.445
 3066TIP3    H1 9155   7.112   3.034   3.526
 3066TIP3    H2 9156   6.994   2.956   3.473
 3067TIP3   OH2 9157   1.137   2.899   4.168
 3067TIP3    H1 9158   1.192   2.829   4.135
 3067TIP3    H2 9159   1.183   2.931   4.246
 3068TIP3   OH2 9160   6.047   1.764   0.322
 3068TIP3    H1 9161   6.030   1.794   0.411
 3068TIP3    H2 9162   6.132   1.720   0.326
 3069TIP3   OH2 9163   8.120   2.776   5.901
 3069TIP3    H1 9164   8.043   2.762   5.957
 3069TIP3    H2 9165   8.085   2.773   5.812
 3070TIP3   OH2 9166   1.665   5.236   2.020
 3070TIP3    H1 9167   1.658   5.162   1.960
 3070TIP3    H2 9168   1.639   5.202   2.105
 3071TIP3   OH2 9169   1.976   4.707   0.180
 3071TIP3    H1 9170   1.925   4.713   0.261
 3071TIP3    H2 9171   1.911   4.693   0.111
 3072TIP3   OH2 9172   6.161   6.909   1.031
 3072TIP3    H1 9173   6.128   6.918   0.942
 3072TIP3    H2 9174   6.219   6.833   1.028
 3073TIP3   OH2 9175   3.362   1.525   0.770
 3073TIP3    H1 9176   3.375   1.432   0.788
 3073TIP3    H2 9177   3.271   1.542   0.794
 3074TIP3   OH2 9178   6.896   1.330   3.358
 3074TIP3    H1 9179   6.850   1.302   3.437
 3074TIP3    H2 9180   6.973   1.273   3.354
 3075TIP3   OH2 9181   6.875   5.790   1.510
 3075TIP3    H1 9182   6.938   5.844   1.463
 3075TIP3    H2 9183   6.895   5.804   1.602
 3076TIP3   OH2 9184   0.804   4.406   2.187
 3076TIP3    H1 9185   0.772   4.316   2.182
 3076TIP3    H2 9186   0.830   4.417   2.278
 3077TIP3   OH2 9187   3.610   0.181   3.611
 3077TIP3    H1 9188   3.518   0.161   3.594
 3077TIP3    H2 9189   3.653   0.095   3.618
 3078TIP3   OH2 9190   7.282   1.092   1.615
 3078TIP3    H1 9191   7.212   1.107   1.678
 3078TIP3    H2 9192   7.265   1.004   1.582
 3079TIP3   OH2 9193   0.159   2.138   1.280
 3079TIP3    H1 9194   0.161   2.051   1.321
 3079TIP3    H2 9195   0.072   2.172   1.301
 3080TIP3   OH2 9196   3.782   1.602   0.456
 3080TIP3    H1 9197   3.782   1.543   0.381
 3080TIP3    H2 9198   3.767   1.544   0.531
 3081TIP3   OH2 9199   0.338   2.358   2.380
 3081TIP3    H1 9200   0.251   2.387   2.409
 3081TIP3    H2 9201   0.374   2.312   2.455
 3082TIP3   OH2 9202   7.383   1.867   2.183
 3082TIP3    H1 9203   7.419   1.952   2.160
 3082TIP3    H2 9204   7.374   1.821   2.100
 3083TIP3   OH2 9205   2.307   7.472   0.612
 3083TIP3    H1 9206   2.288   7.454   0.520
 3083TIP3    H2 9207   2.224   7.456   0.657
 3084TIP3   OH2 9208   4.417   5.445   3.617
 3084TIP3    H1 9209   4.334   5.415   3.654
 3084TIP3    H2 9210   4.460   5.492   3.689
 3085TIP3   OH2 9211   3.502   0.473   1.260
 3085TIP3    H1 9212   3.577   0.522   1.227
 3085TIP3    H2 9213   3.427   0.511   1.214
 3086TIP3   OH2 9214   7.107   2.746   4.264
 3086TIP3    H1 9215   7.074   2.704   4.343
 3086TIP3    H2 9216   7.124   2.674   4.204
 3087TIP3   OH2 9217   3.489   7.819   6.310
 3087TIP3    H1 9218   3.405   7.775   6.320
 3087TIP3    H2 9219   3.508   7.813   6.216
 3088TIP3   OH2 9220   0.406   3.376   5.428
 3088TIP3    H1 9221   0.479   3.405   5.483
 3088TIP3    H2 9222   0.343   3.340   5.489
 3089TIP3   OH2 9223   5.744   3.842   3.472
 3089TIP3    H1 9224   5.781   3.858   3.559
 3089TIP3    H2 9225   5.654   3.815   3.489
 3090TIP3   OH2 9226   0.810   5.477   5.590
 3090TIP3    H1 9227   0.762   5.462   5.508
 3090TIP3    H2 9228   0.769   5.418   5.653
 3091TIP3   OH2 9229   7.888   7.482   5.453
 3091TIP3    H1 9230   7.911   7.504   5.362
 3091TIP3    H2 9231   7.954   7.418   5.479
 3092TIP3   OH2 9232   7.901   0.244   6.139
 3092TIP3    H1 9233   7.902   0.221   6.232
 3092TIP3    H2 9234   7.984   0.211   6.105
 3093TIP3   OH2 9235   7.500   7.240   6.053
 3093TIP3    H1 9236   7.578   7.217   6.103
 3093TIP3    H2 9237   7.532   7.290   5.979
 3094TIP3   OH2 9238   4.164   6.160   6.110
 3094TIP3    H1 9239   4.096   6.118   6.162
 3094TIP3    H2 9240   4.117   6.212   6.045
 3095TIP3   OH2 9241   2.729   7.040   3.862
 3095TIP3    H1 9242   2.639   7.034   3.895
 3095TIP3    H2 9243   2.740   7.132   3.839
 3096TIP3   OH2 9244   6.803   7.185   1.810
 3096TIP3    H1 9245   6.779   7.274   1.837
 3096TIP3    H2 9246   6.726   7.153   1.762
 3097TIP3   OH2 9247   5.562   7.175   0.211
 3097TIP3    H1 9248   5.560   7.262   0.170
 3097TIP3    H2 9249   5.617   7.187   0.288
 3098TIP3   OH2 9250   5.173   3.399   4.824
 3098TIP3    H1 9251   5.236   3.470   4.832
 3098TIP3    H2 9252   5.212   3.325   4.871
 3099TIP3   OH2 9253   6.378   4.374   0.882
 3099TIP3    H1 9254   6.305   4.335   0.833
 3099TIP3    H2 9255   6.346   4.382   0.972
 3100TIP3   OH2 9256   8.019   2.763   5.599
 3100TIP3    H1 9257   7.953   2.707   5.639
 3100TIP3    H2 9258   8.036   2.723   5.514
 3101TIP3   OH2 9259   0.939   6.609   0.480
 3101TIP3    H1 9260   0.844   6.602   0.482
 3101TIP3    H2 9261   0.966   6.556   0.406
 3102TIP3   OH2 9262   3.816   0.586   1.616
 3102TIP3    H1 9263   3.878   0.650   1.650
 3102TIP3    H2 9264   3.773   0.551   1.694
 3103TIP3   OH2 9265   8.289   1.827   1.238
 3103TIP3    H1 9266   8.194   1.818   1.250
 3103TIP3    H2 9267   8.315   1.892   1.303
 3104TIP3   OH2 9268   4.098   7.185   4.198
 3104TIP3    H1 9269   4.161   7.256   4.209
 3104TIP3    H2 9270   4.146   7.106   4.221
 3105TIP3   OH2 9271   2.979   3.745   1.899
 3105TIP3    H1 9272   3.045   3.777   1.838
 3105TIP3    H2 9273   3.000   3.788   1.982
 3106TIP3   OH2 9274   6.669   5.971   6.475
 3106TIP3    H1 9275   6.624   6.002   6.396
 3106TIP3    H2 9276   6.715   5.892   6.447
 3107TIP3   OH2 9277   6.008   0.899   3.833
 3107TIP3    H1 9278   6.040   0.811   3.853
 3107TIP3    H2 9279   6.047   0.921   3.748
 3108TIP3   OH2 9280   3.173   0.463   4.038
 3108TIP3    H1 9281   3.122   0.522   3.983
 3108TIP3    H2 9282   3.253   0.513   4.058
 3109TIP3   OH2 9283   0.425   5.488   6.033
 3109TIP3    H1 9284   0.368   5.507   5.958
 3109TIP3    H2 9285   0.429   5.570   6.082
 3110TIP3   OH2 9286   3.610   2.179   4.359
 3110TIP3    H1 9287   3.659   2.110   4.314
 3110TIP3    H2 9288   3.667   2.256   4.354
 3111TIP3   OH2 9289   4.301   6.738   1.221
 3111TIP3    H1 9290   4.233   6.674   1.198
 3111TIP3    H2 9291   4.382   6.687   1.224
 3112TIP3   OH2 9292   4.793   1.697   5.346
 3112TIP3    H1 9293   4.837   1.618   5.314
 3112TIP3    H2 9294   4.864   1.760   5.361
 3113TIP3   OH2 9295   1.112   2.453   6.609
 3113TIP3    H1 9296   1.106   2.499   6.693
 3113TIP3    H2 9297   1.039   2.391   6.610
 3114TIP3   OH2 9298   3.750   4.997   5.815
 3114TIP3    H1 9299   3.796   4.920   5.781
 3114TIP3    H2 9300   3.738   4.978   5.908
 3115TIP3   OH2 9301   3.698   5.570   0.340
 3115TIP3    H1 9302   3.703   5.592   0.433
 3115TIP3    H2 9303   3.786   5.541   0.317
 3116TIP3   OH2 9304   7.712   4.041   3.745
 3116TIP3    H1 9305   7.799   4.043   3.785
 3116TIP3    H2 9306   7.685   3.949   3.751
 3117TIP3   OH2 9307   5.915   2.064   0.196
 3117TIP3    H1 9308   5.848   1.997   0.188
 3117TIP3    H2 9309   5.930   2.071   0.291
 3118TIP3   OH2 9310   2.020   7.725   6.184
 3118TIP3    H1 9311   2.086   7.794   6.192
 3118TIP3    H2 9312   1.940   7.770   6.157
 3119TIP3   OH2 9313   3.737   6.412   3.221
 3119TIP3    H1 9314   3.761   6.427   3.313
 3119TIP3    H2 9315   3.681   6.335   3.223
 3120TIP3   OH2 9316   6.310   7.223   6.720
 3120TIP3    H1 9317   6.387   7.171   6.694
 3120TIP3    H2 9318   6.236   7.176   6.683
 3121TIP3   OH2 9319   5.803   4.672   3.345
 3121TIP3    H1 9320   5.708   4.661   3.351
 3121TIP3    H2 9321   5.815   4.767   3.337
 3122TIP3   OH2 9322   5.602   1.669   1.357
 3122TIP3    H1 9323   5.513   1.645   1.382
 3122TIP3    H2 9324   5.591   1.743   1.297
 3123TIP3   OH2 9325   8.221   0.536   4.891
 3123TIP3    H1 9326   8.193   0.585   4.813
 3123TIP3    H2 9327   8.316   0.532   4.883
 3124TIP3   OH2 9328   5.999   1.466   5.734
 3124TIP3    H1 9329   6.052   1.386   5.737
 3124TIP3    H2 9330   6.061   1.537   5.744
 3125TIP3   OH2 9331   3.163   1.349   3.933
 3125TIP3    H1 9332   3.200   1.316   4.015
 3125TIP3    H2 9333   3.211   1.430   3.916
 3126TIP3   OH2 9334   2.070   1.318   6.107
 3126TIP3    H1 9335   2.138   1.274   6.158
 3126TIP3    H2 9336   2.001   1.336   6.171
 3127TIP3   OH2 9337   4.884   2.826   4.434
 3127TIP3    H1 9338   4.925   2.883   4.369
 3127TIP3    H2 9339   4.793   2.817   4.405
 3128TIP3   OH2 9340   5.381   1.618   3.358
 3128TIP3    H1 9341   5.409   1.699   3.316
 3128TIP3    H2 9342   5.368   1.642   3.450
 3129TIP3   OH2 9343   7.812   5.391   5.805
 3129TIP3    H1 9344   7.797   5.307   5.762
 3129TIP3    H2 9345   7.732   5.407   5.855
 3130TIP3   OH2 9346   7.118   5.143   3.766
 3130TIP3    H1 9347   7.185   5.207   3.790
 3130TIP3    H2 9348   7.043   5.164   3.821
 3131TIP3   OH2 9349   6.226   2.367   5.321
 3131TIP3    H1 9350   6.204   2.425   5.394
 3131TIP3    H2 9351   6.265   2.425   5.256
 3132TIP3   OH2 9352   1.849   6.301   0.794
 3132TIP3    H1 9353   1.771   6.247   0.810
 3132TIP3    H2 9354   1.862   6.298   0.700
 3133TIP3   OH2 9355   2.032   5.502  -0.007
 3133TIP3    H1 9356   2.115   5.456   0.005
 3133TIP3    H2 9357   2.027   5.561   0.068
 3134TIP3   OH2 9358   6.562   4.163   1.244
 3134TIP3    H1 9359   6.628   4.105   1.207
 3134TIP3    H2 9360   6.496   4.171   1.175
 3135TIP3   OH2 9361   1.937   2.062   4.363
 3135TIP3    H1 9362   1.925   2.018   4.279
 3135TIP3    H2 9363   1.976   1.996   4.420
 3136TIP3   OH2 9364   0.773   5.022   5.361
 3136TIP3    H1 9365   0.846   4.961   5.355
 3136TIP3    H2 9366   0.753   5.027   5.454
 3137TIP3   OH2 9367   2.034   7.079   3.746
 3137TIP3    H1 9368   2.046   7.015   3.676
 3137TIP3    H2 9369   1.940   7.093   3.751
 3138TIP3   OH2 9370   1.778   1.039   3.269
 3138TIP3    H1 9371   1.865   1.019   3.234
 3138TIP3    H2 9372   1.795   1.106   3.336
 3139TIP3   OH2 9373   5.655   3.487   0.736
 3139TIP3    H1 9374   5.748   3.492   0.713
 3139TIP3    H2 9375   5.610   3.483   0.652
 3140TIP3   OH2 9376   8.308   3.676   5.317
 3140TIP3    H1 9377   8.251   3.622   5.372
 3140TIP3    H2 9378   8.290   3.648   5.228
 3141TIP3   OH2 9379   5.971   5.896   2.283
 3141TIP3    H1 9380   5.991   5.988   2.299
 3141TIP3    H2 9381   5.956   5.890   2.188
 3142TIP3   OH2 9382   4.748   3.266   2.867
 3142TIP3    H1 9383   4.841   3.243   2.878
 3142TIP3    H2 9384   4.726   3.234   2.779
 3143TIP3   OH2 9385   2.458   3.853   1.297
 3143TIP3    H1 9386   2.540   3.806   1.282
 3143TIP3    H2 9387   2.395   3.785   1.321
 3144TIP3   OH2 9388   3.321   0.390   3.760
 3144TIP3    H1 9389   3.250   0.415   3.701
 3144TIP3    H2 9390   3.376   0.469   3.766
 3145TIP3   OH2 9391   7.485   7.820   3.022
 3145TIP3    H1 9392   7.578   7.801   3.019
 3145TIP3    H2 9393   7.471   7.860   3.108
 3146TIP3   OH2 9394   4.330   7.438   1.677
 3146TIP3    H1 9395   4.348   7.519   1.725
 3146TIP3    H2 9396   4.415   7.395   1.669
 3147TIP3   OH2 9397   2.429   6.854   1.992
 3147TIP3    H1 9398   2.475   6.862   2.076
 3147TIP3    H2 9399   2.448   6.765   1.963
 3148TIP3   OH2 9400   7.291   7.189   4.058
 3148TIP3    H1 9401   7.200   7.197   4.030
 3148TIP3    H2 9402   7.336   7.152   3.982
 3149TIP3   OH2 9403   2.926   1.016   4.779
 3149TIP3    H1 9404   2.967   1.040   4.862
 3149TIP3    H2 9405   2.878   0.935   4.799
 3150TIP3   OH2 9406   0.053   5.897   4.328
 3150TIP3    H1 9407  -0.038   5.870   4.335
 3150TIP3    H2 9408   0.049   5.993   4.335
 3151TIP3   OH2 9409   5.680   1.272   4.553
 3151TIP3    H1 9410   5.773   1.293   4.539
 3151TIP3    H2 9411   5.634   1.350   4.524
 3152TIP3   OH2 9412   6.877   1.382   3.088
 3152TIP3    H1 9413   6.944   1.449   3.079
 3152TIP3    H2 9414   6.888   1.349   3.177
 3153TIP3   OH2 9415   4.795   0.484   6.624
 3153TIP3    H1 9416   4.837   0.566   6.597
 3153TIP3    H2 9417   4.867   0.422   6.633
 3154TIP3   OH2 9418   5.452   1.448   5.959
 3154TIP3    H1 9419   5.500   1.401   6.028
 3154TIP3    H2 9420   5.424   1.379   5.899
 3155TIP3   OH2 9421   6.325   7.490   5.399
 3155TIP3    H1 9422   6.335   7.506   5.305
 3155TIP3    H2 9423   6.414   7.474   5.430
 3156TIP3   OH2 9424   3.111   3.081   1.358
 3156TIP3    H1 9425   3.180   3.137   1.321
 3156TIP3    H2 9426   3.124   3.086   1.452
 3157TIP3   OH2 9427   4.358   0.324   4.530
 3157TIP3    H1 9428   4.303   0.255   4.492
 3157TIP3    H2 9429   4.447   0.289   4.526
 3158TIP3   OH2 9430   6.643   2.410   3.509
 3158TIP3    H1 9431   6.557   2.369   3.498
 3158TIP3    H2 9432   6.685   2.360   3.579
 3159TIP3   OH2 9433   0.452   4.901   2.991
 3159TIP3    H1 9434   0.464   4.995   2.995
 3159TIP3    H2 9435   0.486   4.876   2.905
 3160TIP3   OH2 9436   5.069   2.076   2.655
 3160TIP3    H1 9437   5.158   2.084   2.690
 3160TIP3    H2 9438   5.072   2.121   2.571
 3161TIP3   OH2 9439   0.338   6.955   3.352
 3161TIP3    H1 9440   0.375   7.026   3.301
 3161TIP3    H2 9441   0.406   6.886   3.350
 3162TIP3   OH2 9442   4.630   0.956   5.464
 3162TIP3    H1 9443   4.627   1.034   5.409
 3162TIP3    H2 9444   4.646   0.884   5.402
 3163TIP3   OH2 9445   2.007   3.590   2.421
 3163TIP3    H1 9446   2.044   3.664   2.373
 3163TIP3    H2 9447   1.914   3.612   2.432
 3164TIP3   OH2 9448   0.742   0.722   2.244
 3164TIP3    H1 9449   0.733   0.748   2.336
 3164TIP3    H2 9450   0.830   0.686   2.238
 3165TIP3   OH2 9451   5.746   2.866   4.621
 3165TIP3    H1 9452   5.819   2.832   4.673
 3165TIP3    H2 9453   5.780   2.867   4.531
 3166TIP3   OH2 9454   4.748   1.193   0.155
 3166TIP3    H1 9455   4.780   1.115   0.200
 3166TIP3    H2 9456   4.654   1.195   0.176
 3167TIP3   OH2 9457   2.118   1.926   1.473
 3167TIP3    H1 9458   2.083   1.964   1.554
 3167TIP3    H2 9459   2.076   1.841   1.466
 3168TIP3   OH2 9460   8.148   2.308   2.213
 3168TIP3    H1 9461   8.190   2.378   2.164
 3168TIP3    H2 9462   8.063   2.296   2.171
 3169TIP3   OH2 9463   7.128   4.425   5.185
 3169TIP3    H1 9464   7.160   4.386   5.266
 3169TIP3    H2 9465   7.204   4.472   5.149
 3170TIP3   OH2 9466   2.803   3.158   6.410
 3170TIP3    H1 9467   2.877   3.110   6.371
 3170TIP3    H2 9468   2.729   3.136   6.354
 3171TIP3   OH2 9469   4.045   3.236   0.955
 3171TIP3    H1 9470   4.127   3.222   0.908
 3171TIP3    H2 9471   4.064   3.210   1.045
 3172TIP3   OH2 9472   5.314   5.685   0.498
 3172TIP3    H1 9473   5.260   5.704   0.574
 3172TIP3    H2 9474   5.301   5.592   0.482
 3173TIP3   OH2 9475   1.638   3.331   4.963
 3173TIP3    H1 9476   1.628   3.317   5.057
 3173TIP3    H2 9477   1.715   3.279   4.939
 3174TIP3   OH2 9478   6.886   1.437   4.604
 3174TIP3    H1 9479   6.961   1.380   4.617
 3174TIP3    H2 9480   6.910   1.519   4.648
 3175TIP3   OH2 9481   0.107   2.290   0.801
 3175TIP3    H1 9482   0.194   2.270   0.767
 3175TIP3    H2 9483   0.086   2.216   0.858
 3176TIP3   OH2 9484   4.838   0.046   3.904
 3176TIP3    H1 9485   4.796   0.131   3.906
 3176TIP3    H2 9486   4.769  -0.014   3.875
 3177TIP3   OH2 9487   0.054   2.091   0.985
 3177TIP3    H1 9488   0.023   2.000   0.986
 3177TIP3    H2 9489   0.098   2.101   1.070
 3178TIP3   OH2 9490   3.763   6.024   6.097
 3178TIP3    H1 9491   3.828   5.971   6.051
 3178TIP3    H2 9492   3.737   5.970   6.172
 3179TIP3   OH2 9493   4.153   1.564   4.262
 3179TIP3    H1 9494   4.209   1.630   4.303
 3179TIP3    H2 9495   4.138   1.598   4.174
 3180TIP3   OH2 9496   6.208   1.368   3.412
 3180TIP3    H1 9497   6.202   1.407   3.499
 3180TIP3    H2 9498   6.185   1.439   3.352
 3181TIP3   OH2 9499   3.253   0.535   2.670
 3181TIP3    H1 9500   3.300   0.476   2.611
 3181TIP3    H2 9501   3.208   0.477   2.731
 3182TIP3   OH2 9502   2.801   7.413   6.105
 3182TIP3    H1 9503   2.726   7.467   6.133
 3182TIP3    H2 9504   2.820   7.442   6.016
 3183TIP3   OH2 9505   2.433   4.521   6.474
 3183TIP3    H1 9506   2.452   4.437   6.516
 3183TIP3    H2 9507   2.472   4.586   6.532
 3184TIP3   OH2 9508   3.548   4.842   4.467
 3184TIP3    H1 9509   3.554   4.912   4.532
 3184TIP3    H2 9510   3.563   4.761   4.518
 3185TIP3   OH2 9511   5.105   0.801   3.417
 3185TIP3    H1 9512   5.157   0.721   3.417
 3185TIP3    H2 9513   5.080   0.812   3.325
 3186TIP3   OH2 9514   7.081   7.588   5.612
 3186TIP3    H1 9515   7.002   7.549   5.575
 3186TIP3    H2 9516   7.075   7.572   5.706
 3187TIP3   OH2 9517   5.814   1.398   3.345
 3187TIP3    H1 9518   5.751   1.388   3.274
 3187TIP3    H2 9519   5.844   1.309   3.364
 3188TIP3   OH2 9520   0.682   0.776   6.713
 3188TIP3    H1 9521   0.619   0.843   6.741
 3188TIP3    H2 9522   0.767   0.812   6.738
 3189TIP3   OH2 9523   5.955   7.222   3.865
 3189TIP3    H1 9524   5.993   7.147   3.911
 3189TIP3    H2 9525   5.962   7.200   3.773
 3190TIP3   OH2 9526   7.598   2.722   4.570
 3190TIP3    H1 9527   7.652   2.646   4.591
 3190TIP3    H2 9528   7.523   2.715   4.630
 3191TIP3   OH2 9529   6.984   4.654   5.273
 3191TIP3    H1 9530   7.010   4.564   5.293
 3191TIP3    H2 9531   6.890   4.657   5.292
 3192TIP3   OH2 9532   0.663   2.520   4.631
 3192TIP3    H1 9533   0.677   2.458   4.559
 3192TIP3    H2 9534   0.749   2.528   4.673
 3193TIP3   OH2 9535   0.157   0.707   1.529
 3193TIP3    H1 9536   0.234   0.736   1.481
 3193TIP3    H2 9537   0.190   0.647   1.596
 3194TIP3   OH2 9538   1.432   0.338   4.527
 3194TIP3    H1 9539   1.524   0.340   4.502
 3194TIP3    H2 9540   1.413   0.246   4.543
 3195TIP3   OH2 9541   2.673   2.477   6.123
 3195TIP3    H1 9542   2.688   2.570   6.106
 3195TIP3    H2 9543   2.650   2.473   6.216
 3196TIP3   OH2 9544   8.166   2.467   6.363
 3196TIP3    H1 9545   8.153   2.513   6.445
 3196TIP3    H2 9546   8.157   2.374   6.386
 3197TIP3   OH2 9547   3.323   6.123   1.955
 3197TIP3    H1 9548   3.417   6.119   1.939
 3197TIP3    H2 9549   3.297   6.032   1.972
 3198TIP3   OH2 9550   4.531   6.627   6.378
 3198TIP3    H1 9551   4.533   6.698   6.442
 3198TIP3    H2 9552   4.524   6.672   6.293
 3199TIP3   OH2 9553   6.335   7.718   3.462
 3199TIP3    H1 9554   6.338   7.770   3.542
 3199TIP3    H2 9555   6.256   7.747   3.417
 3200TIP3   OH2 9556   6.589   0.072   0.955
 3200TIP3    H1 9557   6.577   0.043   0.865
 3200TIP3    H2 9558   6.566  -0.003   1.009
 3201TIP3   OH2 9559   6.806   0.838   5.917
 3201TIP3    H1 9560   6.791   0.930   5.897
 3201TIP3    H2 9561   6.847   0.802   5.838
 3202TIP3   OH2 9562   5.165   6.134   3.928
 3202TIP3    H1 9563   5.231   6.065   3.922
 3202TIP3    H2 9564   5.201   6.197   3.991
 3203TIP3   OH2 9565   2.354   3.158   0.408
 3203TIP3    H1 9566   2.383   3.131   0.495
 3203TIP3    H2 9567   2.428   3.140   0.351
 3204TIP3   OH2 9568   6.224   2.666   0.548
 3204TIP3    H1 9569   6.230   2.698   0.638
 3204TIP3    H2 9570   6.161   2.594   0.553
 3205TIP3   OH2 9571   4.009   0.895   6.598
 3205TIP3    H1 9572   3.931   0.943   6.626
 3205TIP3    H2 9573   4.071   0.963   6.573
 3206TIP3   OH2 9574   1.804   3.816   0.996
 3206TIP3    H1 9575   1.774   3.845   0.910
 3206TIP3    H2 9576   1.845   3.730   0.979
 3207TIP3   OH2 9577   4.731   5.230   5.932
 3207TIP3    H1 9578   4.650   5.242   5.882
 3207TIP3    H2 9579   4.783   5.308   5.912
 3208TIP3   OH2 9580   1.300   5.756   0.707
 3208TIP3    H1 9581   1.346   5.812   0.770
 3208TIP3    H2 9582   1.336   5.669   0.722
 3209TIP3   OH2 9583   0.886   6.783   6.225
 3209TIP3    H1 9584   0.970   6.807   6.185
 3209TIP3    H2 9585   0.901   6.793   6.319
 3210TIP3   OH2 9586   3.233   7.053   3.003
 3210TIP3    H1 9587   3.221   6.964   2.968
 3210TIP3    H2 9588   3.317   7.050   3.048
 3211TIP3   OH2 9589   2.505   4.383   1.975
 3211TIP3    H1 9590   2.557   4.462   1.962
 3211TIP3    H2 9591   2.542   4.320   1.912
 3212TIP3   OH2 9592   7.083   0.641   6.732
 3212TIP3    H1 9593   7.104   0.678   6.647
 3212TIP3    H2 9594   6.988   0.635   6.734
 3213TIP3   OH2 9595   3.853   2.857   4.669
 3213TIP3    H1 9596   3.886   2.775   4.635
 3213TIP3    H2 9597   3.807   2.833   4.750
 3214TIP3   OH2 9598   0.236   1.156   1.115
 3214TIP3    H1 9599   0.262   1.219   1.182
 3214TIP3    H2 9600   0.226   1.073   1.162
 3215TIP3   OH2 9601   0.159   2.191   1.616
 3215TIP3    H1 9602   0.169   2.098   1.638
 3215TIP3    H2 9603   0.248   2.221   1.596
 3216TIP3   OH2 9604   3.106   6.515   6.499
 3216TIP3    H1 9605   3.029   6.523   6.555
 3216TIP3    H2 9606   3.152   6.598   6.509
 3217TIP3   OH2 9607   7.658   1.222   0.792
 3217TIP3    H1 9608   7.716   1.240   0.718
 3217TIP3    H2 9609   7.591   1.291   0.787
 3218TIP3   OH2 9610   1.009   6.298   3.380
 3218TIP3    H1 9611   1.030   6.332   3.466
 3218TIP3    H2 9612   0.968   6.213   3.397
 3219TIP3   OH2 9613   2.088   4.070   0.868
 3219TIP3    H1 9614   2.098   4.128   0.943
 3219TIP3    H2 9615   2.171   4.023   0.863
 3220TIP3   OH2 9616   8.197   1.752   3.742
 3220TIP3    H1 9617   8.123   1.750   3.803
 3220TIP3    H2 9618   8.196   1.840   3.706
 3221TIP3   OH2 9619   2.050   1.924   5.039
 3221TIP3    H1 9620   2.138   1.950   5.064
 3221TIP3    H2 9621   1.996   2.000   5.059
 3222TIP3   OH2 9622   5.186   1.300   2.530
 3222TIP3    H1 9623   5.171   1.335   2.442
 3222TIP3    H2 9624   5.276   1.327   2.551
 3223TIP3   OH2 9625   6.300   4.147   4.519
 3223TIP3    H1 9626   6.225   4.169   4.464
 3223TIP3    H2 9627   6.330   4.232   4.552
 3224TIP3   OH2 9628   2.275   5.351   5.635
 3224TIP3    H1 9629   2.294   5.395   5.552
 3224TIP3    H2 9630   2.180   5.345   5.638
 3225TIP3   OH2 9631   6.206   3.727   6.548
 3225TIP3    H1 9632   6.288   3.772   6.527
 3225TIP3    H2 9633   6.141   3.765   6.490
 3226TIP3   OH2 9634   2.581   1.546   0.170
 3226TIP3    H1 9635   2.613   1.474   0.116
 3226TIP3    H2 9636   2.647   1.557   0.238
 3227TIP3   OH2 9637   7.491   1.098   3.906
 3227TIP3    H1 9638   7.478   1.193   3.914
 3227TIP3    H2 9639   7.508   1.084   3.813
 3228TIP3   OH2 9640   3.555   3.963   0.364
 3228TIP3    H1 9641   3.494   3.959   0.438
 3228TIP3    H2 9642   3.638   3.989   0.403
 3229TIP3   OH2 9643   2.982   2.674   5.110
 3229TIP3    H1 9644   2.943   2.724   5.181
 3229TIP3    H2 9645   2.952   2.585   5.124
 3230TIP3   OH2 9646   2.933   1.813   3.534
 3230TIP3    H1 9647   2.923   1.719   3.549
 3230TIP3    H2 9648   2.850   1.851   3.566
 3231TIP3   OH2 9649   1.021   1.573   5.487
 3231TIP3    H1 9650   1.000   1.653   5.536
 3231TIP3    H2 9651   0.990   1.502   5.543
 3232TIP3   OH2 9652   6.356   4.340   2.497
 3232TIP3    H1 9653   6.430   4.289   2.462
 3232TIP3    H2 9654   6.358   4.324   2.591
 3233TIP3   OH2 9655   4.955   4.480   5.527
 3233TIP3    H1 9656   4.987   4.523   5.448
 3233TIP3    H2 9657   5.016   4.407   5.540
 3234TIP3   OH2 9658   6.160   2.516   3.238
 3234TIP3    H1 9659   6.139   2.541   3.328
 3234TIP3    H2 9660   6.138   2.593   3.186
 3235TIP3   OH2 9661   6.904   3.124   0.071
 3235TIP3    H1 9662   6.966   3.133  -0.001
 3235TIP3    H2 9663   6.941   3.057   0.128
 3236TIP3   OH2 9664   1.048   3.321   5.567
 3236TIP3    H1 9665   0.962   3.329   5.609
 3236TIP3    H2 9666   1.029   3.326   5.474
 3237TIP3   OH2 9667   1.954   2.656   3.738
 3237TIP3    H1 9668   2.031   2.608   3.708
 3237TIP3    H2 9669   1.880   2.609   3.699
 3238TIP3   OH2 9670   7.769   6.319   2.565
 3238TIP3    H1 9671   7.678   6.293   2.552
 3238TIP3    H2 9672   7.802   6.335   2.476
 3239TIP3   OH2 9673   6.224   0.624   4.630
 3239TIP3    H1 9674   6.300   0.656   4.679
 3239TIP3    H2 9675   6.172   0.575   4.693
 3240TIP3   OH2 9676   1.571   6.029   5.411
 3240TIP3    H1 9677   1.641   6.092   5.427
 3240TIP3    H2 9678   1.616   5.949   5.382
 3241TIP3   OH2 9679   1.790   0.818   0.236
 3241TIP3    H1 9680   1.745   0.735   0.219
 3241TIP3    H2 9681   1.832   0.839   0.153
 3242TIP3   OH2 9682   0.822   1.089   3.444
 3242TIP3    H1 9683   0.850   1.173   3.408
 3242TIP3    H2 9684   0.727   1.089   3.435
 3243TIP3   OH2 9685   3.811   1.897   0.474
 3243TIP3    H1 9686   3.724   1.936   0.479
 3243TIP3    H2 9687   3.794   1.803   0.463
 3244TIP3   OH2 9688   3.900   4.834   0.526
 3244TIP3    H1 9689   3.914   4.741   0.541
 3244TIP3    H2 9690   3.968   4.858   0.462
 3245TIP3   OH2 9691   1.573   3.469   0.906
 3245TIP3    H1 9692   1.666   3.489   0.893
 3245TIP3    H2 9693   1.529   3.507   0.830
 3246TIP3   OH2 9694   3.290   3.456   3.167
 3246TIP3    H1 9695   3.346   3.399   3.115
 3246TIP3    H2 9696   3.237   3.503   3.103
 3247TIP3   OH2 9697   7.944   2.701   1.974
 3247TIP3    H1 9698   7.995   2.659   2.043
 3247TIP3    H2 9699   7.973   2.792   1.974
 3248TIP3   OH2 9700   5.130   4.630   6.647
 3248TIP3    H1 9701   5.111   4.577   6.724
 3248TIP3    H2 9702   5.098   4.718   6.669
 3249TIP3   OH2 9703   2.391   3.178   5.619
 3249TIP3    H1 9704   2.415   3.086   5.627
 3249TIP3    H2 9705   2.318   3.179   5.557
 3250TIP3   OH2 9706   8.147   1.307   0.981
 3250TIP3    H1 9707   8.128   1.272   0.895
 3250TIP3    H2 9708   8.231   1.353   0.971
 3251TIP3   OH2 9709   6.937   0.197   3.124
 3251TIP3    H1 9710   6.929   0.139   3.199
 3251TIP3    H2 9711   6.975   0.141   3.055
 3252TIP3   OH2 9712   0.110   5.590   6.328
 3252TIP3    H1 9713   0.088   5.669   6.280
 3252TIP3    H2 9714   0.035   5.532   6.315
 3253TIP3   OH2 9715   7.474   7.351   4.432
 3253TIP3    H1 9716   7.530   7.285   4.471
 3253TIP3    H2 9717   7.495   7.348   4.338
 3254TIP3   OH2 9718   7.045   1.536   1.935
 3254TIP3    H1 9719   7.014   1.604   1.875
 3254TIP3    H2 9720   6.966   1.488   1.959
 3255TIP3   OH2 9721   0.748   6.039   5.593
 3255TIP3    H1 9722   0.832   6.033   5.637
 3255TIP3    H2 9723   0.768   6.028   5.500
 3256TIP3   OH2 9724   4.653   0.936   3.569
 3256TIP3    H1 9725   4.729   0.985   3.538
 3256TIP3    H2 9726   4.678   0.907   3.657
 3257TIP3   OH2 9727   4.687   2.486   1.902
 3257TIP3    H1 9728   4.687   2.436   1.821
 3257TIP3    H2 9729   4.602   2.469   1.942
 3258TIP3   OH2 9730   3.322   4.305   6.592
 3258TIP3    H1 9731   3.363   4.264   6.668
 3258TIP3    H2 9732   3.395   4.335   6.538
 3259TIP3   OH2 9733   5.017   3.835   0.169
 3259TIP3    H1 9734   5.110   3.858   0.168
 3259TIP3    H2 9735   5.010   3.764   0.233
 3260TIP3   OH2 9736   6.816   2.466   2.951
 3260TIP3    H1 9737   6.754   2.458   2.878
 3260TIP3    H2 9738   6.764   2.443   3.029
 3261TIP3   OH2 9739   5.821   1.187   0.662
 3261TIP3    H1 9740   5.865   1.243   0.726
 3261TIP3    H2 9741   5.813   1.102   0.706
 3262TIP3   OH2 9742   4.213   3.634   1.145
 3262TIP3    H1 9743   4.288   3.576   1.134
 3262TIP3    H2 9744   4.248   3.722   1.131
 3263TIP3   OH2 9745   4.923   0.622   3.620
 3263TIP3    H1 9746   4.857   0.655   3.559
 3263TIP3    H2 9747   4.872   0.590   3.695
 3264TIP3   OH2 9748   2.581   7.537   6.229
 3264TIP3    H1 9749   2.660   7.588   6.250
 3264TIP3    H2 9750   2.558   7.495   6.311
 3265TIP3   OH2 9751   0.668   2.630   5.658
 3265TIP3    H1 9752   0.646   2.687   5.585
 3265TIP3    H2 9753   0.594   2.639   5.719
 3266TIP3   OH2 9754   7.985   3.671   5.491
 3266TIP3    H1 9755   7.985   3.586   5.536
 3266TIP3    H2 9756   8.076   3.686   5.469
 3267TIP3   OH2 9757   5.619   3.513   3.575
 3267TIP3    H1 9758   5.713   3.526   3.565
 3267TIP3    H2 9759   5.588   3.592   3.620
 3268TIP3   OH2 9760   1.042   2.929   5.925
 3268TIP3    H1 9761   1.048   2.915   6.019
 3268TIP3    H2 9762   0.986   2.858   5.893
 3269TIP3   OH2 9763   4.272   4.783   1.816
 3269TIP3    H1 9764   4.207   4.727   1.773
 3269TIP3    H2 9765   4.351   4.729   1.820
 3270TIP3   OH2 9766   4.119   0.305   5.127
 3270TIP3    H1 9767   4.031   0.339   5.146
 3270TIP3    H2 9768   4.169   0.383   5.103
 3271TIP3   OH2 9769   0.733   7.168   3.798
 3271TIP3    H1 9770   0.642   7.169   3.826
 3271TIP3    H2 9771   0.762   7.259   3.810
 3272TIP3   OH2 9772   6.209   3.811   3.397
 3272TIP3    H1 9773   6.220   3.876   3.327
 3272TIP3    H2 9774   6.283   3.752   3.386
 3273TIP3   OH2 9775   0.723   0.825   4.463
 3273TIP3    H1 9776   0.707   0.823   4.368
 3273TIP3    H2 9777   0.691   0.741   4.495
 3274TIP3   OH2 9778   0.467   5.578   5.655
 3274TIP3    H1 9779   0.481   5.596   5.562
 3274TIP3    H2 9780   0.541   5.619   5.699
 3275TIP3   OH2 9781   4.929   0.908   6.785
 3275TIP3    H1 9782   4.952   1.001   6.781
 3275TIP3    H2 9783   4.954   0.873   6.699
 3276TIP3   OH2 9784   7.395   7.141   5.328
 3276TIP3    H1 9785   7.318   7.130   5.272
 3276TIP3    H2 9786   7.454   7.070   5.302
 3277TIP3   OH2 9787   3.152   6.711   0.796
 3277TIP3    H1 9788   3.164   6.753   0.881
 3277TIP3    H2 9789   3.057   6.711   0.782
 3278TIP3   OH2 9790   2.870   3.628   3.583
 3278TIP3    H1 9791   2.789   3.654   3.627
 3278TIP3    H2 9792   2.914   3.711   3.564
 3279TIP3   OH2 9793   6.444   4.633   6.321
 3279TIP3    H1 9794   6.370   4.575   6.338
 3279TIP3    H2 9795   6.415   4.689   6.249
 3280TIP3   OH2 9796   6.375   6.320   3.865
 3280TIP3    H1 9797   6.455   6.362   3.834
 3280TIP3    H2 9798   6.406   6.245   3.916
 3281TIP3   OH2 9799   1.259   3.812   2.064
 3281TIP3    H1 9800   1.283   3.725   2.034
 3281TIP3    H2 9801   1.334   3.841   2.116
 3282TIP3   OH2 9802   3.458   6.313   2.568
 3282TIP3    H1 9803   3.549   6.340   2.581
 3282TIP3    H2 9804   3.445   6.242   2.632
 3283TIP3   OH2 9805   8.002   3.760   6.331
 3283TIP3    H1 9806   7.929   3.821   6.316
 3283TIP3    H2 9807   8.078   3.803   6.293
 3284TIP3   OH2 9808   8.254   0.207   3.589
 3284TIP3    H1 9809   8.313   0.206   3.514
 3284TIP3    H2 9810   8.192   0.135   3.572
 3285TIP3   OH2 9811   1.780   2.116   1.335
 3285TIP3    H1 9812   1.711   2.055   1.361
 3285TIP3    H2 9813   1.745   2.203   1.357
 3286TIP3   OH2 9814   0.475   5.609   0.035
 3286TIP3    H1 9815   0.539   5.567   0.093
 3286TIP3    H2 9816   0.391   5.574   0.064
 3287TIP3   OH2 9817   3.057   4.130   1.410
 3287TIP3    H1 9818   3.140   4.085   1.393
 3287TIP3    H2 9819   3.081   4.203   1.467
 3288TIP3   OH2 9820   4.576   7.514   0.178
 3288TIP3    H1 9821   4.578   7.446   0.110
 3288TIP3    H2 9822   4.537   7.590   0.134
 3289TIP3   OH2 9823   5.678   2.404   3.043
 3289TIP3    H1 9824   5.643   2.329   2.994
 3289TIP3    H2 9825   5.771   2.404   3.023
 3290TIP3   OH2 9826   3.131   3.634   5.397
 3290TIP3    H1 9827   3.175   3.687   5.330
 3290TIP3    H2 9828   3.041   3.625   5.365
 3291TIP3   OH2 9829   3.298   6.442   3.048
 3291TIP3    H1 9830   3.366   6.408   2.990
 3291TIP3    H2 9831   3.287   6.374   3.115
 3292TIP3   OH2 9832   0.572   7.321   0.763
 3292TIP3    H1 9833   0.507   7.256   0.789
 3292TIP3    H2 9834   0.528   7.373   0.696
 3293TIP3   OH2 9835   7.401   2.094   6.474
 3293TIP3    H1 9836   7.313   2.090   6.436
 3293TIP3    H2 9837   7.460   2.103   6.400
 3294TIP3   OH2 9838   1.288   7.401   1.934
 3294TIP3    H1 9839   1.307   7.494   1.950
 3294TIP3    H2 9840   1.263   7.398   1.842
 3295TIP3   OH2 9841   1.235   3.588   4.044
 3295TIP3    H1 9842   1.150   3.543   4.049
 3295TIP3    H2 9843   1.298   3.518   4.024
 3296TIP3   OH2 9844   6.293   4.014   3.233
 3296TIP3    H1 9845   6.211   4.036   3.188
 3296TIP3    H2 9846   6.359   4.017   3.164
 3297TIP3   OH2 9847   2.606   5.255   3.253
 3297TIP3    H1 9848   2.537   5.320   3.243
 3297TIP3    H2 9849   2.620   5.248   3.347
 3298TIP3   OH2 9850   4.491   1.961   3.289
 3298TIP3    H1 9851   4.579   1.954   3.326
 3298TIP3    H2 9852   4.465   1.871   3.271
 3299TIP3   OH2 9853   6.185   0.120   6.703
 3299TIP3    H1 9854   6.223   0.035   6.725
 3299TIP3    H2 9855   6.100   0.120   6.747
 3300TIP3   OH2 9856   4.245   5.493   3.345
 3300TIP3    H1 9857   4.279   5.581   3.358
 3300TIP3    H2 9858   4.215   5.465   3.431
 3301TIP3   OH2 9859   0.349   7.666   2.315
 3301TIP3    H1 9860   0.435   7.661   2.272
 3301TIP3    H2 9861   0.363   7.624   2.400
 3302TIP3   OH2 9862   7.520   0.236   2.660
 3302TIP3    H1 9863   7.489   0.152   2.628
 3302TIP3    H2 9864   7.450   0.298   2.638
 3303TIP3   OH2 9865   7.790   5.486   4.853
 3303TIP3    H1 9866   7.797   5.393   4.829
 3303TIP3    H2 9867   7.858   5.499   4.919
 3304TIP3   OH2 9868   1.592   2.362   2.907
 3304TIP3    H1 9869   1.570   2.423   2.836
 3304TIP3    H2 9870   1.660   2.407   2.957
 3305TIP3   OH2 9871   0.909   7.219   3.388
 3305TIP3    H1 9872   0.945   7.256   3.468
 3305TIP3    H2 9873   0.981   7.222   3.325
 3306TIP3   OH2 9874   4.254   1.795   5.793
 3306TIP3    H1 9875   4.287   1.881   5.766
 3306TIP3    H2 9876   4.331   1.749   5.827
 3307TIP3   OH2 9877   3.451   2.011   2.477
 3307TIP3    H1 9878   3.399   1.942   2.518
 3307TIP3    H2 9879   3.518   2.032   2.542
 3308TIP3   OH2 9880   6.101   3.013   6.170
 3308TIP3    H1 9881   6.181   3.041   6.125
 3308TIP3    H2 9882   6.113   3.043   6.260
 3309TIP3   OH2 9883   0.293   1.730   5.442
 3309TIP3    H1 9884   0.250   1.743   5.527
 3309TIP3    H2 9885   0.360   1.798   5.439
 3310TIP3   OH2 9886   7.193   3.942   1.946
 3310TIP3    H1 9887   7.243   3.985   2.015
 3310TIP3    H2 9888   7.195   4.003   1.873
 3311TIP3   OH2 9889   1.238   7.232   6.335
 3311TIP3    H1 9890   1.252   7.140   6.312
 3311TIP3    H2 9891   1.301   7.250   6.404
 3312TIP3   OH2 9892   6.382   3.707   0.388
 3312TIP3    H1 9893   6.332   3.782   0.355
 3312TIP3    H2 9894   6.406   3.657   0.310
 3313TIP3   OH2 9895   4.332   5.963   6.608
 3313TIP3    H1 9896   4.415   5.997   6.575
 3313TIP3    H2 9897   4.334   5.870   6.585
 3314TIP3   OH2 9898   4.343   5.488   2.941
 3314TIP3    H1 9899   4.311   5.480   3.031
 3314TIP3    H2 9900   4.327   5.403   2.901
 3315TIP3   OH2 9901   5.803   6.761   3.670
 3315TIP3    H1 9902   5.718   6.774   3.627
 3315TIP3    H2 9903   5.786   6.785   3.761
 3316TIP3   OH2 9904   5.807   0.022   1.171
 3316TIP3    H1 9905   5.822   0.021   1.077
 3316TIP3    H2 9906   5.834   0.110   1.199
 3317TIP3   OH2 9907   2.086   2.457   1.882
 3317TIP3    H1 9908   1.992   2.438   1.883
 3317TIP3    H2 9909   2.096   2.527   1.818
 3318TIP3   OH2 9910   1.806   3.497   1.574
 3318TIP3    H1 9911   1.819   3.447   1.493
 3318TIP3    H2 9912   1.740   3.448   1.622
 3319TIP3   OH2 9913   5.138   7.074   1.107
 3319TIP3    H1 9914   5.189   7.002   1.144
 3319TIP3    H2 9915   5.193   7.151   1.119
 3320TIP3   OH2 9916   5.858   6.279   3.316
 3320TIP3    H1 9917   5.874   6.199   3.367
 3320TIP3    H2 9918   5.910   6.267   3.237
 3321TIP3   OH2 9919   0.184   7.318   6.255
 3321TIP3    H1 9920   0.262   7.373   6.250
 3321TIP3    H2 9921   0.174   7.299   6.348
 3322TIP3   OH2 9922   6.616   0.577   6.398
 3322TIP3    H1 9923   6.681   0.585   6.328
 3322TIP3    H2 9924   6.575   0.663   6.403
 3323TIP3   OH2 9925   4.101   4.377   3.590
 3323TIP3    H1 9926   4.054   4.359   3.509
 3323TIP3    H2 9927   4.181   4.324   3.583
 3324TIP3   OH2 9928   1.984   3.533   3.345
 3324TIP3    H1 9929   1.901   3.571   3.316
 3324TIP3    H2 9930   2.012   3.590   3.416
 3325TIP3   OH2 9931   6.427   0.779   6.276
 3325TIP3    H1 9932   6.459   0.791   6.187
 3325TIP3    H2 9933   6.340   0.741   6.266
 3326TIP3   OH2 9934   7.602   5.202   6.040
 3326TIP3    H1 9935   7.654   5.153   5.977
 3326TIP3    H2 9936   7.518   5.216   5.996
 3327TIP3   OH2 9937   4.493   5.959   3.303
 3327TIP3    H1 9938   4.574   5.939   3.350
 3327TIP3    H2 9939   4.449   6.024   3.357
 3328TIP3   OH2 9940   5.237   7.424   4.886
 3328TIP3    H1 9941   5.218   7.494   4.948
 3328TIP3    H2 9942   5.185   7.350   4.918
 3329TIP3   OH2 9943   1.561   6.642   3.928
 3329TIP3    H1 9944   1.570   6.731   3.962
 3329TIP3    H2 9945   1.639   6.629   3.873
 3330TIP3   OH2 9946   6.590   6.856   4.005
 3330TIP3    H1 9947   6.554   6.818   3.925
 3330TIP3    H2 9948   6.684   6.863   3.988
 3331TIP3   OH2 9949   7.732   6.132   4.604
 3331TIP3    H1 9950   7.717   6.208   4.548
 3331TIP3    H2 9951   7.810   6.091   4.568
 3332TIP3   OH2 9952   4.461   6.798   3.457
 3332TIP3    H1 9953   4.535   6.832   3.507
 3332TIP3    H2 9954   4.410   6.875   3.433
 3333TIP3   OH2 9955   6.277   1.509   6.768
 3333TIP3    H1 9956   6.263   1.552   6.852
 3333TIP3    H2 9957   6.352   1.556   6.730
 3334TIP3   OH2 9958   3.003   1.266   5.870
 3334TIP3    H1 9959   3.009   1.333   5.801
 3334TIP3    H2 9960   2.912   1.271   5.900
 3335TIP3   OH2 9961   3.019   2.714   2.530
 3335TIP3    H1 9962   3.093   2.674   2.485
 3335TIP3    H2 9963   3.055   2.749   2.611
 3336TIP3   OH2 9964   5.791   2.046   5.587
 3336TIP3    H1 9965   5.827   1.965   5.623
 3336TIP3    H2 9966   5.849   2.069   5.515
 3337TIP3   OH2 9967   7.026   4.110   3.581
 3337TIP3    H1 9968   7.063   4.079   3.664
 3337TIP3    H2 9969   6.932   4.106   3.594
 3338TIP3   OH2 9970   2.575   6.710   2.301
 3338TIP3    H1 9971   2.526   6.701   2.383
 3338TIP3    H2 9972   2.589   6.804   2.291
 3339TIP3   OH2 9973   2.191   0.357   4.728
 3339TIP3    H1 9974   2.147   0.275   4.752
 3339TIP3    H2 9975   2.243   0.379   4.805
 3340TIP3   OH2 9976   3.052   0.138   0.464
 3340TIP3    H1 9977   3.110   0.080   0.513
 3340TIP3    H2 9978   3.079   0.127   0.373
 3341TIP3   OH2 9979   3.953   6.081   5.526
 3341TIP3    H1 9980   3.885   6.053   5.464
 3341TIP3    H2 9981   3.948   6.177   5.525
 3342TIP3   OH2 9982   6.851   5.958   1.227
 3342TIP3    H1 9983   6.897   6.029   1.181
 3342TIP3    H2 9984   6.837   5.892   1.159
 3343TIP3   OH2 9985   1.558   2.580   5.860
 3343TIP3    H1 9986   1.464   2.574   5.840
 3343TIP3    H2 9987   1.599   2.599   5.776
 3344TIP3   OH2 9988   4.708   0.741   0.631
 3344TIP3    H1 9989   4.740   0.821   0.589
 3344TIP3    H2 9990   4.711   0.676   0.561
 3345TIP3   OH2 9991   0.443   4.162   6.691
 3345TIP3    H1 9992   0.398   4.087   6.731
 3345TIP3    H2 9993   0.532   4.131   6.674
 3346TIP3   OH2 9994   0.615   2.550   1.618
 3346TIP3    H1 9995   0.635   2.638   1.649
 3346TIP3    H2 9996   0.570   2.564   1.535
 3347TIP3   OH2 9997   0.415   1.618   0.620
 3347TIP3    H1 9998   0.490   1.592   0.673
 3347TIP3    H2 9999   0.341   1.618   0.682
 3348TIP3   OH210000   4.324   6.917   5.188
 3348TIP3    H110001   4.368   6.886   5.110
 3348TIP3    H210002   4.382   6.892   5.260
 3349TIP3   OH210003   3.972   4.303   6.208
 3349TIP3    H110004   4.043   4.357   6.173
 3349TIP3    H210005   3.988   4.216   6.170
 3350TIP3   OH210006   7.174   4.589   2.335
 3350TIP3    H110007   7.261   4.552   2.321
 3350TIP3    H210008   7.149   4.623   2.249
 3351TIP3   OH210009   2.143   1.189   6.639
 3351TIP3    H110010   2.172   1.267   6.591
 3351TIP3    H210011   2.052   1.177   6.613
 3352TIP3   OH210012   8.085   6.005   5.527
 3352TIP3    H110013   8.043   6.088   5.503
 3352TIP3    H210014   8.046   5.940   5.469
 3353TIP3   OH210015   5.487   0.786   4.207
 3353TIP3    H110016   5.544   0.854   4.169
 3353TIP3    H210017   5.452   0.827   4.286
 3354TIP3   OH210018   7.941   4.696   6.583
 3354TIP3    H110019   7.873   4.639   6.546
 3354TIP3    H210020   8.016   4.638   6.599
 3355TIP3   OH210021   5.495   1.929   0.719
 3355TIP3    H110022   5.412   1.969   0.746
 3355TIP3    H210023   5.469   1.859   0.659
 3356TIP3   OH210024   1.003   4.931   1.966
 3356TIP3    H110025   1.001   5.024   1.943
 3356TIP3    H210026   1.078   4.922   2.025
 3357TIP3   OH210027   1.350   0.129   4.958
 3357TIP3    H110028   1.266   0.087   4.977
 3357TIP3    H210029   1.337   0.170   4.873
 3358TIP3   OH210030   5.980   5.189   3.439
 3358TIP3    H110031   6.012   5.115   3.490
 3358TIP3    H210032   5.963   5.152   3.352
 3359TIP3   OH210033   1.845   1.586   3.143
 3359TIP3    H110034   1.905   1.633   3.202
 3359TIP3    H210035   1.796   1.655   3.098
 3360TIP3   OH210036   0.809   5.292   4.864
 3360TIP3    H110037   0.751   5.358   4.903
 3360TIP3    H210038   0.871   5.270   4.934
 3361TIP3   OH210039   4.470   6.307   0.214
 3361TIP3    H110040   4.382   6.344   0.221
 3361TIP3    H210041   4.518   6.369   0.159
 3362TIP3   OH210042   7.974   4.143   2.891
 3362TIP3    H110043   8.021   4.186   2.962
 3362TIP3    H210044   7.930   4.215   2.845
 3363TIP3   OH210045   7.129   4.580   3.265
 3363TIP3    H110046   7.130   4.675   3.277
 3363TIP3    H210047   7.104   4.567   3.174
 3364TIP3   OH210048   3.699   3.898   5.348
 3364TIP3    H110049   3.722   3.933   5.434
 3364TIP3    H210050   3.655   3.971   5.303
 3365TIP3   OH210051   2.198   6.776   3.890
 3365TIP3    H110052   2.228   6.780   3.799
 3365TIP3    H210053   2.242   6.849   3.934
 3366TIP3   OH210054   5.971   6.252   4.452
 3366TIP3    H110055   5.921   6.277   4.375
 3366TIP3    H210056   6.002   6.335   4.489
 3367TIP3   OH210057   2.476   7.453   2.630
 3367TIP3    H110058   2.522   7.396   2.691
 3367TIP3    H210059   2.385   7.425   2.635
 3368TIP3   OH210060   6.829   7.513   5.604
 3368TIP3    H110061   6.815   7.458   5.527
 3368TIP3    H210062   6.740   7.535   5.634
 3369TIP3   OH210063   1.200   2.240   3.695
 3369TIP3    H110064   1.132   2.265   3.757
 3369TIP3    H210065   1.176   2.285   3.614
 3370TIP3   OH210066   1.913   0.387   5.426
 3370TIP3    H110067   1.860   0.455   5.385
 3370TIP3    H210068   1.852   0.335   5.477
 3371TIP3   OH210069   1.249   2.657   6.186
 3371TIP3    H110070   1.202   2.740   6.180
 3371TIP3    H210071   1.280   2.653   6.277
 3372TIP3   OH210072   7.736   0.400   3.108
 3372TIP3    H110073   7.787   0.332   3.062
 3372TIP3    H210074   7.780   0.409   3.192
 3373TIP3   OH210075   3.569   4.012   4.287
 3373TIP3    H110076   3.570   4.106   4.273
 3373TIP3    H210077   3.640   3.979   4.233
 3374TIP3   OH210078   7.619   1.503   4.973
 3374TIP3    H110079   7.682   1.469   5.036
 3374TIP3    H210080   7.609   1.595   4.996
 3375TIP3   OH210081   5.037   5.417   0.518
 3375TIP3    H110082   4.967   5.417   0.584
 3375TIP3    H210083   5.009   5.482   0.454
 3376TIP3   OH210084   3.441   7.519   0.246
 3376TIP3    H110085   3.439   7.584   0.175
 3376TIP3    H210086   3.370   7.545   0.304
 3377TIP3   OH210087   3.854   3.317   5.272
 3377TIP3    H110088   3.766   3.323   5.310
 3377TIP3    H210089   3.852   3.237   5.220
 3378TIP3   OH210090   0.961   0.220   1.068
 3378TIP3    H110091   0.880   0.269   1.064
 3378TIP3    H210092   0.955   0.170   1.149
 3379TIP3   OH210093   0.410   4.404   4.859
 3379TIP3    H110094   0.365   4.458   4.794
 3379TIP3    H210095   0.501   4.434   4.856
 3380TIP3   OH210096   4.788   5.936   4.828
 3380TIP3    H110097   4.697   5.919   4.803
 3380TIP3    H210098   4.829   5.849   4.830
 3381TIP3   OH210099   0.855   6.913   4.264
 3381TIP3    H110100   0.856   6.817   4.270
 3381TIP3    H210101   0.784   6.932   4.203
 3382TIP3   OH210102   7.813   1.649   1.950
 3382TIP3    H110103   7.851   1.639   2.038
 3382TIP3    H210104   7.719   1.632   1.963
 3383TIP3   OH210105   0.534   5.122   4.908
 3383TIP3    H110106   0.531   5.033   4.944
 3383TIP3    H210107   0.600   5.118   4.840
 3384TIP3   OH210108   7.831   1.469   5.947
 3384TIP3    H110109   7.795   1.391   5.905
 3384TIP3    H210110   7.902   1.436   6.002
 3385TIP3   OH210111   0.186   0.722   3.086
 3385TIP3    H110112   0.206   0.768   3.168
 3385TIP3    H210113   0.221   0.779   3.018
 3386TIP3   OH210114   2.942   7.478   1.486
 3386TIP3    H110115   2.972   7.543   1.549
 3386TIP3    H210116   2.996   7.401   1.502
 3387TIP3   OH210117   7.654   2.731   1.022
 3387TIP3    H110118   7.619   2.657   1.072
 3387TIP3    H210119   7.578   2.767   0.976
 3388TIP3   OH210120   3.042   5.125   6.401
 3388TIP3    H110121   3.037   5.135   6.496
 3388TIP3    H210122   2.955   5.094   6.375
 3389TIP3   OH210123   7.561   0.803   5.660
 3389TIP3    H110124   7.642   0.753   5.658
 3389TIP3    H210125   7.580   0.883   5.611
 3390TIP3   OH210126   1.695   0.810   3.887
 3390TIP3    H110127   1.708   0.870   3.813
 3390TIP3    H210128   1.707   0.723   3.849
 3391TIP3   OH210129   6.552   0.808   3.858
 3391TIP3    H110130   6.522   0.878   3.916
 3391TIP3    H210131   6.502   0.821   3.777
 3392TIP3   OH210132   3.634   3.617   5.258
 3392TIP3    H110133   3.644   3.709   5.282
 3392TIP3    H210134   3.713   3.597   5.208
 3393TIP3   OH210135   6.423   4.532   0.197
 3393TIP3    H110136   6.438   4.447   0.239
 3393TIP3    H210137   6.357   4.514   0.130
 3394TIP3   OH210138   5.551   3.811   0.703
 3394TIP3    H110139   5.576   3.723   0.675
 3394TIP3    H210140   5.617   3.835   0.769
 3395TIP3   OH210141   5.109   7.203   5.816
 3395TIP3    H110142   5.062   7.264   5.759
 3395TIP3    H210143   5.043   7.173   5.878
 3396TIP3   OH210144   8.206   4.463   2.515
 3396TIP3    H110145   8.184   4.390   2.456
 3396TIP3    H210146   8.264   4.423   2.580
 3397TIP3   OH210147   5.538   3.252   6.364
 3397TIP3    H110148   5.608   3.311   6.336
 3397TIP3    H210149   5.496   3.225   6.283
 3398TIP3   OH210150   7.542   4.617   4.838
 3398TIP3    H110151   7.612   4.680   4.822
 3398TIP3    H210152   7.525   4.578   4.752
 3399TIP3   OH210153   4.110   5.085   1.588
 3399TIP3    H110154   4.097   5.043   1.503
 3399TIP3    H210155   4.048   5.158   1.587
 3400TIP3   OH210156   2.178   4.005   2.120
 3400TIP3    H110157   2.115   4.000   2.048
 3400TIP3    H210158   2.158   3.929   2.175
 3401TIP3   OH210159   2.705   3.095   2.322
 3401TIP3    H110160   2.651   3.132   2.392
 3401TIP3    H210161   2.754   3.024   2.363
 3402TIP3   OH210162   1.145   0.662   4.727
 3402TIP3    H110163   1.201   0.606   4.781
 3402TIP3    H210164   1.178   0.751   4.742
 3403TIP3   OH210165   4.064   4.938   3.507
 3403TIP3    H110166   4.076   5.006   3.573
 3403TIP3    H210167   4.102   4.974   3.427
 3404TIP3   OH210168   2.411   2.781   4.578
 3404TIP3    H110169   2.370   2.868   4.569
 3404TIP3    H210170   2.497   2.791   4.538
 3405TIP3   OH210171   7.032   5.841   1.866
 3405TIP3    H110172   7.020   5.825   1.960
 3405TIP3    H210173   7.035   5.754   1.827
 3406TIP3   OH210174   7.302   2.369   3.245
 3406TIP3    H110175   7.269   2.457   3.224
 3406TIP3    H210176   7.234   2.310   3.213
 3407TIP3   OH210177   2.156   5.806   3.517
 3407TIP3    H110178   2.162   5.889   3.564
 3407TIP3    H210179   2.175   5.829   3.426
 3408TIP3   OH210180   6.232   5.936   1.744
 3408TIP3    H110181   6.280   5.911   1.666
 3408TIP3    H210182   6.161   5.992   1.712
 3409TIP3   OH210183   4.199   7.039   6.702
 3409TIP3    H110184   4.249   6.981   6.644
 3409TIP3    H210185   4.220   7.008   6.790
 3410TIP3   OH210186   0.490   6.824   4.406
 3410TIP3    H110187   0.472   6.751   4.466
 3410TIP3    H210188   0.406   6.840   4.363
 3411TIP3   OH210189   4.731   2.468   1.037
 3411TIP3    H110190   4.718   2.527   0.962
 3411TIP3    H210191   4.647   2.466   1.081
 3412TIP3   OH210192   3.769   7.544   3.851
 3412TIP3    H110193   3.748   7.603   3.779
 3412TIP3    H210194   3.689   7.494   3.865
 3413TIP3   OH210195   1.815   4.486   6.111
 3413TIP3    H110196   1.743   4.423   6.108
 3413TIP3    H210197   1.893   4.435   6.089
 3414TIP3   OH210198   3.314   0.434   4.915
 3414TIP3    H110199   3.297   0.344   4.943
 3414TIP3    H210200   3.233   0.460   4.870
 3415TIP3   OH210201   6.248   7.274   3.202
 3415TIP3    H110202   6.296   7.216   3.142
 3415TIP3    H210203   6.305   7.350   3.212
 3416TIP3   OH210204   7.587   6.337   1.056
 3416TIP3    H110205   7.578   6.392   0.978
 3416TIP3    H210206   7.672   6.294   1.045
 3417TIP3   OH210207   4.413   6.126   1.105
 3417TIP3    H110208   4.400   6.193   1.172
 3417TIP3    H210209   4.472   6.168   1.041
 3418TIP3   OH210210   0.578   0.468   6.230
 3418TIP3    H110211   0.564   0.474   6.324
 3418TIP3    H210212   0.662   0.422   6.221
 3419TIP3   OH210213   3.099   4.889   5.144
 3419TIP3    H110214   3.139   4.808   5.175
 3419TIP3    H210215   3.172   4.948   5.128
 3420TIP3   OH210216   1.448   3.952   5.978
 3420TIP3    H110217   1.533   3.966   5.936
 3420TIP3    H210218   1.399   4.032   5.960
 3421TIP3   OH210219   5.454   5.194   1.421
 3421TIP3    H110220   5.451   5.142   1.502
 3421TIP3    H210221   5.498   5.275   1.447
 3422TIP3   OH210222   7.887   6.607   3.069
 3422TIP3    H110223   7.950   6.650   3.011
 3422TIP3    H210224   7.822   6.675   3.089
 3423TIP3   OH210225   7.503   4.453   1.792
 3423TIP3    H110226   7.571   4.386   1.780
 3423TIP3    H210227   7.477   4.477   1.703
 3424TIP3   OH210228   1.943   6.480   3.656
 3424TIP3    H110229   1.986   6.394   3.655
 3424TIP3    H210230   1.954   6.511   3.746
 3425TIP3   OH210231   7.129   3.284   5.882
 3425TIP3    H110232   7.088   3.350   5.827
 3425TIP3    H210233   7.065   3.267   5.951
 3426TIP3   OH210234   7.054   6.546   6.776
 3426TIP3    H110235   7.078   6.627   6.732
 3426TIP3    H210236   6.975   6.568   6.825
 3427TIP3   OH210237   1.059   2.045   1.754
 3427TIP3    H110238   0.969   2.066   1.730
 3427TIP3    H210239   1.065   2.068   1.847
 3428TIP3   OH210240   1.481   1.603   0.833
 3428TIP3    H110241   1.496   1.513   0.804
 3428TIP3    H210242   1.518   1.657   0.763
 3429TIP3   OH210243   4.520   5.394   5.509
 3429TIP3    H110244   4.492   5.379   5.418
 3429TIP3    H210245   4.610   5.425   5.501
 3430TIP3   OH210246   6.176   1.775   2.518
 3430TIP3    H110247   6.265   1.748   2.541
 3430TIP3    H210248   6.120   1.728   2.580
 3431TIP3   OH210249   4.309   7.478   4.908
 3431TIP3    H110250   4.364   7.544   4.951
 3431TIP3    H210251   4.224   7.520   4.897
 3432TIP3   OH210252   4.975   6.431   5.713
 3432TIP3    H110253   4.905   6.469   5.660
 3432TIP3    H210254   5.044   6.497   5.713
 3433TIP3   OH210255   0.826   6.082   1.826
 3433TIP3    H110256   0.799   6.136   1.751
 3433TIP3    H210257   0.869   6.143   1.885
 3434TIP3   OH210258   5.533   0.985   2.801
 3434TIP3    H110259   5.556   0.893   2.789
 3434TIP3    H210260   5.450   0.982   2.850
 3435TIP3   OH210261   5.133   2.770   3.112
 3435TIP3    H110262   5.195   2.795   3.181
 3435TIP3    H210263   5.178   2.790   3.030
 3436TIP3   OH210264   5.694   3.948   2.800
 3436TIP3    H110265   5.674   4.015   2.865
 3436TIP3    H210266   5.759   3.892   2.842
 3437TIP3   OH210267   0.450   7.114   3.165
 3437TIP3    H110268   0.393   7.086   3.094
 3437TIP3    H210269   0.488   7.196   3.136
 3438TIP3   OH210270   1.057   6.119   5.385
 3438TIP3    H110271   1.123   6.122   5.316
 3438TIP3    H210272   0.975   6.137   5.341
 3439TIP3   OH210273   0.397   3.816   3.278
 3439TIP3    H110274   0.412   3.909   3.267
 3439TIP3    H210275   0.324   3.810   3.341
 3440TIP3   OH210276   2.419   4.235   6.354
 3440TIP3    H110277   2.366   4.219   6.432
 3440TIP3    H210278   2.364   4.288   6.297
 3441TIP3   OH210279   2.049   6.453   6.182
 3441TIP3    H110280   2.117   6.476   6.245
 3441TIP3    H210281   2.041   6.358   6.190
 3442TIP3   OH210282   0.855   0.462   6.553
 3442TIP3    H110283   0.869   0.517   6.476
 3442TIP3    H210284   0.926   0.485   6.612
 3443TIP3   OH210285   8.085   1.227   0.456
 3443TIP3    H110286   8.051   1.166   0.390
 3443TIP3    H210287   8.180   1.213   0.455
 3444TIP3   OH210288   6.305   1.842   4.715
 3444TIP3    H110289   6.395   1.813   4.731
 3444TIP3    H210290   6.309   1.888   4.631
 3445TIP3   OH210291   3.572   7.061   5.550
 3445TIP3    H110292   3.522   6.999   5.603
 3445TIP3    H210293   3.530   7.057   5.464
 3446TIP3   OH210294   7.488   6.634   4.964
 3446TIP3    H110295   7.548   6.681   5.021
 3446TIP3    H210296   7.427   6.590   5.025
 3447TIP3   OH210297   4.185   4.170   4.112
 3447TIP3    H110298   4.176   4.224   4.034
 3447TIP3    H210299   4.105   4.187   4.162
 3448TIP3   OH210300   4.120   0.730   0.200
 3448TIP3    H110301   4.076   0.783   0.268
 3448TIP3    H210302   4.174   0.668   0.250
 3449TIP3   OH210303   5.214   0.485   3.857
 3449TIP3    H110304   5.261   0.467   3.776
 3449TIP3    H210305   5.276   0.536   3.909
 3450TIP3   OH210306   1.986   4.549   2.194
 3450TIP3    H110307   2.018   4.520   2.279
 3450TIP3    H210308   2.048   4.616   2.166
 3451TIP3   OH210309   3.624   4.207   6.477
 3451TIP3    H110310   3.701   4.176   6.526
 3451TIP3    H210311   3.622   4.301   6.493
 3452TIP3   OH210312   2.851   6.590   0.512
 3452TIP3    H110313   2.847   6.645   0.591
 3452TIP3    H210314   2.934   6.615   0.470
 3453TIP3   OH210315   1.468   0.374   0.153
 3453TIP3    H110316   1.456   0.369   0.059
 3453TIP3    H210317   1.492   0.285   0.179
 3454TIP3   OH210318   5.253   0.584   1.820
 3454TIP3    H110319   5.188   0.517   1.844
 3454TIP3    H210320   5.201   0.655   1.782
 3455TIP3   OH210321   0.900   5.221   0.726
 3455TIP3    H110322   0.820   5.273   0.729
 3455TIP3    H210323   0.891   5.169   0.646
 3456TIP3   OH210324   0.901   7.087   5.340
 3456TIP3    H110325   0.863   7.068   5.425
 3456TIP3    H210326   0.838   7.144   5.297
 3457TIP3   OH210327   4.217   7.095   4.555
 3457TIP3    H110328   4.313   7.098   4.552
 3457TIP3    H210329   4.191   7.061   4.469
 3458TIP3   OH210330   4.653   6.821   2.052
 3458TIP3    H110331   4.683   6.878   2.123
 3458TIP3    H210332   4.716   6.838   1.981
 3459TIP3   OH210333   1.751   4.688   4.590
 3459TIP3    H110334   1.840   4.654   4.587
 3459TIP3    H210335   1.741   4.735   4.507
 3460TIP3   OH210336   0.446   2.585   3.027
 3460TIP3    H110337   0.352   2.577   3.009
 3460TIP3    H210338   0.460   2.530   3.104
 3461TIP3   OH210339   4.642   5.876   5.136
 3461TIP3    H110340   4.614   5.944   5.074
 3461TIP3    H210341   4.579   5.882   5.208
 3462TIP3   OH210342   1.145   4.150   1.112
 3462TIP3    H110343   1.176   4.064   1.140
 3462TIP3    H210344   1.050   4.144   1.119
 3463TIP3   OH210345   1.933   7.580   0.398
 3463TIP3    H110346   1.863   7.543   0.451
 3463TIP3    H210347   1.917   7.547   0.310
 3464TIP3   OH210348   3.440   7.147   3.325
 3464TIP3    H110349   3.382   7.211   3.366
 3464TIP3    H210350   3.391   7.065   3.328
 3465TIP3   OH210351   5.547   5.359   4.837
 3465TIP3    H110352   5.587   5.416   4.902
 3465TIP3    H210353   5.513   5.285   4.888
 3466TIP3   OH210354   4.844   7.160   6.586
 3466TIP3    H110355   4.900   7.117   6.650
 3466TIP3    H210356   4.871   7.123   6.502
 3467TIP3   OH210357   6.420   5.552   4.225
 3467TIP3    H110358   6.496   5.548   4.166
 3467TIP3    H210359   6.358   5.489   4.188
 3468TIP3   OH210360   5.579   5.432   0.257
 3468TIP3    H110361   5.506   5.425   0.195
 3468TIP3    H210362   5.583   5.346   0.299
 3469TIP3   OH210363   1.909   4.345   1.105
 3469TIP3    H110364   1.851   4.390   1.167
 3469TIP3    H210365   1.898   4.252   1.126
 3470TIP3   OH210366   3.414   6.489   3.607
 3470TIP3    H110367   3.329   6.500   3.648
 3470TIP3    H210368   3.466   6.562   3.640
 3471TIP3   OH210369   3.939   6.712   0.876
 3471TIP3    H110370   3.967   6.661   0.801
 3471TIP3    H210371   3.976   6.798   0.862
 3472TIP3   OH210372   3.566   6.715   3.736
 3472TIP3    H110373   3.550   6.802   3.701
 3472TIP3    H210374   3.645   6.685   3.691
 3473TIP3   OH210375   6.025   3.356   5.391
 3473TIP3    H110376   6.109   3.387   5.426
 3473TIP3    H210377   5.969   3.433   5.390
 3474TIP3   OH210378   1.500   1.786   3.298
 3474TIP3    H110379   1.522   1.866   3.345
 3474TIP3    H210380   1.517   1.716   3.361
 3475TIP3   OH210381   3.746   7.156   6.297
 3475TIP3    H110382   3.708   7.069   6.289
 3475TIP3    H210383   3.827   7.143   6.347
 3476TIP3   OH210384   7.630   1.493   1.599
 3476TIP3    H110385   7.627   1.432   1.673
 3476TIP3    H210386   7.583   1.570   1.630
 3477TIP3   OH210387   2.660   6.705   0.319
 3477TIP3    H110388   2.593   6.662   0.372
 3477TIP3    H210389   2.742   6.687   0.365
 3478TIP3   OH210390   3.047   3.131   6.095
 3478TIP3    H110391   2.964   3.106   6.134
 3478TIP3    H210392   3.108   3.138   6.169
 3479TIP3   OH210393   3.233   1.935   4.959
 3479TIP3    H110394   3.212   2.023   4.989
 3479TIP3    H210395   3.173   1.919   4.886
 3480TIP3   OH210396   0.919   6.839   5.650
 3480TIP3    H110397   0.911   6.804   5.561
 3480TIP3    H210398   0.857   6.788   5.702
 3481TIP3   OH210399   4.826   0.531   5.542
 3481TIP3    H110400   4.810   0.566   5.629
 3481TIP3    H210401   4.738   0.518   5.505
 3482TIP3   OH210402   3.889   1.668   2.485
 3482TIP3    H110403   3.914   1.576   2.490
 3482TIP3    H210404   3.811   1.668   2.428
 3483TIP3   OH210405   4.513   0.899   6.241
 3483TIP3    H110406   4.600   0.934   6.224
 3483TIP3    H210407   4.477   0.956   6.309
 3484TIP3   OH210408   7.662   6.043   3.936
 3484TIP3    H110409   7.681   5.984   3.863
 3484TIP3    H210410   7.587   6.094   3.907
 3485TIP3   OH210411   6.083   1.602   2.751
 3485TIP3    H110412   6.108   1.510   2.767
 3485TIP3    H210413   6.000   1.597   2.704
 3486TIP3   OH210414   0.863   0.115   5.086
 3486TIP3    H110415   0.922   0.117   5.161
 3486TIP3    H210416   0.776   0.128   5.125
 3487TIP3   OH210417   3.198   3.443   2.901
 3487TIP3    H110418   3.160   3.487   2.825
 3487TIP3    H210419   3.224   3.357   2.867
 3488TIP3   OH210420   7.858   5.044   4.530
 3488TIP3    H110421   7.919   5.108   4.493
 3488TIP3    H210422   7.914   4.982   4.576
 3489TIP3   OH210423   4.525   3.584   1.193
 3489TIP3    H110424   4.537   3.656   1.255
 3489TIP3    H210425   4.485   3.514   1.244
 3490TIP3   OH210426   3.966   3.334   6.005
 3490TIP3    H110427   3.977   3.261   6.066
 3490TIP3    H210428   3.872   3.352   6.006
 3491TIP3   OH210429   0.254   5.292   5.128
 3491TIP3    H110430   0.344   5.325   5.128
 3491TIP3    H210431   0.220   5.315   5.214
 3492TIP3   OH210432   5.964   3.721   5.832
 3492TIP3    H110433   5.994   3.768   5.910
 3492TIP3    H210434   6.008   3.636   5.837
 3493TIP3   OH210435   3.010   6.663   0.064
 3493TIP3    H110436   2.983   6.696   0.149
 3493TIP3    H210437   3.017   6.568   0.076
 3494TIP3   OH210438   1.625   1.328   0.509
 3494TIP3    H110439   1.576   1.392   0.458
 3494TIP3    H210440   1.716   1.357   0.505
 3495TIP3   OH210441   6.741   0.599   4.106
 3495TIP3    H110442   6.753   0.547   4.026
 3495TIP3    H210443   6.746   0.535   4.177
 3496TIP3   OH210444   8.287   5.817   2.084
 3496TIP3    H110445   8.206   5.866   2.096
 3496TIP3    H210446   8.301   5.815   1.989
 3497TIP3   OH210447   2.905   0.006   1.628
 3497TIP3    H110448   2.862   0.051   1.555
 3497TIP3    H210449   2.834  -0.027   1.682
 3498TIP3   OH210450   2.174   3.193   2.940
 3498TIP3    H110451   2.235   3.230   3.005
 3498TIP3    H210452   2.091   3.237   2.958
 3499TIP3   OH210453   7.103   1.557   2.291
 3499TIP3    H110454   7.091   1.462   2.298
 3499TIP3    H210455   7.148   1.570   2.208
 3500TIP3   OH210456   1.048   5.980   5.085
 3500TIP3    H110457   1.115   6.035   5.125
 3500TIP3    H210458   1.050   6.004   4.992
 3501TIP3   OH210459   5.653   5.177   5.821
 3501TIP3    H110460   5.688   5.148   5.905
 3501TIP3    H210461   5.679   5.108   5.759
 3502TIP3   OH210462   5.248   3.127   2.571
 3502TIP3    H110463   5.200   3.080   2.503
 3502TIP3    H210464   5.311   3.181   2.523
 3503TIP3   OH210465   6.350   4.055   2.918
 3503TIP3    H110466   6.342   4.060   2.823
 3503TIP3    H210467   6.264   4.027   2.948
 3504TIP3   OH210468   0.544   2.578   2.310
 3504TIP3    H110469   0.549   2.536   2.224
 3504TIP3    H210470   0.489   2.520   2.362
 3505TIP3   OH210471   3.519   1.255   3.440
 3505TIP3    H110472   3.430   1.239   3.471
 3505TIP3    H210473   3.567   1.175   3.462
 3506TIP3   OH210474   4.086   3.762   0.395
 3506TIP3    H110475   4.174   3.768   0.432
 3506TIP3    H210476   4.044   3.691   0.445
 3507TIP3   OH210477   6.246   2.473   5.838
 3507TIP3    H110478   6.274   2.389   5.801
 3507TIP3    H210479   6.326   2.523   5.848
 3508TIP3   OH210480   7.507   4.433   6.121
 3508TIP3    H110481   7.461   4.421   6.204
 3508TIP3    H210482   7.550   4.348   6.105
 3509TIP3   OH210483   4.614   2.431   3.473
 3509TIP3    H110484   4.541   2.488   3.500
 3509TIP3    H210485   4.625   2.371   3.546
 3510TIP3   OH210486   3.335   0.977   0.897
 3510TIP3    H110487   3.414   0.927   0.878
 3510TIP3    H210488   3.298   0.935   0.975
 3511TIP3   OH210489   5.577   6.093   5.131
 3511TIP3    H110490   5.652   6.034   5.123
 3511TIP3    H210491   5.582   6.149   5.053
 3512TIP3   OH210492   4.293   0.773   0.671
 3512TIP3    H110493   4.330   0.699   0.720
 3512TIP3    H210494   4.264   0.834   0.739
 3513TIP3   OH210495   0.616   3.277   4.676
 3513TIP3    H110496   0.603   3.371   4.664
 3513TIP3    H210497   0.706   3.269   4.708
 3514TIP3   OH210498   0.677   3.082   2.886
 3514TIP3    H110499   0.764   3.048   2.865
 3514TIP3    H210500   0.621   3.004   2.888
 3515TIP3   OH210501   4.366   4.564   5.500
 3515TIP3    H110502   4.450   4.518   5.512
 3515TIP3    H210503   4.373   4.603   5.413
 3516TIP3   OH210504   6.295   6.853   3.213
 3516TIP3    H110505   6.242   6.859   3.292
 3516TIP3    H210506   6.326   6.943   3.198
 3517TIP3   OH210507   0.687   5.906   0.884
 3517TIP3    H110508   0.733   5.982   0.918
 3517TIP3    H210509   0.750   5.834   0.890
 3518TIP3   OH210510   6.406   4.415   6.511
 3518TIP3    H110511   6.348   4.405   6.435
 3518TIP3    H210512   6.351   4.390   6.586
 3519TIP3   OH210513   1.319   4.601   5.749
 3519TIP3    H110514   1.382   4.664   5.782
 3519TIP3    H210515   1.320   4.613   5.654
 3520TIP3   OH210516   2.604   1.103   4.975
 3520TIP3    H110517   2.642   1.138   5.055
 3520TIP3    H210518   2.516   1.142   4.972
 3521TIP3   OH210519   2.571   1.504   3.115
 3521TIP3    H110520   2.565   1.584   3.062
 3521TIP3    H210521   2.485   1.498   3.158
 3522TIP3   OH210522   8.141   0.106   0.756
 3522TIP3    H110523   8.163   0.198   0.772
 3522TIP3    H210524   8.060   0.109   0.706
 3523TIP3   OH210525   3.862   7.016   0.601
 3523TIP3    H110526   3.795   7.003   0.534
 3523TIP3    H210527   3.822   6.983   0.682
 3524TIP3   OH210528   4.943   3.613   0.911
 3524TIP3    H110529   4.883   3.596   0.838
 3524TIP3    H210530   5.022   3.647   0.870
 3525TIP3   OH210531   5.864   3.200   2.128
 3525TIP3    H110532   5.922   3.131   2.096
 3525TIP3    H210533   5.785   3.191   2.075
 3526TIP3   OH210534   7.204   5.876   2.726
 3526TIP3    H110535   7.192   5.951   2.669
 3526TIP3    H210536   7.164   5.803   2.679
 3527TIP3   OH210537   5.923   6.909   3.129
 3527TIP3    H110538   5.883   6.913   3.042
 3527TIP3    H210539   6.005   6.861   3.116
 3528TIP3   OH210540   4.538   2.969   2.672
 3528TIP3    H110541   4.448   2.941   2.689
 3528TIP3    H210542   4.532   3.025   2.594
 3529TIP3   OH210543   6.274   0.921   0.118
 3529TIP3    H110544   6.351   0.976   0.103
 3529TIP3    H210545   6.273   0.861   0.043
 3530TIP3   OH210546   6.975   6.029   0.751
 3530TIP3    H110547   6.980   5.981   0.668
 3530TIP3    H210548   6.896   6.081   0.745
 3531TIP3   OH210549   1.015   5.883   5.521
 3531TIP3    H110550   1.011   5.825   5.445
 3531TIP3    H210551   1.010   5.971   5.485
 3532TIP3   OH210552   2.950   1.617   5.284
 3532TIP3    H110553   2.940   1.712   5.272
 3532TIP3    H210554   3.022   1.593   5.226
 3533TIP3   OH210555   7.230   1.346   3.669
 3533TIP3    H110556   7.195   1.435   3.678
 3533TIP3    H210557   7.263   1.343   3.579
 3534TIP3   OH210558   6.206   1.433   0.037
 3534TIP3    H110559   6.142   1.412  -0.031
 3534TIP3    H210560   6.160   1.415   0.119
 3535TIP3   OH210561   5.570   6.787   2.115
 3535TIP3    H110562   5.644   6.792   2.175
 3535TIP3    H210563   5.509   6.727   2.158
 3536TIP3   OH210564   7.405   4.997   6.109
 3536TIP3    H110565   7.438   5.030   6.192
 3536TIP3    H210566   7.396   5.074   6.054
 3537TIP3   OH210567   7.297   5.288   0.534
 3537TIP3    H110568   7.212   5.332   0.528
 3537TIP3    H210569   7.325   5.278   0.443
 3538TIP3   OH210570   6.637   1.381   3.241
 3538TIP3    H110571   6.688   1.378   3.322
 3538TIP3    H210572   6.703   1.379   3.172
 3539TIP3   OH210573   0.184   2.850   3.427
 3539TIP3    H110574   0.276   2.868   3.447
 3539TIP3    H210575   0.175   2.875   3.335
 3540TIP3   OH210576   1.998   1.176   0.542
 3540TIP3    H110577   1.942   1.158   0.467
 3540TIP3    H210578   1.994   1.096   0.595
 3541TIP3   OH210579   7.412   6.933   6.088
 3541TIP3    H110580   7.370   6.959   6.169
 3541TIP3    H210581   7.476   7.002   6.071
 3542TIP3   OH210582   0.677   6.179   2.234
 3542TIP3    H110583   0.649   6.148   2.320
 3542TIP3    H210584   0.712   6.266   2.251
 3543TIP3   OH210585   0.712   5.735   3.306
 3543TIP3    H110586   0.776   5.676   3.267
 3543TIP3    H210587   0.643   5.677   3.339
 3544TIP3   OH210588   5.047   1.561   4.444
 3544TIP3    H110589   5.114   1.500   4.473
 3544TIP3    H210590   5.042   1.627   4.514
 3545TIP3   OH210591   2.194   4.298   5.124
 3545TIP3    H110592   2.148   4.240   5.184
 3545TIP3    H210593   2.286   4.286   5.145
 3546TIP3   OH210594   6.372   1.985   2.065
 3546TIP3    H110595   6.399   1.893   2.072
 3546TIP3    H210596   6.282   1.986   2.097
 3547TIP3   OH210597   6.344   6.681   1.935
 3547TIP3    H110598   6.405   6.739   1.980
 3547TIP3    H210599   6.263   6.688   1.986
 3548TIP3   OH210600   1.208   4.500   2.384
 3548TIP3    H110601   1.139   4.460   2.438
 3548TIP3    H210602   1.162   4.529   2.305
 3549TIP3   OH210603   7.402   4.198   4.509
 3549TIP3    H110604   7.449   4.196   4.592
 3549TIP3    H210605   7.373   4.289   4.500
 3550TIP3   OH210606   1.305   1.814   0.575
 3550TIP3    H110607   1.226   1.761   0.585
 3550TIP3    H210608   1.347   1.779   0.496
 3551TIP3   OH210609   2.519   7.165   2.512
 3551TIP3    H110610   2.564   7.208   2.584
 3551TIP3    H210611   2.429   7.152   2.543
 3552TIP3   OH210612   6.852   2.840   4.784
 3552TIP3    H110613   6.874   2.849   4.877
 3552TIP3    H210614   6.757   2.845   4.781
 3553TIP3   OH210615   6.513   1.752   6.754
 3553TIP3    H110616   6.482   1.781   6.668
 3553TIP3    H210617   6.453   1.793   6.816
 3554TIP3   OH210618   5.192   4.387   3.822
 3554TIP3    H110619   5.223   4.418   3.737
 3554TIP3    H210620   5.231   4.447   3.886
 3555TIP3   OH210621   2.512   0.513   2.705
 3555TIP3    H110622   2.560   0.578   2.756
 3555TIP3    H210623   2.559   0.431   2.719
 3556TIP3   OH210624   0.141   6.931   4.534
 3556TIP3    H110625   0.081   6.992   4.491
 3556TIP3    H210626   0.149   6.963   4.623
 3557TIP3   OH210627   0.851   6.978   2.232
 3557TIP3    H110628   0.915   6.937   2.290
 3557TIP3    H210629   0.768   6.938   2.255
 3558TIP3   OH210630   8.090   4.960   6.307
 3558TIP3    H110631   8.155   5.010   6.259
 3558TIP3    H210632   8.032   4.924   6.239
 3559TIP3   OH210633   6.272   4.789   0.729
 3559TIP3    H110634   6.310   4.768   0.814
 3559TIP3    H210635   6.262   4.704   0.685
 3560TIP3   OH210636   1.407   1.396   0.005
 3560TIP3    H110637   1.322   1.401  -0.039
 3560TIP3    H210638   1.390   1.352   0.088
 3561TIP3   OH210639   7.084   0.558   2.963
 3561TIP3    H110640   7.172   0.593   2.947
 3561TIP3    H210641   7.082   0.475   2.914
 3562TIP3   OH210642   5.219   3.002   6.197
 3562TIP3    H110643   5.259   3.019   6.282
 3562TIP3    H210644   5.276   3.048   6.135
 3563TIP3   OH210645   5.393   4.963   4.663
 3563TIP3    H110646   5.467   4.951   4.724
 3563TIP3    H210647   5.412   4.904   4.591
 3564TIP3   OH210648   6.882   7.059   1.141
 3564TIP3    H110649   6.810   7.049   1.079
 3564TIP3    H210650   6.845   7.031   1.225
 3565TIP3   OH210651   2.481   6.616   0.505
 3565TIP3    H110652   2.517   6.641   0.590
 3565TIP3    H210653   2.406   6.561   0.527
 3566TIP3   OH210654   5.361   7.763   6.500
 3566TIP3    H110655   5.429   7.761   6.432
 3566TIP3    H210656   5.279   7.755   6.452
 3567TIP3   OH210657   6.333   2.419   0.824
 3567TIP3    H110658   6.376   2.395   0.742
 3567TIP3    H210659   6.349   2.345   0.882
 3568TIP3   OH210660   5.384   4.294   6.711
 3568TIP3    H110661   5.354   4.210   6.747
 3568TIP3    H210662   5.404   4.347   6.788
 3569TIP3   OH210663   0.083   5.313   5.352
 3569TIP3    H110664   0.119   5.380   5.411
 3569TIP3    H210665   0.063   5.239   5.409
 3570TIP3   OH210666   5.429   3.381   0.866
 3570TIP3    H110667   5.374   3.395   0.943
 3570TIP3    H210668   5.494   3.451   0.869
 3571TIP3   OH210669   5.029   0.529   1.984
 3571TIP3    H110670   5.013   0.528   2.079
 3571TIP3    H210671   5.050   0.438   1.963
 3572TIP3   OH210672   1.516   6.337   3.114
 3572TIP3    H110673   1.470   6.313   3.034
 3572TIP3    H210674   1.582   6.269   3.125
 3573TIP3   OH210675   7.539   3.077   5.065
 3573TIP3    H110676   7.513   3.015   4.996
 3573TIP3    H210677   7.469   3.143   5.065
 3574TIP3   OH210678   0.283   2.162   2.833
 3574TIP3    H110679   0.259   2.070   2.831
 3574TIP3    H210680   0.206   2.208   2.800
 3575TIP3   OH210681   6.450   1.420   2.564
 3575TIP3    H110682   6.494   1.413   2.480
 3575TIP3    H210683   6.378   1.357   2.559
 3576TIP3   OH210684   2.107   0.051   1.164
 3576TIP3    H110685   2.052   0.112   1.213
 3576TIP3    H210686   2.053  -0.028   1.155
 3577TIP3   OH210687   0.495   2.750   4.091
 3577TIP3    H110688   0.466   2.786   4.175
 3577TIP3    H210689   0.569   2.805   4.065
 3578TIP3   OH210690   6.987   0.694   0.932
 3578TIP3    H110691   7.039   0.635   0.878
 3578TIP3    H210692   6.898   0.659   0.928
 3579TIP3   OH210693   1.434   1.275   4.504
 3579TIP3    H110694   1.418   1.183   4.482
 3579TIP3    H210695   1.522   1.292   4.469
 3580TIP3   OH210696   5.432   6.596   4.335
 3580TIP3    H110697   5.443   6.574   4.243
 3580TIP3    H210698   5.348   6.556   4.360
 3581TIP3   OH210699   4.711   2.290   2.858
 3581TIP3    H110700   4.806   2.283   2.847
 3581TIP3    H210701   4.696   2.381   2.884
 3582TIP3   OH210702   7.555   5.991   6.672
 3582TIP3    H110703   7.615   6.029   6.736
 3582TIP3    H210704   7.606   5.920   6.631
 3583TIP3   OH210705   4.594   3.702   2.801
 3583TIP3    H110706   4.551   3.711   2.715
 3583TIP3    H210707   4.674   3.654   2.783
 3584TIP3   OH210708   2.398   7.284   4.624
 3584TIP3    H110709   2.357   7.234   4.553
 3584TIP3    H210710   2.489   7.253   4.626
 3585TIP3   OH210711   7.429   0.229   3.169
 3585TIP3    H110712   7.369   0.207   3.241
 3585TIP3    H210713   7.499   0.279   3.210
 3586TIP3   OH210714   0.462   1.665   2.030
 3586TIP3    H110715   0.465   1.680   1.935
 3586TIP3    H210716   0.433   1.749   2.066
 3587TIP3   OH210717   4.072   6.370   1.356
 3587TIP3    H110718   3.980   6.350   1.335
 3587TIP3    H210719   4.103   6.292   1.401
 3588TIP3   OH210720   3.192   6.708   1.245
 3588TIP3    H110721   3.124   6.737   1.185
 3588TIP3    H210722   3.219   6.787   1.291
 3589TIP3   OH210723   6.852   3.651   2.339
 3589TIP3    H110724   6.900   3.711   2.282
 3589TIP3    H210725   6.896   3.658   2.424
 3590TIP3   OH210726   6.742   4.001   3.585
 3590TIP3    H110727   6.698   3.927   3.626
 3590TIP3    H210728   6.710   4.078   3.633
 3591TIP3   OH210729   0.116   3.589   3.067
 3591TIP3    H110730   0.169   3.514   3.094
 3591TIP3    H210731   0.057   3.605   3.141
 3592TIP3   OH210732   3.474   6.718   2.016
 3592TIP3    H110733   3.440   6.691   2.102
 3592TIP3    H210734   3.438   6.655   1.955
 3593TIP3   OH210735   4.026   2.333   4.320
 3593TIP3    H110736   4.034   2.412   4.266
 3593TIP3    H210737   4.031   2.260   4.258
 3594TIP3   OH210738   4.739   3.778  -0.015
 3594TIP3    H110739   4.650   3.756   0.013
 3594TIP3    H210740   4.757   3.863   0.026
 3595TIP3   OH210741   1.419   3.633   1.562
 3595TIP3    H110742   1.429   3.544   1.528
 3595TIP3    H210743   1.330   3.637   1.596
 3596TIP3   OH210744   0.975   7.174   6.140
 3596TIP3    H110745   0.926   7.175   6.058
 3596TIP3    H210746   1.067   7.184   6.113
 3597TIP3   OH210747   6.603   3.715   6.181
 3597TIP3    H110748   6.650   3.785   6.226
 3597TIP3    H210749   6.671   3.652   6.156
 3598TIP3   OH210750   0.707   0.767   5.958
 3598TIP3    H110751   0.754   0.807   6.031
 3598TIP3    H210752   0.750   0.683   5.945
 3599TIP3   OH210753   4.217   3.524   5.085
 3599TIP3    H110754   4.227   3.429   5.084
 3599TIP3    H210755   4.175   3.543   5.169
 3600TIP3   OH210756   1.699   3.188   2.859
 3600TIP3    H110757   1.714   3.273   2.817
 3600TIP3    H210758   1.782   3.167   2.901
 3601TIP3   OH210759   0.058   7.100   4.969
 3601TIP3    H110760  -0.031   7.074   4.945
 3601TIP3    H210761   0.113   7.031   4.933
 3602TIP3   OH210762   4.557   3.644   4.439
 3602TIP3    H110763   4.596   3.645   4.527
 3602TIP3    H210764   4.489   3.711   4.442
 3603TIP3   OH210765   6.542   5.580   4.539
 3603TIP3    H110766   6.577   5.491   4.543
 3603TIP3    H210767   6.458   5.570   4.493
 3604TIP3   OH210768   4.482   4.620   5.843
 3604TIP3    H110769   4.548   4.595   5.908
 3604TIP3    H210770   4.429   4.541   5.830
 3605TIP3   OH210771   2.457   6.139   1.314
 3605TIP3    H110772   2.404   6.105   1.387
 3605TIP3    H210773   2.394   6.157   1.245
 3606TIP3   OH210774   4.469   1.243   4.279
 3606TIP3    H110775   4.500   1.154   4.263
 3606TIP3    H210776   4.550   1.294   4.291
 3607TIP3   OH210777   2.525   5.559   2.426
 3607TIP3    H110778   2.511   5.469   2.397
 3607TIP3    H210779   2.459   5.610   2.379
 3608TIP3   OH210780   5.093   1.897   2.388
 3608TIP3    H110781   5.080   1.935   2.301
 3608TIP3    H210782   5.141   1.816   2.371
 3609TIP3   OH210783   6.483   5.062   0.281
 3609TIP3    H110784   6.430   5.113   0.342
 3609TIP3    H210785   6.546   5.016   0.337
 3610TIP3   OH210786   4.376   1.517   0.955
 3610TIP3    H110787   4.366   1.598   1.004
 3610TIP3    H210788   4.347   1.538   0.866
 3611TIP3   OH210789   7.296   0.361   5.581
 3611TIP3    H110790   7.231   0.386   5.647
 3611TIP3    H210791   7.349   0.440   5.568
 3612TIP3   OH210792   3.976   7.357   5.714
 3612TIP3    H110793   3.884   7.362   5.737
 3612TIP3    H210794   3.985   7.277   5.663
 3613TIP3   OH210795   1.637   7.421   1.050
 3613TIP3    H110796   1.613   7.395   1.139
 3613TIP3    H210797   1.593   7.357   0.993
 3614TIP3   OH210798   7.135   0.560   2.519
 3614TIP3    H110799   7.123   0.630   2.455
 3614TIP3    H210800   7.070   0.578   2.587
 3615TIP3   OH210801   8.339   1.034   5.222
 3615TIP3    H110802   8.250   1.055   5.251
 3615TIP3    H210803   8.329   1.002   5.132
 3616TIP3   OH210804   3.010   4.674   1.558
 3616TIP3    H110805   3.099   4.641   1.569
 3616TIP3    H210806   2.969   4.611   1.498
 3617TIP3   OH210807   6.583   0.194   0.207
 3617TIP3    H110808   6.488   0.207   0.213
 3617TIP3    H210809   6.618   0.248   0.278
 3618TIP3   OH210810   5.414   1.008   3.435
 3618TIP3    H110811   5.451   0.939   3.490
 3618TIP3    H210812   5.345   1.047   3.488
 3619TIP3   OH210813   7.803   4.369   5.847
 3619TIP3    H110814   7.868   4.300   5.845
 3619TIP3    H210815   7.845   4.444   5.804
 3620TIP3   OH210816   7.366   0.633   6.477
 3620TIP3    H110817   7.419   0.642   6.556
 3620TIP3    H210818   7.322   0.717   6.469
 3621TIP3   OH210819   6.857   6.398   3.596
 3621TIP3    H110820   6.824   6.450   3.522
 3621TIP3    H210821   6.902   6.324   3.556
 3622TIP3   OH210822   0.241   5.734   3.752
 3622TIP3    H110823   0.247   5.789   3.673
 3622TIP3    H210824   0.197   5.791   3.816
 3623TIP3   OH210825   6.635   2.962   3.600
 3623TIP3    H110826   6.682   2.879   3.593
 3623TIP3    H210827   6.694   3.026   3.561
 3624TIP3   OH210828   6.687   0.070   5.994
 3624TIP3    H110829   6.662   0.152   5.953
 3624TIP3    H210830   6.650   0.074   6.082
 3625TIP3   OH210831   0.858   6.207   2.946
 3625TIP3    H110832   0.940   6.253   2.964
 3625TIP3    H210833   0.882   6.115   2.940
 3626TIP3   OH210834   5.819   0.781   6.562
 3626TIP3    H110835   5.761   0.824   6.498
 3626TIP3    H210836   5.848   0.701   6.517
 3627TIP3   OH210837   4.159   4.546   1.738
 3627TIP3    H110838   4.074   4.583   1.761
 3627TIP3    H210839   4.148   4.451   1.752
 3628TIP3   OH210840   7.773   5.957   0.735
 3628TIP3    H110841   7.717   5.880   0.721
 3628TIP3    H210842   7.834   5.955   0.661
 3629TIP3   OH210843   2.028   5.036   3.896
 3629TIP3    H110844   2.111   4.989   3.888
 3629TIP3    H210845   2.046   5.123   3.861
 3630TIP3   OH210846   4.842   3.309   3.871
 3630TIP3    H110847   4.834   3.403   3.856
 3630TIP3    H210848   4.777   3.290   3.939
 3631TIP3   OH210849   0.743   2.395   5.268
 3631TIP3    H110850   0.663   2.445   5.253
 3631TIP3    H210851   0.722   2.306   5.240
 3632TIP3   OH210852   1.694   6.716   6.255
 3632TIP3    H110853   1.722   6.731   6.165
 3632TIP3    H210854   1.731   6.631   6.279
 3633TIP3   OH210855   4.353   6.814   1.759
 3633TIP3    H110856   4.319   6.838   1.673
 3633TIP3    H210857   4.427   6.874   1.773
 3634TIP3   OH210858   7.784   2.330   5.554
 3634TIP3    H110859   7.829   2.314   5.471
 3634TIP3    H210860   7.710   2.387   5.531
 3635TIP3   OH210861   6.741   5.262   0.779
 3635TIP3    H110862   6.671   5.204   0.749
 3635TIP3    H210863   6.819   5.231   0.733
 3636TIP3   OH210864   7.875   6.610   5.530
 3636TIP3    H110865   7.898   6.679   5.593
 3636TIP3    H210866   7.959   6.579   5.497
 3637TIP3   OH210867   5.482   3.954   1.920
 3637TIP3    H110868   5.457   3.911   2.002
 3637TIP3    H210869   5.562   3.909   1.893
 3638TIP3   OH210870   8.231   5.382   6.257
 3638TIP3    H110871   8.145   5.404   6.221
 3638TIP3    H210872   8.214   5.363   6.350
 3639TIP3   OH210873   2.884   2.029   3.029
 3639TIP3    H110874   2.865   1.944   2.988
 3639TIP3    H210875   2.970   2.017   3.069
 3640TIP3   OH210876   7.262   6.279   1.331
 3640TIP3    H110877   7.290   6.314   1.415
 3640TIP3    H210878   7.268   6.184   1.342
 3641TIP3   OH210879   5.743   3.478   6.664
 3641TIP3    H110880   5.809   3.414   6.638
 3641TIP3    H210881   5.779   3.562   6.637
 3642TIP3   OH210882   7.761   4.239   1.168
 3642TIP3    H110883   7.788   4.281   1.086
 3642TIP3    H210884   7.843   4.221   1.214
 3643TIP3   OH210885   7.989   2.993   6.484
 3643TIP3    H110886   7.946   3.076   6.460
 3643TIP3    H210887   8.054   3.018   6.549
 3644TIP3   OH210888   6.085   5.843   0.173
 3644TIP3    H110889   6.104   5.904   0.244
 3644TIP3    H210890   6.032   5.775   0.213
 3645TIP3   OH210891   5.177   5.635   5.666
 3645TIP3    H110892   5.206   5.640   5.757
 3645TIP3    H210893   5.245   5.585   5.622
 3646TIP3   OH210894   6.346   6.012   5.545
 3646TIP3    H110895   6.432   5.969   5.549
 3646TIP3    H210896   6.336   6.053   5.631
 3647TIP3   OH210897   1.999   4.338   6.429
 3647TIP3    H110898   2.020   4.358   6.338
 3647TIP3    H210899   2.048   4.258   6.449
 3648TIP3   OH210900   1.756   5.914   3.302
 3648TIP3    H110901   1.672   5.959   3.309
 3648TIP3    H210902   1.793   5.916   3.390
 3649TIP3   OH210903   3.753   0.937   1.998
 3649TIP3    H110904   3.816   0.946   2.070
 3649TIP3    H210905   3.719   0.848   2.006
 3650TIP3   OH210906   0.163   3.605   2.277
 3650TIP3    H110907   0.231   3.631   2.215
 3650TIP3    H210908   0.138   3.686   2.321
 3651TIP3   OH210909   7.879   3.910   1.523
 3651TIP3    H110910   7.959   3.962   1.532
 3651TIP3    H210911   7.903   3.823   1.556
 3652TIP3   OH210912   2.016   1.706   1.615
 3652TIP3    H110913   1.922   1.692   1.627
 3652TIP3    H210914   2.046   1.631   1.564
 3653TIP3   OH210915   0.353   5.504   0.522
 3653TIP3    H110916   0.266   5.539   0.505
 3653TIP3    H210917   0.341   5.409   0.522
 3654TIP3   OH210918   2.546   4.852   2.726
 3654TIP3    H110919   2.487   4.860   2.651
 3654TIP3    H210920   2.587   4.766   2.716
 3655TIP3   OH210921   2.001   2.430   6.667
 3655TIP3    H110922   2.062   2.502   6.682
 3655TIP3    H210923   1.918   2.461   6.703
 3656TIP3   OH210924   7.703   3.790   3.816
 3656TIP3    H110925   7.700   3.744   3.900
 3656TIP3    H210926   7.782   3.759   3.774
 3657TIP3   OH210927   7.004   4.833   0.562
 3657TIP3    H110928   7.079   4.887   0.535
 3657TIP3    H210929   7.035   4.789   0.642
 3658TIP3   OH210930   7.038   5.790   5.264
 3658TIP3    H110931   7.028   5.874   5.220
 3658TIP3    H210932   7.085   5.736   5.200
 3659TIP3   OH210933   6.099   2.748   5.667
 3659TIP3    H110934   6.086   2.662   5.708
 3659TIP3    H210935   6.057   2.741   5.582
 3660TIP3   OH210936   2.138   1.491   0.826
 3660TIP3    H110937   2.125   1.578   0.863
 3660TIP3    H210938   2.050   1.456   0.815
 3661TIP3   OH210939   7.053   0.985   4.166
 3661TIP3    H110940   7.074   1.014   4.255
 3661TIP3    H210941   7.034   0.892   4.174
 3662TIP3   OH210942   3.174   6.122   3.139
 3662TIP3    H110943   3.213   6.061   3.202
 3662TIP3    H210944   3.156   6.070   3.061
 3663TIP3   OH210945   5.333   2.708   0.569
 3663TIP3    H110946   5.271   2.703   0.642
 3663TIP3    H210947   5.386   2.628   0.577
 3664TIP3   OH210948   5.512   7.283   5.234
 3664TIP3    H110949   5.524   7.233   5.314
 3664TIP3    H210950   5.420   7.308   5.234
 3665TIP3   OH210951   6.797   5.134   5.627
 3665TIP3    H110952   6.871   5.097   5.579
 3665TIP3    H210953   6.828   5.140   5.718
 3666TIP3   OH210954   4.380   7.130   3.006
 3666TIP3    H110955   4.386   7.164   2.917
 3666TIP3    H210956   4.359   7.206   3.060
 3667TIP3   OH210957   3.801   7.344   2.005
 3667TIP3    H110958   3.775   7.338   2.097
 3667TIP3    H210959   3.722   7.324   1.956
 3668TIP3   OH210960   1.851   1.770   4.658
 3668TIP3    H110961   1.850   1.741   4.749
 3668TIP3    H210962   1.925   1.723   4.619
 3669TIP3   OH210963   8.140   7.141   2.073
 3669TIP3    H110964   8.055   7.171   2.106
 3669TIP3    H210965   8.140   7.046   2.089
 3670TIP3   OH210966   5.410   6.896   5.523
 3670TIP3    H110967   5.373   6.861   5.441
 3670TIP3    H210968   5.442   6.983   5.499
 3671TIP3   OH210969   4.034   3.828   3.818
 3671TIP3    H110970   4.127   3.826   3.798
 3671TIP3    H210971   4.003   3.912   3.783
 3672TIP3   OH210972   3.259   7.577   6.040
 3672TIP3    H110973   3.182   7.614   5.997
 3672TIP3    H210974   3.326   7.646   6.033
 3673TIP3   OH210975   2.041   2.060   2.158
 3673TIP3    H110976   2.120   2.087   2.111
 3673TIP3    H210977   2.074   2.009   2.233
 3674TIP3   OH210978   4.798   1.255   4.877
 3674TIP3    H110979   4.729   1.190   4.866
 3674TIP3    H210980   4.816   1.286   4.788
 3675TIP3   OH210981   4.051   5.958   5.958
 3675TIP3    H110982   4.117   6.021   5.987
 3675TIP3    H210983   4.096   5.873   5.960
 3676TIP3   OH210984   4.277   7.711   3.822
 3676TIP3    H110985   4.322   7.663   3.753
 3676TIP3    H210986   4.319   7.798   3.821
 3677TIP3   OH210987   6.237   5.570   3.697
 3677TIP3    H110988   6.148   5.591   3.668
 3677TIP3    H210989   6.255   5.484   3.659
 3678TIP3   OH210990   2.427   6.689   1.568
 3678TIP3    H110991   2.462   6.616   1.620
 3678TIP3    H210992   2.468   6.678   1.482
 3679TIP3   OH210993   2.502   0.630   1.160
 3679TIP3    H110994   2.510   0.697   1.228
 3679TIP3    H210995   2.407   0.616   1.151
 3680TIP3   OH210996   8.087   3.356   4.580
 3680TIP3    H110997   8.122   3.284   4.634
 3680TIP3    H210998   8.160   3.381   4.524
 3681TIP3   OH210999   7.165   4.858   3.188
 3681TIP3    H111000   7.242   4.815   3.150
 3681TIP3    H211001   7.191   4.950   3.197
 3682TIP3   OH211002   1.107   3.585   4.616
 3682TIP3    H111003   1.071   3.625   4.694
 3682TIP3    H211004   1.202   3.600   4.622
 3683TIP3   OH211005   2.587   0.489   3.045
 3683TIP3    H111006   2.625   0.408   3.011
 3683TIP3    H211007   2.619   0.558   2.986
 3684TIP3   OH211008   6.103   7.071   2.883
 3684TIP3    H111009   6.086   7.164   2.895
 3684TIP3    H211010   6.016   7.031   2.881
 3685TIP3   OH211011   3.457   7.043   4.726
 3685TIP3    H111012   3.403   6.965   4.713
 3685TIP3    H211013   3.547   7.010   4.729
 3686TIP3   OH211014   1.984   0.246   5.173
 3686TIP3    H111015   2.059   0.281   5.124
 3686TIP3    H211016   1.992   0.286   5.260
 3687TIP3   OH211017   1.809   4.220   5.362
 3687TIP3    H111018   1.743   4.274   5.319
 3687TIP3    H211019   1.854   4.280   5.421
 3688TIP3   OH211020   6.776   0.527   3.335
 3688TIP3    H111021   6.800   0.557   3.248
 3688TIP3    H211022   6.737   0.604   3.377
 3689TIP3   OH211023   5.867   5.560   5.149
 3689TIP3    H111024   5.893   5.633   5.092
 3689TIP3    H211025   5.890   5.589   5.237
 3690TIP3   OH211026   3.119   1.886   1.502
 3690TIP3    H111027   3.148   1.809   1.453
 3690TIP3    H211028   3.162   1.960   1.459
 3691TIP3   OH211029   3.690   2.148   2.618
 3691TIP3    H111030   3.752   2.164   2.547
 3691TIP3    H211031   3.711   2.059   2.648
 3692TIP3   OH211032   5.919   5.339   4.988
 3692TIP3    H111033   5.903   5.428   5.018
 3692TIP3    H211034   5.973   5.300   5.057
 3693TIP3   OH211035  -0.002   0.667   3.721
 3693TIP3    H111036  -0.007   0.733   3.651
 3693TIP3    H211037   0.069   0.697   3.778
 3694TIP3   OH211038   6.044   3.632   5.515
 3694TIP3    H111039   6.107   3.703   5.527
 3694TIP3    H211040   5.968   3.673   5.473
 3695TIP3   OH211041   6.162   3.835   3.832
 3695TIP3    H111042   6.084   3.872   3.872
 3695TIP3    H211043   6.142   3.742   3.821
 3696TIP3   OH211044   7.478   1.492   5.285
 3696TIP3    H111045   7.465   1.442   5.365
 3696TIP3    H211046   7.558   1.542   5.300
 3697TIP3   OH211047   4.841   1.090   2.720
 3697TIP3    H111048   4.901   1.067   2.649
 3697TIP3    H211049   4.835   1.009   2.772
 3698TIP3   OH211050   0.323   6.740   5.140
 3698TIP3    H111051   0.259   6.749   5.069
 3698TIP3    H211052   0.317   6.823   5.188
 3699TIP3   OH211053   2.607   2.930   5.412
 3699TIP3    H111054   2.577   2.914   5.501
 3699TIP3    H211055   2.656   2.851   5.388
 3700TIP3   OH211056   2.048   7.684   1.101
 3700TIP3    H111057   2.123   7.634   1.067
 3700TIP3    H211058   2.022   7.740   1.028
 3701TIP3   OH211059   7.867   3.010   5.325
 3701TIP3    H111060   7.853   2.934   5.268
 3701TIP3    H211061   7.779   3.042   5.344
 3702TIP3   OH211062   6.443   2.202   4.760
 3702TIP3    H111063   6.512   2.268   4.751
 3702TIP3    H211064   6.431   2.167   4.672
 3703TIP3   OH211065   1.607   6.581   3.254
 3703TIP3    H111066   1.619   6.520   3.181
 3703TIP3    H211067   1.682   6.564   3.311
 3704TIP3   OH211068   5.884   0.546   6.417
 3704TIP3    H111069   5.969   0.515   6.450
 3704TIP3    H211070   5.898   0.558   6.323
 3705TIP3   OH211071   5.395   3.957   2.759
 3705TIP3    H111072   5.361   4.023   2.699
 3705TIP3    H211073   5.490   3.966   2.754
 3706TIP3   OH211074   0.000   5.611   0.095
 3706TIP3    H111075   0.050   5.652   0.025
 3706TIP3    H211076   0.042   5.526   0.108
 3707TIP3   OH211077   6.409   2.431   6.389
 3707TIP3    H111078   6.476   2.421   6.456
 3707TIP3    H211079   6.456   2.424   6.306
 3708TIP3   OH211080   8.209   1.567   2.051
 3708TIP3    H111081   8.195   1.610   1.966
 3708TIP3    H211082   8.295   1.527   2.044
 3709TIP3   OH211083   3.254   5.288   5.785
 3709TIP3    H111084   3.346   5.261   5.786
 3709TIP3    H211085   3.251   5.363   5.844
 3710TIP3   OH211086   3.733   5.491   1.514
 3710TIP3    H111087   3.759   5.583   1.522
 3710TIP3    H211088   3.639   5.493   1.501
 3711TIP3   OH211089   3.992   0.215   0.981
 3711TIP3    H111090   4.021   0.227   1.071
 3711TIP3    H211091   3.978   0.120   0.973
 3712TIP3   OH211092   6.935   6.793   5.069
 3712TIP3    H111093   6.897   6.865   5.018
 3712TIP3    H211094   7.028   6.796   5.048
 3713TIP3   OH211095   5.087   1.061   0.286
 3713TIP3    H111096   5.019   1.036   0.349
 3713TIP3    H211097   5.046   1.128   0.232
 3714TIP3   OH211098   1.912   5.774   1.541
 3714TIP3    H111099   1.942   5.838   1.476
 3714TIP3    H211100   1.993   5.736   1.576
 3715TIP3   OH211101   1.094   3.567   0.080
 3715TIP3    H111102   1.022   3.603   0.029
 3715TIP3    H211103   1.057   3.555   0.168
 3716TIP3   OH211104   7.987   7.311   4.853
 3716TIP3    H111105   7.901   7.321   4.811
 3716TIP3    H211106   8.041   7.377   4.809
 3717TIP3   OH211107   3.740   1.289   6.736
 3717TIP3    H111108   3.788   1.340   6.801
 3717TIP3    H211109   3.656   1.333   6.727
 3718TIP3   OH211110   7.849   2.032   6.746
 3718TIP3    H111111   7.782   2.009   6.811
 3718TIP3    H211112   7.871   1.949   6.704
 3719TIP3   OH211113   3.867   3.117   1.563
 3719TIP3    H111114   3.801   3.060   1.603
 3719TIP3    H211115   3.930   3.133   1.633
 3720TIP3   OH211116   0.845   4.748   3.701
 3720TIP3    H111117   0.857   4.756   3.796
 3720TIP3    H211118   0.934   4.738   3.667
 3721TIP3   OH211119   0.426   7.530   3.548
 3721TIP3    H111120   0.343   7.484   3.532
 3721TIP3    H211121   0.493   7.472   3.513
 3722TIP3   OH211122   3.764   5.042   1.641
 3722TIP3    H111123   3.837   5.001   1.687
 3722TIP3    H211124   3.790   5.134   1.633
 3723TIP3   OH211125   3.502   1.077   1.121
 3723TIP3    H111126   3.590   1.056   1.089
 3723TIP3    H211127   3.494   1.029   1.203
 3724TIP3   OH211128   6.918   7.036   3.297
 3724TIP3    H111129   7.012   7.035   3.279
 3724TIP3    H211130   6.910   7.087   3.377
 3725TIP3   OH211131   2.633   2.075   5.358
 3725TIP3    H111132   2.728   2.075   5.368
 3725TIP3    H211133   2.606   1.988   5.386
 3726TIP3   OH211134   8.108   0.285   3.180
 3726TIP3    H111135   8.029   0.312   3.228
 3726TIP3    H211136   8.074   0.236   3.105
 3727TIP3   OH211137   6.529   0.742   1.746
 3727TIP3    H111138   6.564   0.711   1.830
 3727TIP3    H211139   6.504   0.662   1.700
 3728TIP3   OH211140   5.386   3.303   0.381
 3728TIP3    H111141   5.444   3.270   0.449
 3728TIP3    H211142   5.299   3.275   0.408
 3729TIP3   OH211143   7.504   2.504   2.386
 3729TIP3    H111144   7.486   2.569   2.318
 3729TIP3    H211145   7.494   2.420   2.342
 3730TIP3   OH211146   6.451   2.423   2.348
 3730TIP3    H111147   6.461   2.332   2.376
 3730TIP3    H211148   6.357   2.436   2.345
 3731TIP3   OH211149   5.067   7.239   0.592
 3731TIP3    H111150   5.069   7.245   0.497
 3731TIP3    H211151   4.979   7.268   0.616
 3732TIP3   OH211152   0.512   5.291   4.575
 3732TIP3    H111153   0.481   5.366   4.626
 3732TIP3    H211154   0.451   5.284   4.502
 3733TIP3   OH211155   4.350   2.165   4.843
 3733TIP3    H111156   4.386   2.250   4.820
 3733TIP3    H211157   4.403   2.135   4.916
 3734TIP3   OH211158   6.494   6.798   2.158
 3734TIP3    H111159   6.489   6.847   2.240
 3734TIP3    H211160   6.506   6.865   2.091
 3735TIP3   OH211161   2.532   2.716   4.265
 3735TIP3    H111162   2.592   2.706   4.339
 3735TIP3    H211163   2.560   2.796   4.222
 3736TIP3   OH211164   2.852   1.800   6.353
 3736TIP3    H111165   2.803   1.788   6.272
 3736TIP3    H211166   2.934   1.753   6.340
 3737TIP3   OH211167   6.118   6.314   0.386
 3737TIP3    H111168   6.028   6.338   0.362
 3737TIP3    H211169   6.124   6.221   0.366
 3738TIP3   OH211170   7.728   2.495   4.635
 3738TIP3    H111171   7.812   2.481   4.679
 3738TIP3    H211172   7.734   2.443   4.554
 3739TIP3   OH211173   7.331   6.589   6.604
 3739TIP3    H111174   7.360   6.580   6.514
 3739TIP3    H211175   7.289   6.675   6.607
 3740TIP3   OH211176   0.022   0.517   3.176
 3740TIP3    H111177   0.094   0.577   3.157
 3740TIP3    H211178   0.000   0.479   3.091
 3741TIP3   OH211179   1.182   3.489   2.538
 3741TIP3    H111180   1.116   3.426   2.510
 3741TIP3    H211181   1.157   3.511   2.628
 3742TIP3   OH211182   8.306   6.429   3.955
 3742TIP3    H111183   8.222   6.384   3.966
 3742TIP3    H211184   8.315   6.483   4.035
 3743TIP3   OH211185   7.791   3.591   0.712
 3743TIP3    H111186   7.860   3.589   0.779
 3743TIP3    H211187   7.711   3.571   0.760
 3744TIP3   OH211188   0.134   4.118   3.094
 3744TIP3    H111189   0.071   4.048   3.109
 3744TIP3    H211190   0.210   4.095   3.146
 3745TIP3   OH211191   6.516   3.666   3.077
 3745TIP3    H111192   6.564   3.748   3.070
 3745TIP3    H211193   6.504   3.636   2.987
 3746TIP3   OH211194   4.440   0.078   2.437
 3746TIP3    H111195   4.432   0.029   2.355
 3746TIP3    H211196   4.408   0.165   2.416
 3747TIP3   OH211197   0.498   5.969   0.278
 3747TIP3    H111198   0.502   6.008   0.365
 3747TIP3    H211199   0.579   5.996   0.236
 3748TIP3   OH211200   2.454   1.356   1.297
 3748TIP3    H111201   2.469   1.361   1.392
 3748TIP3    H211202   2.387   1.423   1.280
 3749TIP3   OH211203   3.963   4.671   3.520
 3749TIP3    H111204   4.033   4.648   3.459
 3749TIP3    H211205   3.987   4.759   3.551
 3750TIP3   OH211206   4.148   0.541   3.181
 3750TIP3    H111207   4.118   0.510   3.267
 3750TIP3    H211208   4.232   0.583   3.198
 3751TIP3   OH211209   0.445   7.171   1.562
 3751TIP3    H111210   0.408   7.154   1.649
 3751TIP3    H211211   0.538   7.185   1.578
 3752TIP3   OH211212   5.193   0.709   5.639
 3752TIP3    H111213   5.159   0.693   5.551
 3752TIP3    H211214   5.274   0.657   5.642
 3753TIP3   OH211215   7.975   5.799   0.075
 3753TIP3    H111216   7.927   5.731   0.027
 3753TIP3    H211217   8.056   5.810   0.026
 3754TIP3   OH211218   4.064   2.091   5.050
 3754TIP3    H111219   4.112   2.102   5.133
 3754TIP3    H211220   4.064   2.178   5.010
 3755TIP3   OH211221   0.112   0.566   6.564
 3755TIP3    H111222   0.057   0.601   6.634
 3755TIP3    H211223   0.142   0.643   6.516
 3756TIP3   OH211224   4.168   4.951   3.987
 3756TIP3    H111225   4.207   4.892   4.052
 3756TIP3    H211226   4.152   4.896   3.911
 3757TIP3   OH211227   4.186   6.883   3.201
 3757TIP3    H111228   4.190   6.955   3.264
 3757TIP3    H211229   4.145   6.922   3.124
 3758TIP3   OH211230   3.175   2.440   1.606
 3758TIP3    H111231   3.082   2.445   1.584
 3758TIP3    H211232   3.199   2.349   1.590
 3759TIP3   OH211233   7.846   7.736   4.216
 3759TIP3    H111234   7.829   7.799   4.287
 3759TIP3    H211235   7.939   7.714   4.226
 3760TIP3   OH211236   8.244   6.565   6.408
 3760TIP3    H111237   8.208   6.646   6.444
 3760TIP3    H211238   8.189   6.495   6.444
 3761TIP3   OH211239   2.165   6.203   2.488
 3761TIP3    H111240   2.168   6.237   2.399
 3761TIP3    H211241   2.113   6.123   2.481
 3762TIP3   OH211242   0.453   2.841   5.273
 3762TIP3    H111243   0.452   2.890   5.355
 3762TIP3    H211244   0.421   2.903   5.207
 3763TIP3   OH211245   4.962   6.065   5.020
 3763TIP3    H111246   5.019   6.079   5.095
 3763TIP3    H211247   4.880   6.032   5.058
 3764TIP3   OH211248   6.488   3.267   2.838
 3764TIP3    H111249   6.583   3.250   2.843
 3764TIP3    H211250   6.453   3.223   2.916
 3765TIP3   OH211251   3.761   3.807   3.265
 3765TIP3    H111252   3.688   3.761   3.224
 3765TIP3    H211253   3.830   3.742   3.271
 3766TIP3   OH211254   1.732   1.804   1.222
 3766TIP3    H111255   1.812   1.753   1.210
 3766TIP3    H211256   1.737   1.835   1.313
 3767TIP3   OH211257   4.324   4.589   3.468
 3767TIP3    H111258   4.411   4.628   3.460
 3767TIP3    H211259   4.340   4.501   3.501
 3768TIP3   OH211260   8.305   4.403   3.327
 3768TIP3    H111261   8.230   4.461   3.314
 3768TIP3    H211262   8.323   4.408   3.421
 3769TIP3   OH211263   3.819   1.582   3.929
 3769TIP3    H111264   3.831   1.615   4.018
 3769TIP3    H211265   3.765   1.649   3.887
 3770TIP3   OH211266   2.805   5.008   6.290
 3770TIP3    H111267   2.820   4.919   6.259
 3770TIP3    H211268   2.710   5.020   6.284
 3771TIP3   OH211269   0.563   5.823   1.578
 3771TIP3    H111270   0.633   5.771   1.616
 3771TIP3    H211271   0.604   5.908   1.559
 3772TIP3   OH211272   1.078   0.999   6.255
 3772TIP3    H111273   1.055   1.091   6.241
 3772TIP3    H211274   1.172   0.994   6.237
 3773TIP3   OH211275   2.470   4.839   1.709
 3773TIP3    H111276   2.552   4.887   1.717
 3773TIP3    H211277   2.432   4.842   1.796
 3774TIP3   OH211278   6.827   0.285   5.723
 3774TIP3    H111279   6.759   0.253   5.783
 3774TIP3    H211280   6.812   0.236   5.642
 3775TIP3   OH211281   0.985   5.010   3.423
 3775TIP3    H111282   1.068   5.056   3.431
 3775TIP3    H211283   1.007   4.928   3.378
 3776TIP3   OH211284   7.144   1.373   5.807
 3776TIP3    H111285   7.179   1.325   5.732
 3776TIP3    H211286   7.103   1.305   5.861
 3777TIP3   OH211287   3.582   1.984   6.565
 3777TIP3    H111288   3.636   1.976   6.643
 3777TIP3    H211289   3.604   1.908   6.512
 3778TIP3   OH211290   0.896   3.846   6.223
 3778TIP3    H111291   0.985   3.811   6.236
 3778TIP3    H211292   0.853   3.780   6.168
 3779TIP3   OH211293   2.461   2.477   5.891
 3779TIP3    H111294   2.465   2.390   5.853
 3779TIP3    H211295   2.507   2.470   5.974
 3780TIP3   OH211296   0.532   4.525   5.139
 3780TIP3    H111297   0.626   4.517   5.154
 3780TIP3    H211298   0.524   4.599   5.078
 3781TIP3   OH211299   3.600   7.023   2.703
 3781TIP3    H111300   3.551   6.941   2.712
 3781TIP3    H211301   3.594   7.064   2.789
 3782TIP3   OH211302   7.488   0.348   4.029
 3782TIP3    H111303   7.506   0.342   4.123
 3782TIP3    H211304   7.524   0.268   3.993
 3783TIP3   OH211305   3.579   6.281   3.472
 3783TIP3    H111306   3.647   6.249   3.531
 3783TIP3    H211307   3.523   6.336   3.526
 3784TIP3   OH211308   7.439   7.446   2.554
 3784TIP3    H111309   7.347   7.456   2.531
 3784TIP3    H211310   7.453   7.507   2.626
 3785TIP3   OH211311   4.548   6.396   3.212
 3785TIP3    H111312   4.570   6.351   3.294
 3785TIP3    H211313   4.561   6.489   3.231
 3786TIP3   OH211314   7.745   4.759   2.274
 3786TIP3    H111315   7.738   4.693   2.343
 3786TIP3    H211316   7.826   4.807   2.295
 3787TIP3   OH211317   6.835   3.158   4.865
 3787TIP3    H111318   6.874   3.157   4.777
 3787TIP3    H211319   6.743   3.136   4.850
 3788TIP3   OH211320   0.328   0.359   6.597
 3788TIP3    H111321   0.253   0.418   6.593
 3788TIP3    H211322   0.321   0.306   6.518
 3789TIP3   OH211323   4.198   1.267   4.658
 3789TIP3    H111324   4.172   1.356   4.634
 3789TIP3    H211325   4.206   1.270   4.753
 3790TIP3   OH211326   7.149   7.034   6.174
 3790TIP3    H111327   7.176   6.943   6.161
 3790TIP3    H211328   7.149   7.045   6.269
 3791TIP3   OH211329   3.454   3.942   0.100
 3791TIP3    H111330   3.426   3.857   0.132
 3791TIP3    H211331   3.526   3.968   0.157
 3792TIP3   OH211332   2.925   3.290   1.464
 3792TIP3    H111333   2.963   3.378   1.458
 3792TIP3    H211334   2.866   3.284   1.389
 3793TIP3   OH211335   6.526   2.820   5.726
 3793TIP3    H111336   6.529   2.906   5.685
 3793TIP3    H211337   6.615   2.805   5.758
 3794TIP3   OH211338   4.937   4.704   3.501
 3794TIP3    H111339   4.902   4.774   3.556
 3794TIP3    H211340   5.031   4.703   3.521
 3795TIP3   OH211341   6.028   1.319   2.776
 3795TIP3    H111342   6.017   1.313   2.871
 3795TIP3    H211343   5.939   1.325   2.743
 3796TIP3   OH211344   7.287   1.340   3.386
 3796TIP3    H111345   7.239   1.423   3.385
 3796TIP3    H211346   7.328   1.335   3.300
 3797TIP3   OH211347   7.403   6.367   5.858
 3797TIP3    H111348   7.479   6.426   5.856
 3797TIP3    H211349   7.334   6.418   5.901
 3798TIP3   OH211350   3.748   2.311   5.370
 3798TIP3    H111351   3.807   2.255   5.419
 3798TIP3    H211352   3.802   2.352   5.302
 3799TIP3   OH211353   7.363   0.201   3.566
 3799TIP3    H111354   7.301   0.175   3.498
 3799TIP3    H211355   7.334   0.287   3.596
 3800TIP3   OH211356   0.416   3.536   6.095
 3800TIP3    H111357   0.392   3.470   6.031
 3800TIP3    H211358   0.393   3.619   6.053
 3801TIP3   OH211359   7.693   3.947   4.768
 3801TIP3    H111360   7.620   3.920   4.712
 3801TIP3    H211361   7.724   3.866   4.809
 3802TIP3   OH211362   3.162   0.206   2.846
 3802TIP3    H111363   3.142   0.296   2.873
 3802TIP3    H211364   3.204   0.166   2.923
 3803TIP3   OH211365   6.097   3.579   3.848
 3803TIP3    H111366   6.188   3.554   3.829
 3803TIP3    H211367   6.076   3.532   3.929
 3804TIP3   OH211368   7.989   6.989   1.072
 3804TIP3    H111369   8.061   7.024   1.125
 3804TIP3    H211370   7.975   6.901   1.106
 3805TIP3   OH211371   4.163   6.442   4.535
 3805TIP3    H111372   4.116   6.516   4.497
 3805TIP3    H211373   4.104   6.367   4.524
 3806TIP3   OH211374   2.236   3.974   6.783
 3806TIP3    H111375   2.201   3.981   6.694
 3806TIP3    H211376   2.162   3.995   6.840
 3807TIP3   OH211377   4.223   6.925   3.965
 3807TIP3    H111378   4.304   6.890   3.928
 3807TIP3    H211379   4.157   6.859   3.944
 3808TIP3   OH211380   6.601   0.228   4.711
 3808TIP3    H111381   6.688   0.192   4.727
 3808TIP3    H211382   6.567   0.247   4.799
 3809TIP3   OH211383   1.426   5.985   4.796
 3809TIP3    H111384   1.363   5.913   4.795
 3809TIP3    H211385   1.480   5.972   4.719
 3810TIP3   OH211386   2.549   7.670   0.343
 3810TIP3    H111387   2.561   7.589   0.294
 3810TIP3    H211388   2.531   7.737   0.276
 3811TIP3   OH211389   6.405   7.147   4.302
 3811TIP3    H111390   6.341   7.094   4.349
 3811TIP3    H211391   6.457   7.083   4.253
 3812TIP3   OH211392   0.740   7.477   1.156
 3812TIP3    H111393   0.802   7.417   1.198
 3812TIP3    H211394   0.665   7.423   1.134
 3813TIP3   OH211395   6.362   0.752   0.516
 3813TIP3    H111396   6.415   0.706   0.580
 3813TIP3    H211397   6.272   0.734   0.542
 3814TIP3   OH211398   8.170   2.652   1.472
 3814TIP3    H111399   8.171   2.571   1.523
 3814TIP3    H211400   8.261   2.666   1.448
 3815TIP3   OH211401   7.146   1.594   3.355
 3815TIP3    H111402   7.074   1.617   3.413
 3815TIP3    H211403   7.197   1.675   3.346
 3816TIP3   OH211404   7.629   3.765   0.210
 3816TIP3    H111405   7.592   3.836   0.263
 3816TIP3    H211406   7.639   3.692   0.270
 3817TIP3   OH211407   8.181   3.553   5.105
 3817TIP3    H111408   8.095   3.571   5.142
 3817TIP3    H211409   8.176   3.462   5.076
 3818TIP3   OH211410   2.126   1.521   1.447
 3818TIP3    H111411   2.038   1.493   1.421
 3818TIP3    H211412   2.177   1.519   1.366
 3819TIP3   OH211413   1.549   1.870   1.019
 3819TIP3    H111414   1.638   1.856   1.051
 3819TIP3    H211415   1.529   1.791   0.968
 3820TIP3   OH211416   6.834   6.852   2.901
 3820TIP3    H111417   6.796   6.764   2.899
 3820TIP3    H211418   6.891   6.854   2.824
 3821TIP3   OH211419   7.231   0.878   6.445
 3821TIP3    H111420   7.286   0.943   6.401
 3821TIP3    H211421   7.187   0.927   6.514
 3822TIP3   OH211422   7.917   5.995   2.510
 3822TIP3    H111423   7.915   5.917   2.454
 3822TIP3    H211424   7.998   6.039   2.487
 3823TIP3   OH211425   7.788   5.575   4.448
 3823TIP3    H111426   7.730   5.499   4.454
 3823TIP3    H211427   7.749   5.640   4.505
 3824TIP3   OH211428   0.670   6.243   4.198
 3824TIP3    H111429   0.653   6.172   4.137
 3824TIP3    H211430   0.746   6.288   4.162
 3825TIP3   OH211431   0.651   2.223   0.609
 3825TIP3    H111432   0.642   2.185   0.697
 3825TIP3    H211433   0.596   2.302   0.612
 3826TIP3   OH211434   2.035   5.764   3.872
 3826TIP3    H111435   2.028   5.725   3.959
 3826TIP3    H211436   2.044   5.690   3.812
 3827TIP3   OH211437   2.834   6.726   4.666
 3827TIP3    H111438   2.773   6.790   4.704
 3827TIP3    H211439   2.797   6.705   4.581
 3828TIP3   OH211440   7.894   7.655   1.681
 3828TIP3    H111441   7.840   7.582   1.652
 3828TIP3    H211442   7.899   7.713   1.605
 3829TIP3   OH211443   2.088   0.582   0.159
 3829TIP3    H111444   2.096   0.677   0.154
 3829TIP3    H211445   2.040   0.567   0.240
 3830TIP3   OH211446   2.940   1.978   4.293
 3830TIP3    H111447   2.986   2.027   4.361
 3830TIP3    H211448   2.989   1.895   4.287
 3831TIP3   OH211449   0.479   0.467   5.444
 3831TIP3    H111450   0.530   0.387   5.446
 3831TIP3    H211451   0.522   0.522   5.378
 3832TIP3   OH211452   5.960   5.038   3.906
 3832TIP3    H111453   5.930   5.115   3.954
 3832TIP3    H211454   6.004   4.984   3.971
 3833TIP3   OH211455   8.117   5.296   4.858
 3833TIP3    H111456   8.110   5.382   4.816
 3833TIP3    H211457   8.048   5.296   4.924
 3834TIP3   OH211458   2.412   0.032   6.109
 3834TIP3    H111459   2.380   0.025   6.020
 3834TIP3    H211460   2.451  -0.054   6.128
 3835TIP3   OH211461   7.166   4.428   1.347
 3835TIP3    H111462   7.248   4.442   1.395
 3835TIP3    H211463   7.098   4.427   1.415
 3836TIP3   OH211464   3.690   7.046   5.030
 3836TIP3    H111465   3.648   7.130   5.008
 3836TIP3    H211466   3.729   7.017   4.947
 3837TIP3   OH211467   0.915   3.284   3.949
 3837TIP3    H111468   0.936   3.305   3.858
 3837TIP3    H211469   0.869   3.362   3.981
 3838TIP3   OH211470   1.740   2.836   3.477
 3838TIP3    H111471   1.759   2.750   3.439
 3838TIP3    H211472   1.826   2.877   3.490
 3839TIP3   OH211473   2.283   7.309   0.092
 3839TIP3    H111474   2.371   7.332   0.061
 3839TIP3    H211475   2.276   7.215   0.077
 3840TIP3   OH211476   1.387   2.020   2.228
 3840TIP3    H111477   1.330   2.082   2.272
 3840TIP3    H211478   1.445   1.987   2.297
 3841TIP3   OH211479   5.491   5.965   6.646
 3841TIP3    H111480   5.434   5.963   6.569
 3841TIP3    H211481   5.430   5.963   6.720
 3842TIP3   OH211482   4.289   2.241   6.643
 3842TIP3    H111483   4.239   2.181   6.588
 3842TIP3    H211484   4.296   2.321   6.592
 3843TIP3   OH211485   3.889   2.679   6.060
 3843TIP3    H111486   3.883   2.711   6.150
 3843TIP3    H211487   3.877   2.584   6.068
 3844TIP3   OH211488   5.018   0.305   4.411
 3844TIP3    H111489   4.974   0.275   4.490
 3844TIP3    H211490   4.997   0.239   4.345
 3845TIP3   OH211491   4.904   0.304   2.557
 3845TIP3    H111492   4.903   0.216   2.519
 3845TIP3    H211493   4.926   0.289   2.649
 3846TIP3   OH211494   3.269   5.358   3.432
 3846TIP3    H111495   3.279   5.272   3.472
 3846TIP3    H211496   3.307   5.349   3.344
 3847TIP3   OH211497   8.290   2.956   2.014
 3847TIP3    H111498   8.206   2.998   2.030
 3847TIP3    H211499   8.300   2.959   1.919
 3848TIP3   OH211500   2.381   4.735   3.638
 3848TIP3    H111501   2.353   4.775   3.556
 3848TIP3    H211502   2.409   4.809   3.693
 3849TIP3   OH211503   0.509   3.262   1.159
 3849TIP3    H111504   0.447   3.222   1.220
 3849TIP3    H211505   0.544   3.337   1.206
 3850TIP3   OH211506   6.956   1.732   5.207
 3850TIP3    H111507   6.894   1.660   5.197
 3850TIP3    H211508   7.039   1.690   5.229
 3851TIP3   OH211509   6.516   7.547   1.015
 3851TIP3    H111510   6.576   7.518   0.946
 3851TIP3    H211511   6.429   7.526   0.981
 3852TIP3   OH211512   0.374   4.315   2.575
 3852TIP3    H111513   0.404   4.298   2.664
 3852TIP3    H211514   0.313   4.389   2.584
 3853TIP3   OH211515   4.988   1.896   6.554
 3853TIP3    H111516   4.910   1.949   6.570
 3853TIP3    H211517   4.978   1.866   6.463
 3854TIP3   OH211518   6.038   4.785   3.564
 3854TIP3    H111519   6.080   4.787   3.650
 3854TIP3    H211520   6.048   4.695   3.534
 3855TIP3   OH211521   1.893   1.484   6.536
 3855TIP3    H111522   1.885   1.580   6.537
 3855TIP3    H211523   1.890   1.459   6.628
 3856TIP3   OH211524   6.697   4.131   0.651
 3856TIP3    H111525   6.786   4.147   0.620
 3856TIP3    H211526   6.684   4.037   0.637
 3857TIP3   OH211527   1.911   5.363   5.139
 3857TIP3    H111528   1.972   5.293   5.114
 3857TIP3    H211529   1.826   5.319   5.144
 3858TIP3   OH211530   2.521   2.354   1.996
 3858TIP3    H111531   2.491   2.307   2.073
 3858TIP3    H211532   2.606   2.391   2.022
 3859TIP3   OH211533   4.991   0.115   4.236
 3859TIP3    H111534   4.957   0.028   4.214
 3859TIP3    H211535   5.079   0.116   4.197
 3860TIP3   OH211536   7.670   2.217   4.867
 3860TIP3    H111537   7.645   2.200   4.776
 3860TIP3    H211538   7.588   2.239   4.911
 3861TIP3   OH211539   1.134   5.560   0.553
 3861TIP3    H111540   1.114   5.533   0.463
 3861TIP3    H211541   1.192   5.635   0.543
 3862TIP3   OH211542   5.987   6.094   5.527
 3862TIP3    H111543   5.909   6.137   5.562
 3862TIP3    H211544   6.057   6.117   5.588
 3863TIP3   OH211545   5.316   1.625   5.488
 3863TIP3    H111546   5.338   1.606   5.397
 3863TIP3    H211547   5.387   1.584   5.538
 3864TIP3   OH211548   8.262   0.330   0.194
 3864TIP3    H111549   8.322   0.391   0.237
 3864TIP3    H211550   8.317   0.276   0.138
 3865TIP3   OH211551   2.673   5.009   4.590
 3865TIP3    H111552   2.671   4.983   4.682
 3865TIP3    H211553   2.750   4.965   4.554
 3866TIP3   OH211554   4.426   6.854   3.798
 3866TIP3    H111555   4.414   6.768   3.759
 3866TIP3    H211556   4.447   6.911   3.724
 3867TIP3   OH211557   6.043   1.651   3.570
 3867TIP3    H111558   6.080   1.683   3.652
 3867TIP3    H211559   6.118   1.626   3.517
 3868TIP3   OH211560   6.985   4.126   2.105
 3868TIP3    H111561   7.000   4.211   2.145
 3868TIP3    H211562   6.964   4.146   2.013
 3869TIP3   OH211563   2.674   5.957   1.706
 3869TIP3    H111564   2.646   6.032   1.759
 3869TIP3    H211565   2.721   5.997   1.632
 3870TIP3   OH211566   1.912   3.182   1.740
 3870TIP3    H111567   1.949   3.167   1.828
 3870TIP3    H211568   1.981   3.229   1.693
 3871TIP3   OH211569   3.241   6.576   4.108
 3871TIP3    H111570   3.299   6.522   4.163
 3871TIP3    H211571   3.290   6.587   4.027
 3872TIP3   OH211572   1.722   2.156   6.631
 3872TIP3    H111573   1.651   2.092   6.627
 3872TIP3    H211574   1.786   2.117   6.690
 3873TIP3   OH211575   3.922   7.267   4.000
 3873TIP3    H111576   4.005   7.238   4.038
 3873TIP3    H211577   3.943   7.282   3.907
 3874TIP3   OH211578   5.424   7.313   5.948
 3874TIP3    H111579   5.401   7.404   5.966
 3874TIP3    H211580   5.405   7.301   5.855
 3875TIP3   OH211581   7.743   6.915   6.580
 3875TIP3    H111582   7.718   6.842   6.637
 3875TIP3    H211583   7.660   6.945   6.543
 3876TIP3   OH211584   3.882   5.593   6.144
 3876TIP3    H111585   3.840   5.624   6.063
 3876TIP3    H211586   3.872   5.665   6.205
 3877TIP3   OH211587   5.890   4.225   1.320
 3877TIP3    H111588   5.854   4.314   1.315
 3877TIP3    H211589   5.942   4.216   1.240
 3878TIP3   OH211590   7.843   6.282   4.904
 3878TIP3    H111591   7.843   6.323   4.818
 3878TIP3    H211592   7.936   6.273   4.927
 3879TIP3   OH211593   0.406   6.016   6.029
 3879TIP3    H111594   0.350   5.939   6.041
 3879TIP3    H211595   0.453   5.998   5.948
 3880TIP3   OH211596   7.203   7.150   3.432
 3880TIP3    H111597   7.275   7.194   3.476
 3880TIP3    H211598   7.204   7.061   3.468
 3881TIP3   OH211599   7.969   6.220   5.407
 3881TIP3    H111600   7.999   6.289   5.467
 3881TIP3    H211601   7.875   6.216   5.421
 3882TIP3   OH211602   5.774   2.265   0.995
 3882TIP3    H111603   5.818   2.327   0.937
 3882TIP3    H211604   5.826   2.266   1.075
 3883TIP3   OH211605   3.673   6.353   0.544
 3883TIP3    H111606   3.659   6.349   0.449
 3883TIP3    H211607   3.736   6.284   0.562
 3884TIP3   OH211608   2.338   6.753   2.937
 3884TIP3    H111609   2.245   6.770   2.920
 3884TIP3    H211610   2.365   6.694   2.867
 3885TIP3   OH211611   6.162   7.766   0.856
 3885TIP3    H111612   6.243   7.797   0.815
 3885TIP3    H211613   6.181   7.675   0.879
 3886TIP3   OH211614   4.195   7.801   0.853
 3886TIP3    H111615   4.228   7.848   0.777
 3886TIP3    H211616   4.250   7.832   0.926
 3887TIP3   OH211617   5.425   3.264   4.390
 3887TIP3    H111618   5.430   3.185   4.335
 3887TIP3    H211619   5.338   3.262   4.428
 3888TIP3   OH211620   3.394   7.626   0.897
 3888TIP3    H111621   3.353   7.592   0.818
 3888TIP3    H211622   3.486   7.604   0.888
 3889TIP3   OH211623   2.990   6.275   5.513
 3889TIP3    H111624   3.072   6.226   5.525
 3889TIP3    H211625   2.942   6.226   5.446
 3890TIP3   OH211626   4.182   0.831   1.134
 3890TIP3    H111627   4.159   0.877   1.214
 3890TIP3    H211628   4.265   0.870   1.107
 3891TIP3   OH211629   5.978   3.512   6.406
 3891TIP3    H111630   6.064   3.474   6.393
 3891TIP3    H211631   5.945   3.471   6.486
 3892TIP3   OH211632   5.909   6.527   2.422
 3892TIP3    H111633   5.983   6.545   2.363
 3892TIP3    H211634   5.940   6.555   2.508
 3893TIP3   OH211635   0.794   2.871   3.466
 3893TIP3    H111636   0.805   2.797   3.406
 3893TIP3    H211637   0.883   2.893   3.493
 3894TIP3   OH211638   6.924   5.451   1.358
 3894TIP3    H111639   6.980   5.505   1.414
 3894TIP3    H211640   6.986   5.406   1.300
 3895TIP3   OH211641   4.477   1.738   5.924
 3895TIP3    H111642   4.508   1.648   5.914
 3895TIP3    H211643   4.554   1.792   5.907
 3896TIP3   OH211644   3.945   1.810   2.955
 3896TIP3    H111645   4.005   1.739   2.935
 3896TIP3    H211646   4.001   1.887   2.966
 3897TIP3   OH211647   4.596   0.311   6.343
 3897TIP3    H111648   4.691   0.314   6.330
 3897TIP3    H211649   4.576   0.218   6.353
 3898TIP3   OH211650   6.106   6.980   0.251
 3898TIP3    H111651   6.110   6.975   0.346
 3898TIP3    H211652   6.016   7.005   0.231
 3899TIP3   OH211653   1.858   5.770   4.927
 3899TIP3    H111654   1.831   5.720   5.004
 3899TIP3    H211655   1.783   5.764   4.867
 3900TIP3   OH211656   7.735   0.169   5.302
 3900TIP3    H111657   7.688   0.092   5.271
 3900TIP3    H211658   7.805   0.134   5.356
 3901TIP3   OH211659   2.434   4.246   3.775
 3901TIP3    H111660   2.362   4.203   3.822
 3901TIP3    H211661   2.451   4.325   3.826
 3902TIP3   OH211662   4.448   3.469   0.493
 3902TIP3    H111663   4.429   3.496   0.403
 3902TIP3    H211664   4.539   3.439   0.490
 3903TIP3   OH211665   6.161   2.108   5.102
 3903TIP3    H111666   6.080   2.109   5.051
 3903TIP3    H211667   6.199   2.022   5.086
 3904TIP3   OH211668   0.644   1.327   3.135
 3904TIP3    H111669   0.664   1.319   3.229
 3904TIP3    H211670   0.557   1.288   3.126
 3905TIP3   OH211671   2.205   5.561   3.101
 3905TIP3    H111672   2.255   5.640   3.078
 3905TIP3    H211673   2.117   5.593   3.121
 3906TIP3   OH211674   7.177   7.735   5.839
 3906TIP3    H111675   7.223   7.653   5.855
 3906TIP3    H211676   7.247   7.797   5.817
 3907TIP3   OH211677   4.248   1.589   3.169
 3907TIP3    H111678   4.245   1.494   3.176
 3907TIP3    H211679   4.214   1.607   3.081
 3908TIP3   OH211680   1.979   4.329   5.555
 3908TIP3    H111681   1.956   4.330   5.648
 3908TIP3    H211682   2.055   4.388   5.549
 3909TIP3   OH211683   3.555   5.429   1.050
 3909TIP3    H111684   3.487   5.496   1.060
 3909TIP3    H211685   3.636   5.479   1.038
 3910TIP3   OH211686   4.032   6.832   0.301
 3910TIP3    H111687   3.942   6.805   0.283
 3910TIP3    H211688   4.027   6.926   0.317
 3911TIP3   OH211689   3.389   5.238   1.759
 3911TIP3    H111690   3.317   5.291   1.792
 3911TIP3    H211691   3.462   5.259   1.818
 3912TIP3   OH211692   6.570   5.295   1.772
 3912TIP3    H111693   6.652   5.344   1.774
 3912TIP3    H211694   6.514   5.341   1.835
 3913TIP3   OH211695   5.403   4.500   5.395
 3913TIP3    H111696   5.382   4.582   5.439
 3913TIP3    H211697   5.433   4.442   5.464
 3914TIP3   OH211698   0.475   4.151   4.393
 3914TIP3    H111699   0.397   4.167   4.340
 3914TIP3    H211700   0.461   4.204   4.472
 3915TIP3   OH211701   5.334   1.809   3.561
 3915TIP3    H111702   5.322   1.827   3.654
 3915TIP3    H211703   5.331   1.896   3.520
 3916TIP3   OH211704   4.462   2.806   0.652
 3916TIP3    H111705   4.474   2.761   0.735
 3916TIP3    H211706   4.418   2.742   0.596
 3917TIP3   OH211707   8.010   5.405   3.705
 3917TIP3    H111708   8.028   5.344   3.634
 3917TIP3    H211709   7.994   5.348   3.781
 3918TIP3   OH211710   2.527   7.219   1.872
 3918TIP3    H111711   2.439   7.193   1.844
 3918TIP3    H211712   2.514   7.256   1.959
 3919TIP3   OH211713   3.323   7.014   2.067
 3919TIP3    H111714   3.251   7.034   2.007
 3919TIP3    H211715   3.381   6.956   2.018
 3920TIP3   OH211716   7.967   6.257   3.793
 3920TIP3    H111717   7.896   6.269   3.729
 3920TIP3    H211718   8.023   6.190   3.754
 3921TIP3   OH211719   0.645   1.378   0.191
 3921TIP3    H111720   0.693   1.295   0.202
 3921TIP3    H211721   0.703   1.443   0.229
 3922TIP3   OH211722   7.476   2.776   5.915
 3922TIP3    H111723   7.475   2.870   5.934
 3922TIP3    H211724   7.454   2.735   5.999
 3923TIP3   OH211725   2.513   3.328   3.336
 3923TIP3    H111726   2.498   3.398   3.399
 3923TIP3    H211727   2.520   3.249   3.390
 3924TIP3   OH211728   2.600   1.353   6.335
 3924TIP3    H111729   2.562   1.433   6.371
 3924TIP3    H211730   2.556   1.282   6.383
 3925TIP3   OH211731   7.397   5.050   1.777
 3925TIP3    H111732   7.369   5.140   1.757
 3925TIP3    H211733   7.424   5.014   1.692
 3926TIP3   OH211734   2.583   6.817   6.255
 3926TIP3    H111735   2.593   6.884   6.323
 3926TIP3    H211736   2.665   6.769   6.256
 3927TIP3   OH211737   3.417   1.833   1.890
 3927TIP3    H111738   3.493   1.818   1.834
 3927TIP3    H211739   3.393   1.924   1.873
 3928TIP3   OH211740   2.779   1.659   4.356
 3928TIP3    H111741   2.873   1.673   4.363
 3928TIP3    H211742   2.769   1.591   4.289
 3929TIP3   OH211743   0.724   0.300   5.506
 3929TIP3    H111744   0.698   0.338   5.590
 3929TIP3    H211745   0.820   0.297   5.509
 3930TIP3   OH211746   7.775   7.687   0.803
 3930TIP3    H111747   7.765   7.742   0.725
 3930TIP3    H211748   7.700   7.627   0.799
 3931TIP3   OH211749   3.972   4.900   2.066
 3931TIP3    H111750   3.926   4.818   2.047
 3931TIP3    H211751   4.032   4.878   2.137
 3932TIP3   OH211752   0.469   7.755   0.508
 3932TIP3    H111753   0.563   7.734   0.509
 3932TIP3    H211754   0.446   7.755   0.415
 3933TIP3   OH211755   3.686   6.148   6.515
 3933TIP3    H111756   3.711   6.230   6.471
 3933TIP3    H211757   3.605   6.123   6.472
 3934TIP3   OH211758   0.171   3.704   0.692
 3934TIP3    H111759   0.116   3.701   0.613
 3934TIP3    H211760   0.206   3.793   0.694
 3935TIP3   OH211761   0.592   5.366   1.014
 3935TIP3    H111762   0.685   5.375   0.994
 3935TIP3    H211763   0.550   5.354   0.928
 3936TIP3   OH211764   7.492   0.137   0.077
 3936TIP3    H111765   7.451   0.223   0.090
 3936TIP3    H211766   7.451   0.080   0.141
 3937TIP3   OH211767   3.067   3.689   5.106
 3937TIP3    H111768   3.075   3.603   5.066
 3937TIP3    H211769   3.063   3.750   5.033
 3938TIP3   OH211770   7.784   0.622   2.181
 3938TIP3    H111771   7.805   0.595   2.270
 3938TIP3    H211772   7.775   0.717   2.186
 3939TIP3   OH211773   1.695   0.124   1.099
 3939TIP3    H111774   1.623   0.132   1.037
 3939TIP3    H211775   1.674   0.046   1.151
 3940TIP3   OH211776   6.009   1.058   4.813
 3940TIP3    H111777   5.927   1.101   4.840
 3940TIP3    H211778   6.041   1.110   4.740
 3941TIP3   OH211779   6.785   6.620   5.514
 3941TIP3    H111780   6.792   6.621   5.418
 3941TIP3    H211781   6.734   6.698   5.535
 3942TIP3   OH211782   3.586   0.169   6.505
 3942TIP3    H111783   3.656   0.222   6.466
 3942TIP3    H211784   3.511   0.181   6.447
 3943TIP3   OH211785   6.218   5.834   0.819
 3943TIP3    H111786   6.292   5.780   0.792
 3943TIP3    H211787   6.258   5.908   0.866
 3944TIP3   OH211788   7.408   4.149   5.828
 3944TIP3    H111789   7.453   4.180   5.750
 3944TIP3    H211790   7.472   4.161   5.899
 3945TIP3   OH211791   6.869   2.209   2.691
 3945TIP3    H111792   6.915   2.148   2.632
 3945TIP3    H211793   6.929   2.283   2.699
 3946TIP3   OH211794   7.024   0.323   3.658
 3946TIP3    H111795   6.973   0.291   3.584
 3946TIP3    H211796   7.000   0.416   3.665
 3947TIP3   OH211797   4.307   7.667   0.516
 3947TIP3    H111798   4.389   7.715   0.507
 3947TIP3    H211799   4.239   7.732   0.503
 3948TIP3   OH211800   4.423   7.168   2.737
 3948TIP3    H111801   4.397   7.133   2.651
 3948TIP3    H211802   4.514   7.195   2.725
 3949TIP3   OH211803   4.417   7.302   5.365
 3949TIP3    H111804   4.431   7.268   5.277
 3949TIP3    H211805   4.484   7.260   5.419
 3950TIP3   OH211806   6.977   5.875   6.570
 3950TIP3    H111807   6.931   5.854   6.488
 3950TIP3    H211808   7.014   5.962   6.555
 3951TIP3   OH211809   0.411   0.843   1.153
 3951TIP3    H111810   0.335   0.789   1.130
 3951TIP3    H211811   0.474   0.782   1.189
 3952TIP3   OH211812   1.653   3.489   5.835
 3952TIP3    H111813   1.613   3.539   5.764
 3952TIP3    H211814   1.671   3.554   5.903
 3953TIP3   OH211815   5.173   0.902   4.658
 3953TIP3    H111816   5.180   0.829   4.720
 3953TIP3    H211817   5.185   0.980   4.713
 3954TIP3   OH211818   0.777   4.243   0.768
 3954TIP3    H111819   0.816   4.330   0.767
 3954TIP3    H211820   0.683   4.259   0.782
 3955TIP3   OH211821   7.913   5.490   1.787
 3955TIP3    H111822   7.823   5.523   1.781
 3955TIP3    H211823   7.902   5.394   1.788
 3956TIP3   OH211824   2.812   7.668  -0.030
 3956TIP3    H111825   2.847   7.647   0.057
 3956TIP3    H211826   2.719   7.683  -0.015
 3957TIP3   OH211827   1.055   2.145   6.136
 3957TIP3    H111828   1.034   2.238   6.133
 3957TIP3    H211829   1.143   2.142   6.175
 3958TIP3   OH211830   7.334   5.065   6.657
 3958TIP3    H111831   7.315   5.112   6.738
 3958TIP3    H211832   7.366   4.979   6.686
 3959TIP3   OH211833   6.600   6.284   4.151
 3959TIP3    H111834   6.686   6.262   4.188
 3959TIP3    H211835   6.605   6.255   4.060
 3960TIP3   OH211836   1.541   1.705   6.554
 3960TIP3    H111837   1.482   1.643   6.597
 3960TIP3    H211838   1.576   1.658   6.479
 3961TIP3   OH211839   5.655   1.829   5.228
 3961TIP3    H111840   5.637   1.877   5.147
 3961TIP3    H211841   5.738   1.785   5.212
 3962TIP3   OH211842   4.909   6.411   4.876
 3962TIP3    H111843   4.907   6.326   4.832
 3962TIP3    H211844   4.846   6.465   4.829
 3963TIP3   OH211845   5.663   1.943   4.933
 3963TIP3    H111846   5.575   1.927   4.899
 3963TIP3    H211847   5.694   2.020   4.886
 3964TIP3   OH211848   0.482   5.763   5.175
 3964TIP3    H111849   0.412   5.732   5.118
 3964TIP3    H211850   0.552   5.789   5.115
 3965TIP3   OH211851   6.999   1.255   1.084
 3965TIP3    H111852   6.906   1.232   1.077
 3965TIP3    H211853   7.003   1.315   1.158
 3966TIP3   OH211854   5.799   4.645   0.092
 3966TIP3    H111855   5.718   4.666   0.140
 3966TIP3    H211856   5.828   4.562   0.130
 3967TIP3   OH211857   3.938   5.680   2.424
 3967TIP3    H111858   3.936   5.749   2.489
 3967TIP3    H211859   3.852   5.682   2.383
 3968TIP3   OH211860   5.675   7.556   0.605
 3968TIP3    H111861   5.584   7.532   0.622
 3968TIP3    H211862   5.677   7.651   0.616
 3969TIP3   OH211863   6.106   6.188   6.761
 3969TIP3    H111864   6.106   6.276   6.799
 3969TIP3    H211865   6.118   6.202   6.667
 3970TIP3   OH211866   3.356   6.483   5.308
 3970TIP3    H111867   3.312   6.457   5.227
 3970TIP3    H211868   3.326   6.572   5.325
 3971TIP3   OH211869   3.527   0.370   6.074
 3971TIP3    H111870   3.523   0.279   6.103
 3971TIP3    H211871   3.525   0.365   5.979
 3972TIP3   OH211872   5.728   5.801   1.379
 3972TIP3    H111873   5.748   5.890   1.351
 3972TIP3    H211874   5.809   5.752   1.362
 3973TIP3   OH211875   2.760   4.066   0.317
 3973TIP3    H111876   2.829   4.125   0.287
 3973TIP3    H211877   2.802   4.012   0.383
 3974TIP3   OH211878   0.889   5.961   3.423
 3974TIP3    H111879   0.826   5.923   3.362
 3974TIP3    H211880   0.845   5.960   3.507
 3975TIP3   OH211881   1.608   0.890   3.445
 3975TIP3    H111882   1.639   0.936   3.367
 3975TIP3    H211883   1.677   0.901   3.510
 3976TIP3   OH211884   5.413   3.354   2.124
 3976TIP3    H111885   5.379   3.326   2.039
 3976TIP3    H211886   5.497   3.394   2.105
 3977TIP3   OH211887   4.115   2.695   5.858
 3977TIP3    H111888   4.031   2.740   5.851
 3977TIP3    H211889   4.104   2.634   5.931
 3978TIP3   OH211890   0.059   3.807   1.434
 3978TIP3    H111891  -0.022   3.785   1.388
 3978TIP3    H211892   0.069   3.902   1.422
 3979TIP3   OH211893   5.213   2.396   2.662
 3979TIP3    H111894   5.199   2.368   2.571
 3979TIP3    H211895   5.251   2.319   2.705
 3980TIP3   OH211896   2.693   5.098   5.456
 3980TIP3    H111897   2.757   5.035   5.423
 3980TIP3    H211898   2.622   5.044   5.492
 3981TIP3   OH211899   4.954   6.845   5.905
 3981TIP3    H111900   4.997   6.763   5.931
 3981TIP3    H211901   4.949   6.838   5.809
 3982TIP3   OH211902   4.341   2.392   5.533
 3982TIP3    H111903   4.392   2.441   5.468
 3982TIP3    H211904   4.366   2.301   5.519
 3983TIP3   OH211905   4.756   2.809   6.238
 3983TIP3    H111906   4.808   2.882   6.272
 3983TIP3    H211907   4.819   2.737   6.227
 3984TIP3   OH211908   5.740   4.880   0.737
 3984TIP3    H111909   5.674   4.893   0.670
 3984TIP3    H211910   5.694   4.835   0.808
 3985TIP3   OH211911   1.869   0.571   4.453
 3985TIP3    H111912   1.883   0.642   4.390
 3985TIP3    H211913   1.946   0.573   4.510
 3986TIP3   OH211914   6.886   3.542   5.458
 3986TIP3    H111915   6.955   3.593   5.417
 3986TIP3    H211916   6.872   3.468   5.399
 3987TIP3   OH211917   3.086   6.514   2.890
 3987TIP3    H111918   3.176   6.486   2.908
 3987TIP3    H211919   3.096   6.601   2.850
 3988TIP3   OH211920   2.225   2.637   6.016
 3988TIP3    H111921   2.256   2.549   5.998
 3988TIP3    H211922   2.292   2.675   6.073
 3989TIP3   OH211923   2.347   6.440   5.733
 3989TIP3    H111924   2.270   6.464   5.784
 3989TIP3    H211925   2.389   6.523   5.711
 3990TIP3   OH211926   7.662  -0.019   4.524
 3990TIP3    H111927   7.717   0.022   4.458
 3990TIP3    H211928   7.572   0.003   4.498
 3991TIP3   OH211929   3.027   5.383   5.663
 3991TIP3    H111930   3.114   5.366   5.697
 3991TIP3    H211931   3.016   5.478   5.669
 3992TIP3   OH211932   7.101   6.104   4.857
 3992TIP3    H111933   7.165   6.175   4.858
 3992TIP3    H211934   7.147   6.032   4.815
 3993TIP3   OH211935   1.608   3.070   0.972
 3993TIP3    H111936   1.538   3.116   0.926
 3993TIP3    H211937   1.565   2.998   1.017
 3994TIP3   OH211938   7.559   5.783   1.169
 3994TIP3    H111939   7.590   5.766   1.258
 3994TIP3    H211940   7.464   5.775   1.175
 3995TIP3   OH211941   5.107   1.692   0.820
 3995TIP3    H111942   5.100   1.628   0.890
 3995TIP3    H211943   5.112   1.640   0.740
 3996TIP3   OH211944   6.270   2.979   2.456
 3996TIP3    H111945   6.281   2.920   2.382
 3996TIP3    H211946   6.346   2.962   2.512
 3997TIP3   OH211947   3.898   1.553   0.044
 3997TIP3    H111948   3.939   1.637   0.026
 3997TIP3    H211949   3.923   1.498  -0.029
 3998TIP3   OH211950   1.380   3.551   0.478
 3998TIP3    H111951   1.340   3.465   0.462
 3998TIP3    H211952   1.405   3.582   0.391
 3999TIP3   OH211953   7.561   7.760   0.072
 3999TIP3    H111954   7.591   7.691   0.131
 3999TIP3    H211955   7.511   7.819   0.128
 4000TIP3   OH211956   5.162   1.130   1.362
 4000TIP3    H111957   5.242   1.181   1.372
 4000TIP3    H211958   5.127   1.123   1.451
 4001TIP3   OH211959   5.445   6.336   0.272
 4001TIP3    H111960   5.389   6.287   0.332
 4001TIP3    H211961   5.433   6.427   0.297
 4002TIP3   OH211962   6.193   5.610   2.817
 4002TIP3    H111963   6.266   5.652   2.861
 4002TIP3    H211964   6.231   5.573   2.737
 4003TIP3   OH211965   2.603   6.957   5.785
 4003TIP3    H111966   2.621   6.928   5.696
 4003TIP3    H211967   2.518   7.001   5.780
 4004TIP3   OH211968   4.644   3.886   6.102
 4004TIP3    H111969   4.669   3.853   6.188
 4004TIP3    H211970   4.590   3.816   6.064
 4005TIP3   OH211971   6.809   3.287   1.952
 4005TIP3    H111972   6.800   3.199   1.989
 4005TIP3    H211973   6.718   3.317   1.941
 4006TIP3   OH211974   6.956   2.673   0.345
 4006TIP3    H111975   6.906   2.592   0.334
 4006TIP3    H211976   7.032   2.663   0.287
 4007TIP3   OH211977   4.281   4.031   1.379
 4007TIP3    H111978   4.212   4.091   1.353
 4007TIP3    H211979   4.244   3.943   1.366
 4008TIP3   OH211980   6.134   1.786   3.801
 4008TIP3    H111981   6.176   1.789   3.887
 4008TIP3    H211982   6.204   1.806   3.739
 4009TIP3   OH211983   3.034   0.763   5.180
 4009TIP3    H111984   3.070   0.843   5.217
 4009TIP3    H211985   3.062   0.694   5.239
 4010TIP3   OH211986   8.092   1.343   2.588
 4010TIP3    H111987   8.144   1.276   2.542
 4010TIP3    H211988   8.002   1.311   2.584
 4011TIP3   OH211989   1.432   3.799   2.439
 4011TIP3    H111990   1.369   3.869   2.456
 4011TIP3    H211991   1.402   3.758   2.358
 4012TIP3   OH211992   5.136   0.817   2.867
 4012TIP3    H111993   5.160   0.731   2.902
 4012TIP3    H211994   5.041   0.819   2.872
 4013TIP3   OH211995   7.266   6.788   2.755
 4013TIP3    H111996   7.304   6.752   2.675
 4013TIP3    H211997   7.212   6.862   2.725
 4014TIP3   OH211998   5.627   0.002   2.147
 4014TIP3    H111999   5.555  -0.020   2.206
 4014TIP3    H212000   5.644   0.095   2.163
 4015TIP3   OH212001   0.113   4.496   2.316
 4015TIP3    H112002   0.021   4.470   2.315
 4015TIP3    H212003   0.152   4.442   2.385
 4016TIP3   OH212004   0.712   6.047   2.507
 4016TIP3    H112005   0.627   6.079   2.537
 4016TIP3    H212006   0.725   5.965   2.554
 4017TIP3   OH212007   3.090   4.608   0.955
 4017TIP3    H112008   3.172   4.559   0.964
 4017TIP3    H212009   3.116   4.700   0.957
 4018TIP3   OH212010   7.661   2.807   0.118
 4018TIP3    H112011   7.709   2.753   0.056
 4018TIP3    H212012   7.726   2.833   0.184
 4019TIP3   OH212013   3.448   0.667   4.963
 4019TIP3    H112014   3.534   0.649   4.925
 4019TIP3    H212015   3.396   0.590   4.943
 4020TIP3   OH212016   4.137   2.106   3.240
 4020TIP3    H112017   4.233   2.113   3.236
 4020TIP3    H212018   4.109   2.100   3.149
 4021TIP3   OH212019   6.020   2.214   6.704
 4021TIP3    H112020   6.006   2.141   6.644
 4021TIP3    H212021   6.023   2.291   6.648
 4022TIP3   OH212022   8.169   3.536   2.977
 4022TIP3    H112023   8.134   3.614   2.933
 4022TIP3    H212024   8.259   3.560   2.999
 4023TIP3   OH212025   2.270   6.921   4.133
 4023TIP3    H112026   2.271   6.857   4.205
 4023TIP3    H212027   2.363   6.933   4.111
 4024TIP3   OH212028   6.517   0.892   5.626
 4024TIP3    H112029   6.523   0.965   5.565
 4024TIP3    H212030   6.436   0.847   5.602
 4025TIP3   OH212031   7.415   2.625   6.166
 4025TIP3    H112032   7.464   2.570   6.227
 4025TIP3    H212033   7.328   2.632   6.204
 4026TIP3   OH212034   4.311   7.188   3.969
 4026TIP3    H112035   4.278   7.098   3.967
 4026TIP3    H212036   4.398   7.180   4.008
 4027TIP3   OH212037   6.293   4.895   0.088
 4027TIP3    H112038   6.324   4.945   0.163
 4027TIP3    H212039   6.373   4.864   0.045
 4028TIP3   OH212040   4.428   3.001   4.407
 4028TIP3    H112041   4.359   2.935   4.412
 4028TIP3    H212042   4.422   3.048   4.490
 4029TIP3   OH212043   3.724   3.736   2.412
 4029TIP3    H112044   3.696   3.653   2.449
 4029TIP3    H212045   3.710   3.800   2.482
 4030TIP3   OH212046   7.593   5.383   3.828
 4030TIP3    H112047   7.618   5.325   3.756
 4030TIP3    H212048   7.571   5.466   3.785
 4031TIP3   OH212049   7.783   7.050   5.804
 4031TIP3    H112050   7.789   7.145   5.797
 4031TIP3    H212051   7.799   7.031   5.897
 4032TIP3   OH212052   7.225   6.424   5.284
 4032TIP3    H112053   7.306   6.420   5.234
 4032TIP3    H212054   7.252   6.408   5.375
 4033TIP3   OH212055   2.699   6.593   5.689
 4033TIP3    H112056   2.702   6.632   5.776
 4033TIP3    H212057   2.783   6.549   5.679
 4034TIP3   OH212058   3.779   4.098   5.716
 4034TIP3    H112059   3.732   4.163   5.664
 4034TIP3    H212060   3.782   4.135   5.804
 4035TIP3   OH212061   0.838   3.979   3.992
 4035TIP3    H112062   0.774   3.943   3.929
 4035TIP3    H212063   0.800   4.062   4.019
 4036TIP3   OH212064   6.546   5.171   3.683
 4036TIP3    H112065   6.540   5.259   3.719
 4036TIP3    H212066   6.559   5.184   3.589
 4037TIP3   OH212067   7.953   4.967   5.708
 4037TIP3    H112068   8.009   4.933   5.638
 4037TIP3    H212069   8.012   4.977   5.783
 4038TIP3   OH212070   7.619   7.470   0.703
 4038TIP3    H112071   7.632   7.476   0.608
 4038TIP3    H212072   7.530   7.438   0.713
 4039TIP3   OH212073   4.383   4.809   5.682
 4039TIP3    H112074   4.426   4.748   5.741
 4039TIP3    H212075   4.447   4.826   5.613
 4040TIP3   OH212076   5.481   0.544   6.462
 4040TIP3    H112077   5.415   0.542   6.393
 4040TIP3    H212078   5.458   0.621   6.515
 4041TIP3   OH212079   2.019   0.694   5.964
 4041TIP3    H112080   1.985   0.771   5.918
 4041TIP3    H212081   2.101   0.724   6.003
 4042TIP3   OH212082   8.173   7.103   2.421
 4042TIP3    H112083   8.107   7.141   2.479
 4042TIP3    H212084   8.130   7.026   2.383
 4043TIP3   OH212085   6.877   1.440   6.718
 4043TIP3    H112086   6.868   1.456   6.812
 4043TIP3    H212087   6.812   1.497   6.678
 4044TIP3   OH212088   4.306   6.977   1.117
 4044TIP3    H112089   4.300   6.895   1.166
 4044TIP3    H212090   4.397   7.005   1.129
 4045TIP3   OH212091   7.527   2.181   4.622
 4045TIP3    H112092   7.494   2.248   4.683
 4045TIP3    H212093   7.554   2.231   4.545
 4046TIP3   OH212094   2.986   7.833   5.660
 4046TIP3    H112095   3.039   7.754   5.643
 4046TIP3    H212096   2.907   7.800   5.703
 4047TIP3   OH212097   6.343   3.151   3.520
 4047TIP3    H112098   6.295   3.075   3.552
 4047TIP3    H212099   6.284   3.225   3.534
 4048TIP3   OH212100   2.510   6.038   6.465
 4048TIP3    H112101   2.475   6.124   6.440
 4048TIP3    H212102   2.455   6.010   6.538
 4049TIP3   OH212103   3.295   7.192   6.494
 4049TIP3    H112104   3.272   7.282   6.471
 4049TIP3    H212105   3.311   7.195   6.589
 4050TIP3   OH212106   6.664   6.207   1.035
 4050TIP3    H112107   6.724   6.244   1.099
 4050TIP3    H212108   6.582   6.254   1.049
 4051TIP3   OH212109   7.062   4.317   0.785
 4051TIP3    H112110   6.986   4.351   0.739
 4051TIP3    H212111   7.046   4.336   0.877
 4052TIP3   OH212112   2.530   6.669   0.782
 4052TIP3    H112113   2.559   6.619   0.859
 4052TIP3    H212114   2.598   6.735   0.769
 4053TIP3   OH212115   3.710   7.762   2.164
 4053TIP3    H112116   3.795   7.735   2.198
 4053TIP3    H212117   3.704   7.719   2.078
 4054TIP3   OH212118   2.026   6.921   3.517
 4054TIP3    H112119   1.996   6.851   3.458
 4054TIP3    H212120   1.999   7.002   3.474
 4055TIP3   OH212121   2.556   3.286   1.849
 4055TIP3    H112122   2.499   3.264   1.922
 4055TIP3    H212123   2.645   3.272   1.882
 4056TIP3   OH212124   8.084   0.672   2.155
 4056TIP3    H112125   8.042   0.691   2.071
 4056TIP3    H212126   8.057   0.582   2.175
 4057TIP3   OH212127   3.494   4.974   1.659
 4057TIP3    H112128   3.442   5.052   1.678
 4057TIP3    H212129   3.584   5.006   1.654
 4058TIP3   OH212130   1.016   1.506   6.748
 4058TIP3    H112131   1.004   1.442   6.678
 4058TIP3    H212132   1.053   1.456   6.820
 4059TIP3   OH212133   7.636   3.968   5.363
 4059TIP3    H112134   7.714   4.007   5.404
 4059TIP3    H212135   7.671   3.913   5.293
 4060TIP3   OH212136   3.817   6.546   5.359
 4060TIP3    H112137   3.852   6.606   5.294
 4060TIP3    H212138   3.771   6.602   5.422
 4061TIP3   OH212139   1.943   2.492   1.096
 4061TIP3    H112140   1.997   2.423   1.059
 4061TIP3    H212141   1.981   2.509   1.183
 4062TIP3   OH212142   7.088   0.235   6.060
 4062TIP3    H112143   7.107   0.263   5.970
 4062TIP3    H212144   7.170   0.250   6.107
 4063TIP3   OH212145   2.706   4.869   4.108
 4063TIP3    H112146   2.756   4.944   4.077
 4063TIP3    H212147   2.696   4.813   4.031
 4064TIP3   OH212148   4.307   7.761   6.727
 4064TIP3    H112149   4.363   7.813   6.785
 4064TIP3    H212150   4.345   7.673   6.729
 4065TIP3   OH212151   6.835   7.586   2.732
 4065TIP3    H112152   6.876   7.658   2.684
 4065TIP3    H212153   6.896   7.567   2.804
 4066TIP3   OH212154   1.297   1.309   4.740
 4066TIP3    H112155   1.216   1.267   4.712
 4066TIP3    H212156   1.352   1.312   4.662
 4067TIP3   OH212157   1.279   2.396   1.655
 4067TIP3    H112158   1.336   2.321   1.645
 4067TIP3    H212159   1.218   2.372   1.724
 4068TIP3   OH212160   7.327   4.227   6.697
 4068TIP3    H112161   7.415   4.243   6.662
 4068TIP3    H212162   7.281   4.184   6.625
 4069TIP3   OH212163   2.438   5.890   6.001
 4069TIP3    H112164   2.387   5.919   6.077
 4069TIP3    H212165   2.420   5.955   5.934
 4070TIP3   OH212166   5.933   1.008   1.168
 4070TIP3    H112167   5.999   0.939   1.179
 4070TIP3    H212168   5.855   0.975   1.214
 4071TIP3   OH212169   7.434   5.333   3.283
 4071TIP3    H112170   7.476   5.305   3.202
 4071TIP3    H212171   7.395   5.418   3.263
 4072TIP3   OH212172   0.902   0.024   0.322
 4072TIP3    H112173   0.869   0.021   0.232
 4072TIP3    H212174   0.837   0.074   0.370
 4073TIP3   OH212175   5.104   7.761   4.184
 4073TIP3    H112176   5.077   7.852   4.198
 4073TIP3    H212177   5.034   7.709   4.223
 4074TIP3   OH212178   0.562   4.933   0.087
 4074TIP3    H112179   0.619   5.003   0.057
 4074TIP3    H212180   0.617   4.879   0.143
 4075TIP3   OH212181   1.117   3.996   3.078
 4075TIP3    H112182   1.128   3.966   2.988
 4075TIP3    H212183   1.028   3.970   3.102
 4076TIP3   OH212184   6.113   2.228   2.337
 4076TIP3    H112185   6.139   2.178   2.414
 4076TIP3    H212186   6.022   2.205   2.322
 4077TIP3   OH212187   0.736   5.784   4.231
 4077TIP3    H112188   0.742   5.715   4.296
 4077TIP3    H212189   0.666   5.756   4.172
 4078TIP3   OH212190   6.932   6.741   2.253
 4078TIP3    H112191   6.935   6.833   2.227
 4078TIP3    H212192   6.989   6.696   2.190
 4079TIP3   OH212193   4.574   2.985   1.476
 4079TIP3    H112194   4.498   3.043   1.489
 4079TIP3    H212195   4.594   2.991   1.383
 4080TIP3   OH212196   5.039   6.188   2.210
 4080TIP3    H112197   4.950   6.221   2.225
 4080TIP3    H212198   5.026   6.100   2.176
 4081TIP3   OH212199   7.060   2.646   6.719
 4081TIP3    H112200   7.136   2.600   6.754
 4081TIP3    H212201   7.076   2.738   6.739
 4082TIP3   OH212202   1.658   1.414   1.329
 4082TIP3    H112203   1.612   1.388   1.249
 4082TIP3    H212204   1.616   1.363   1.398
 4083TIP3   OH212205   5.028   7.527   2.707
 4083TIP3    H112206   5.110   7.555   2.747
 4083TIP3    H212207   4.984   7.476   2.775
 4084TIP3   OH212208   1.740   3.010   5.166
 4084TIP3    H112209   1.824   3.055   5.165
 4084TIP3    H212210   1.675   3.080   5.172
 4085TIP3   OH212211   4.349   3.964   5.755
 4085TIP3    H112212   4.336   3.902   5.683
 4085TIP3    H212213   4.401   4.035   5.717
 4086TIP3   OH212214   0.428   0.905   2.159
 4086TIP3    H112215   0.372   0.915   2.236
 4086TIP3    H212216   0.500   0.967   2.174
 4087TIP3   OH212217   2.846   5.010   1.010
 4087TIP3    H112218   2.752   5.028   1.003
 4087TIP3    H212219   2.851   4.933   1.066
 4088TIP3   OH212220   3.043   0.775   3.903
 4088TIP3    H112221   2.951   0.768   3.925
 4088TIP3    H212222   3.053   0.724   3.822
 4089TIP3   OH212223   3.796   6.940   3.497
 4089TIP3    H112224   3.839   6.930   3.581
 4089TIP3    H212225   3.711   6.977   3.517
 4090TIP3   OH212226   4.788   4.062   2.714
 4090TIP3    H112227   4.755   4.031   2.798
 4090TIP3    H212228   4.812   4.154   2.730
 4091TIP3   OH212229   4.097   5.426   0.840
 4091TIP3    H112230   4.085   5.367   0.915
 4091TIP3    H212231   4.040   5.390   0.773
 4092TIP3   OH212232   0.260   2.842   0.987
 4092TIP3    H112233   0.292   2.810   0.902
 4092TIP3    H212234   0.170   2.811   0.991
 4093TIP3   OH212235   0.690   5.662   3.923
 4093TIP3    H112236   0.648   5.608   3.856
 4093TIP3    H212237   0.778   5.626   3.932
 4094TIP3   OH212238   4.730   3.794   3.644
 4094TIP3    H112239   4.723   3.722   3.707
 4094TIP3    H212240   4.787   3.857   3.686
 4095TIP3   OH212241   2.384   0.569   1.693
 4095TIP3    H112242   2.293   0.549   1.672
 4095TIP3    H212243   2.423   0.485   1.714
 4096TIP3   OH212244   7.048   6.816   1.651
 4096TIP3    H112245   7.098   6.831   1.571
 4096TIP3    H212246   7.066   6.725   1.674
 4097TIP3   OH212247   1.620   5.445   4.586
 4097TIP3    H112248   1.679   5.391   4.533
 4097TIP3    H212249   1.659   5.446   4.673
 4098TIP3   OH212250   0.269   3.327   5.096
 4098TIP3    H112251   0.241   3.393   5.033
 4098TIP3    H212252   0.365   3.330   5.093
 4099TIP3   OH212253   0.768   7.741   3.766
 4099TIP3    H112254   0.749   7.825   3.809
 4099TIP3    H212255   0.710   7.740   3.690
 4100TIP3   OH212256   4.816   7.792   0.889
 4100TIP3    H112257   4.755   7.793   0.962
 4100TIP3    H212258   4.761   7.799   0.811
 4101TIP3   OH212259   1.734   2.280   5.605
 4101TIP3    H112260   1.687   2.201   5.579
 4101TIP3    H212261   1.820   2.271   5.562
 4102TIP3   OH212262   5.049   5.902   1.686
 4102TIP3    H112263   4.986   5.894   1.614
 4102TIP3    H212264   5.002   5.951   1.753
 4103TIP3   OH212265   3.613   6.983   0.470
 4103TIP3    H112266   3.570   6.907   0.510
 4103TIP3    H212267   3.560   7.058   0.497
 4104TIP3   OH212268   7.420   3.930   6.683
 4104TIP3    H112269   7.484   3.892   6.624
 4104TIP3    H212270   7.368   3.989   6.628
 4105TIP3   OH212271   0.678   7.625   0.933
 4105TIP3    H112272   0.723   7.564   0.874
 4105TIP3    H212273   0.684   7.583   1.019
 4106TIP3   OH212274   4.067   4.316   3.300
 4106TIP3    H112275   4.075   4.407   3.272
 4106TIP3    H212276   3.979   4.290   3.271
 4107TIP3   OH212277   4.745   3.909   5.171
 4107TIP3    H112278   4.651   3.918   5.188
 4107TIP3    H212279   4.754   3.824   5.129
 4108TIP3   OH212280   7.672   6.302   1.364
 4108TIP3    H112281   7.704   6.293   1.274
 4108TIP3    H212282   7.639   6.391   1.370
 4109TIP3   OH212283   4.673   3.372   1.733
 4109TIP3    H112284   4.660   3.449   1.679
 4109TIP3    H212285   4.588   3.328   1.733
 4110TIP3   OH212286   5.060   5.360   6.563
 4110TIP3    H112287   5.103   5.311   6.634
 4110TIP3    H212288   5.031   5.292   6.503
 4111TIP3   OH212289   0.045   4.679   3.332
 4111TIP3    H112290   0.044   4.593   3.290
 4111TIP3    H212291  -0.047   4.705   3.337
 4112TIP3   OH212292   7.099   7.153   0.486
 4112TIP3    H112293   7.066   7.093   0.418
 4112TIP3    H212294   7.185   7.118   0.509
 4113TIP3   OH212295   8.123   3.964   0.614
 4113TIP3    H112296   8.157   3.982   0.526
 4113TIP3    H212297   8.032   3.995   0.611
 4114TIP3   OH212298   2.284   2.258   4.465
 4114TIP3    H112299   2.224   2.319   4.508
 4114TIP3    H212300   2.265   2.266   4.372
 4115TIP3   OH212301   2.815   3.776   4.627
 4115TIP3    H112302   2.736   3.728   4.602
 4115TIP3    H212303   2.884   3.739   4.572
 4116TIP3   OH212304   2.301   4.243   5.576
 4116TIP3    H112305   2.291   4.309   5.644
 4116TIP3    H212306   2.346   4.170   5.619
 4117TIP3   OH212307   1.508   2.414   3.367
 4117TIP3    H112308   1.466   2.426   3.282
 4117TIP3    H212309   1.490   2.322   3.390
 4118TIP3   OH212310   1.156   0.256   4.728
 4118TIP3    H112311   1.063   0.259   4.751
 4118TIP3    H212312   1.174   0.341   4.688
 4119TIP3   OH212313   3.159   2.889   5.648
 4119TIP3    H112314   3.081   2.868   5.698
 4119TIP3    H212315   3.147   2.980   5.621
 4120TIP3   OH212316   1.056   1.397   2.904
 4120TIP3    H112317   1.087   1.385   2.994
 4120TIP3    H212318   0.984   1.460   2.911
 4121TIP3   OH212319   6.204   0.227   4.244
 4121TIP3    H112320   6.243   0.145   4.275
 4121TIP3    H212321   6.124   0.237   4.296
 4122TIP3   OH212322   7.584   7.120   4.635
 4122TIP3    H112323   7.534   7.039   4.633
 4122TIP3    H212324   7.675   7.092   4.643
 4123TIP3   OH212325   7.823   2.524   3.928
 4123TIP3    H112326   7.894   2.587   3.914
 4123TIP3    H212327   7.850   2.447   3.879
 4124TIP3   OH212328   6.884   5.429   0.949
 4124TIP3    H112329   6.845   5.508   0.986
 4124TIP3    H212330   6.816   5.394   0.891
 4125TIP3   OH212331   6.166   1.521   3.081
 4125TIP3    H112332   6.252   1.488   3.106
 4125TIP3    H212333   6.185   1.594   3.022
 4126TIP3   OH212334   7.091   1.584   3.074
 4126TIP3    H112335   7.099   1.560   3.166
 4126TIP3    H212336   7.044   1.667   3.075
 4127TIP3   OH212337   2.716   3.024   1.075
 4127TIP3    H112338   2.710   2.964   1.001
 4127TIP3    H212339   2.767   2.976   1.141
 4128TIP3   OH212340   4.930   2.982   0.571
 4128TIP3    H112341   4.914   2.924   0.646
 4128TIP3    H212342   5.023   3.006   0.578
 4129TIP3   OH212343   7.567   6.581   2.554
 4129TIP3    H112344   7.529   6.497   2.579
 4129TIP3    H212345   7.654   6.580   2.592
 4130TIP3   OH212346   8.182   7.590   5.013
 4130TIP3    H112347   8.090   7.616   5.013
 4130TIP3    H212348   8.187   7.519   4.949
 4131TIP3   OH212349   5.107   7.074   6.676
 4131TIP3    H112350   5.161   7.035   6.745
 4131TIP3    H212351   5.151   7.051   6.595
 4132TIP3   OH212352   2.562   1.238   5.749
 4132TIP3    H112353   2.543   1.283   5.667
 4132TIP3    H212354   2.476   1.226   5.790
 4133TIP3   OH212355   4.892   3.425   4.222
 4133TIP3    H112356   4.984   3.432   4.198
 4133TIP3    H212357   4.881   3.334   4.247
 4134TIP3   OH212358   4.952   0.124   6.213
 4134TIP3    H112359   4.953   0.206   6.264
 4134TIP3    H212360   5.042   0.093   6.217
 4135TIP3   OH212361   5.580   5.558   4.354
 4135TIP3    H112362   5.669   5.530   4.373
 4135TIP3    H212363   5.549   5.595   4.436
 4136TIP3   OH212364   6.184   4.342   6.682
 4136TIP3    H112365   6.164   4.249   6.670
 4136TIP3    H212366   6.114   4.388   6.637
 4137TIP3   OH212367   0.212   4.348   4.368
 4137TIP3    H112368   0.136   4.306   4.327
 4137TIP3    H212369   0.211   4.437   4.335
 4138TIP3   OH212370   6.771   7.519   0.647
 4138TIP3    H112371   6.717   7.594   0.624
 4138TIP3    H212372   6.852   7.556   0.682
 4139TIP3   OH212373   6.447   0.319   4.514
 4139TIP3    H112374   6.429   0.413   4.522
 4139TIP3    H212375   6.492   0.296   4.596
 4140TIP3   OH212376   0.696   5.253   1.641
 4140TIP3    H112377   0.638   5.324   1.612
 4140TIP3    H212378   0.725   5.211   1.561
 4141TIP3   OH212379   5.289   5.517   2.211
 4141TIP3    H112380   5.341   5.444   2.179
 4141TIP3    H212381   5.199   5.484   2.211
 4142TIP3   OH212382   2.747   0.515   5.192
 4142TIP3    H112383   2.656   0.519   5.219
 4142TIP3    H212384   2.794   0.485   5.270
 4143TIP3   OH212385   6.562   3.682   2.048
 4143TIP3    H112386   6.510   3.610   2.012
 4143TIP3    H212387   6.598   3.726   1.971
 4144TIP3   OH212388   7.612   5.879   4.397
 4144TIP3    H112389   7.555   5.952   4.374
 4144TIP3    H212390   7.681   5.882   4.330
 4145TIP3   OH212391   5.974   4.588   0.557
 4145TIP3    H112392   6.053   4.557   0.513
 4145TIP3    H212393   5.957   4.673   0.518
 4146TIP3   OH212394   0.180   7.372   4.165
 4146TIP3    H112395   0.227   7.378   4.081
 4146TIP3    H212396   0.178   7.278   4.184
 4147TIP3   OH212397   8.077   0.657   2.459
 4147TIP3    H112398   8.082   0.749   2.433
 4147TIP3    H212399   8.003   0.621   2.410
 4148TIP3   OH212400   1.107   1.874   3.057
 4148TIP3    H112401   1.147   1.880   3.144
 4148TIP3    H212402   1.054   1.793   3.061
 4149TIP3   OH212403   7.347   5.337   5.518
 4149TIP3    H112404   7.289   5.352   5.443
 4149TIP3    H212405   7.428   5.382   5.495
 4150TIP3   OH212406   3.916   3.395   4.869
 4150TIP3    H112407   4.009   3.408   4.852
 4150TIP3    H212408   3.874   3.412   4.784
 4151TIP3   OH212409   0.379   1.443   5.144
 4151TIP3    H112410   0.365   1.370   5.205
 4151TIP3    H212411   0.329   1.515   5.181
 4152TIP3   OH212412   1.184   5.399   1.837
 4152TIP3    H112413   1.263   5.450   1.858
 4152TIP3    H212414   1.111   5.458   1.857
 4153TIP3   OH212415   0.544   2.112   4.839
 4153TIP3    H112416   0.557   2.113   4.745
 4153TIP3    H212417   0.557   2.203   4.866
 4154TIP3   OH212418   1.648   2.608   0.930
 4154TIP3    H112419   1.700   2.527   0.934
 4154TIP3    H212420   1.711   2.678   0.945
 4155TIP3   OH212421   1.879   0.759   3.393
 4155TIP3    H112422   1.909   0.819   3.324
 4155TIP3    H212423   1.841   0.817   3.460
 4156TIP3   OH212424   5.550   6.424   6.497
 4156TIP3    H112425   5.523   6.513   6.517
 4156TIP3    H212426   5.638   6.416   6.534
 4157TIP3   OH212427   5.304   2.167   3.889
 4157TIP3    H112428   5.313   2.204   3.977
 4157TIP3    H212429   5.209   2.159   3.876
 4158TIP3   OH212430   1.966   6.210   3.952
 4158TIP3    H112431   1.928   6.154   3.885
 4158TIP3    H212432   2.053   6.232   3.919
 4159TIP3   OH212433   6.132   2.332   6.405
 4159TIP3    H112434   6.226   2.345   6.406
 4159TIP3    H212435   6.112   2.304   6.315
 4160TIP3   OH212436   7.544   5.312   3.026
 4160TIP3    H112437   7.601   5.388   3.017
 4160TIP3    H212438   7.463   5.336   2.980
 4161TIP3   OH212439   4.935   1.989   0.515
 4161TIP3    H112440   4.981   1.908   0.493
 4161TIP3    H212441   4.928   1.987   0.610
 4162TIP3   OH212442   4.623   1.585   4.989
 4162TIP3    H112443   4.648   1.627   4.907
 4162TIP3    H212444   4.601   1.658   5.047
 4163TIP3   OH212445   5.508   0.013   1.099
 4163TIP3    H112446   5.531  -0.039   1.177
 4163TIP3    H212447   5.529   0.103   1.124
 4164TIP3   OH212448   0.437   3.868   4.917
 4164TIP3    H112449   0.490   3.802   4.872
 4164TIP3    H212450   0.478   3.876   5.003
 4165TIP3   OH212451   2.855   6.736   1.725
 4165TIP3    H112452   2.944   6.765   1.747
 4165TIP3    H212453   2.864   6.696   1.639
 4166TIP3   OH212454   6.192   1.674   5.763
 4166TIP3    H112455   6.281   1.639   5.767
 4166TIP3    H212456   6.187   1.718   5.678
 4167TIP3   OH212457   3.055   5.614   0.654
 4167TIP3    H112458   3.032   5.622   0.561
 4167TIP3    H212459   2.970   5.608   0.699
 4168TIP3   OH212460   0.610   0.042   1.515
 4168TIP3    H112461   0.563  -0.036   1.544
 4168TIP3    H212462   0.577   0.059   1.427
 4169TIP3   OH212463   7.304   2.614   5.429
 4169TIP3    H112464   7.318   2.636   5.521
 4169TIP3    H212465   7.214   2.579   5.426
 4170TIP3   OH212466   2.727   7.428   5.262
 4170TIP3    H112467   2.709   7.363   5.194
 4170TIP3    H212468   2.712   7.513   5.219
 4171TIP3   OH212469   6.747   3.193   2.484
 4171TIP3    H112470   6.803   3.252   2.533
 4171TIP3    H212471   6.775   3.105   2.511
 4172TIP3   OH212472   5.668   1.877   1.707
 4172TIP3    H112473   5.725   1.821   1.655
 4172TIP3    H212474   5.698   1.966   1.690
 4173TIP3   OH212475   8.319   4.543   0.543
 4173TIP3    H112476   8.344   4.535   0.451
 4173TIP3    H212477   8.242   4.488   0.552
 4174TIP3   OH212478   1.539   5.834   1.887
 4174TIP3    H112479   1.457   5.883   1.894
 4174TIP3    H212480   1.597   5.891   1.836
 4175TIP3   OH212481   2.805   6.030   2.946
 4175TIP3    H112482   2.755   5.953   2.971
 4175TIP3    H212483   2.745   6.080   2.890
 4176TIP3   OH212484   5.579   2.981   2.230
 4176TIP3    H112485   5.643   3.019   2.291
 4176TIP3    H212486   5.630   2.920   2.177
 4177TIP3   OH212487   6.359   5.212   0.513
 4177TIP3    H112488   6.303   5.141   0.545
 4177TIP3    H212489   6.302   5.266   0.459
 4178TIP3   OH212490   7.844   0.755   4.689
 4178TIP3    H112491   7.893   0.722   4.613
 4178TIP3    H212492   7.775   0.809   4.651
 4179TIP3   OH212493   4.908   5.774   3.598
 4179TIP3    H112494   4.907   5.703   3.534
 4179TIP3    H212495   4.871   5.736   3.678
 4180TIP3   OH212496   7.798   5.774   6.278
 4180TIP3    H112497   7.839   5.811   6.199
 4180TIP3    H212498   7.724   5.832   6.295
 4181TIP3   OH212499   2.139   0.447   1.637
 4181TIP3    H112500   2.156   0.356   1.662
 4181TIP3    H212501   2.063   0.472   1.691
 4182TIP3   OH212502   1.570   6.477   6.768
 4182TIP3    H112503   1.612   6.547   6.718
 4182TIP3    H212504   1.641   6.441   6.822
 4183TIP3   OH212505   4.147   5.245   3.949
 4183TIP3    H112506   4.088   5.282   4.015
 4183TIP3    H212507   4.187   5.170   3.993
 4184TIP3   OH212508   4.789   4.676   5.222
 4184TIP3    H112509   4.735   4.631   5.288
 4184TIP3    H212510   4.740   4.755   5.202
 4185TIP3   OH212511   4.602   4.443   5.025
 4185TIP3    H112512   4.620   4.511   4.959
 4185TIP3    H212513   4.671   4.377   5.010
 4186TIP3   OH212514   5.085   6.960   0.549
 4186TIP3    H112515   5.059   6.975   0.458
 4186TIP3    H212516   5.077   7.046   0.590
 4187TIP3   OH212517   5.673   3.228   3.076
 4187TIP3    H112518   5.697   3.249   2.986
 4187TIP3    H212519   5.621   3.303   3.104
 4188TIP3   OH212520   6.884   1.776   2.772
 4188TIP3    H112521   6.876   1.782   2.867
 4188TIP3    H212522   6.836   1.852   2.739
 4189TIP3   OH212523   1.925   4.293   0.392
 4189TIP3    H112524   1.962   4.211   0.423
 4189TIP3    H212525   1.961   4.305   0.304
 4190TIP3   OH212526   7.454   6.228   4.575
 4190TIP3    H112527   7.517   6.269   4.516
 4190TIP3    H212528   7.485   6.250   4.663
 4191TIP3   OH212529   1.468   1.132   6.382
 4191TIP3    H112530   1.544   1.115   6.326
 4191TIP3    H212531   1.486   1.084   6.463
 4192TIP3   OH212532   8.205   4.918   6.549
 4192TIP3    H112533   8.258   4.998   6.550
 4192TIP3    H212534   8.133   4.937   6.489
 4193TIP3   OH212535   1.234   4.597   6.816
 4193TIP3    H112536   1.139   4.607   6.811
 4193TIP3    H212537   1.262   4.595   6.725
 4194TIP3   OH212538   7.566   5.466   4.084
 4194TIP3    H112539   7.575   5.436   3.994
 4194TIP3    H212540   7.626   5.411   4.134
 4195TIP3   OH212541   0.045   3.815   5.683
 4195TIP3    H112542   0.076   3.729   5.653
 4195TIP3    H212543  -0.024   3.795   5.746
 4196TIP3   OH212544   2.058   5.424   4.557
 4196TIP3    H112545   1.990   5.378   4.508
 4196TIP3    H212546   2.056   5.513   4.522
 4197TIP3   OH212547   5.714   4.671   0.382
 4197TIP3    H112548   5.758   4.587   0.397
 4197TIP3    H212549   5.781   4.736   0.401
 4198TIP3   OH212550   6.773   4.078   4.582
 4198TIP3    H112551   6.678   4.076   4.587
 4198TIP3    H212552   6.799   3.986   4.580
 4199TIP3   OH212553   0.575   4.046   2.356
 4199TIP3    H112554   0.552   4.072   2.267
 4199TIP3    H212555   0.516   3.973   2.376
 4200TIP3   OH212556   0.366   0.149   4.999
 4200TIP3    H112557   0.289   0.091   5.002
 4200TIP3    H212558   0.382   0.172   5.091
 4201TIP3   OH212559   4.794   0.446   3.119
 4201TIP3    H112560   4.854   0.520   3.128
 4201TIP3    H212561   4.733   0.472   3.050
 4202TIP3   OH212562   1.445   4.317   5.383
 4202TIP3    H112563   1.470   4.403   5.348
 4202TIP3    H212564   1.453   4.327   5.478
 4203TIP3   OH212565   4.935   3.785   6.617
 4203TIP3    H112566   5.031   3.790   6.616
 4203TIP3    H212567   4.908   3.851   6.680
 4204TIP3   OH212568   5.692   6.759   0.208
 4204TIP3    H112569   5.602   6.787   0.228
 4204TIP3    H212570   5.685   6.665   0.194
 4205TIP3   OH212571   0.855   2.274   6.573
 4205TIP3    H112572   0.785   2.334   6.548
 4205TIP3    H212573   0.832   2.191   6.533
 4206TIP3   OH212574   6.038   7.350   0.051
 4206TIP3    H112575   5.977   7.395   0.108
 4206TIP3    H212576   5.983   7.309  -0.016
 4207TIP3   OH212577   4.608   6.051   6.597
 4207TIP3    H112578   4.633   5.997   6.672
 4207TIP3    H212579   4.582   6.135   6.636
 4208TIP3   OH212580   8.165   1.906   0.512
 4208TIP3    H112581   8.128   1.847   0.447
 4208TIP3    H212582   8.257   1.881   0.518
 4209TIP3   OH212583   2.870   0.393   4.102
 4209TIP3    H112584   2.850   0.318   4.046
 4209TIP3    H212585   2.935   0.360   4.164
 4210TIP3   OH212586   1.622   0.197   1.907
 4210TIP3    H112587   1.690   0.154   1.959
 4210TIP3    H212588   1.615   0.143   1.828
 4211TIP3   OH212589   3.537   7.460   0.602
 4211TIP3    H112590   3.545   7.445   0.696
 4211TIP3    H212591   3.448   7.493   0.590
 4212TIP3   OH212592   8.215   5.151   3.847
 4212TIP3    H112593   8.197   5.078   3.787
 4212TIP3    H212594   8.233   5.108   3.931
 4213TIP3   OH212595   5.314   4.328   3.556
 4213TIP3    H112596   5.318   4.358   3.465
 4213TIP3    H212597   5.405   4.331   3.586
 4214TIP3   OH212598   3.908   7.469   1.656
 4214TIP3    H112599   3.992   7.430   1.681
 4214TIP3    H212600   3.903   7.549   1.709
 4215TIP3   OH212601   5.945   4.861   2.559
 4215TIP3    H112602   5.849   4.866   2.553
 4215TIP3    H212603   5.975   4.911   2.483
 4216TIP3   OH212604   0.746   3.444   4.896
 4216TIP3    H112605   0.811   3.385   4.934
 4216TIP3    H212606   0.697   3.477   4.971
 4217TIP3   OH212607   4.525   4.446   0.843
 4217TIP3    H112608   4.592   4.441   0.911
 4217TIP3    H212609   4.548   4.377   0.781
 4218TIP3   OH212610   7.253   4.309   2.833
 4218TIP3    H112611   7.247   4.369   2.907
 4218TIP3    H212612   7.183   4.245   2.849
 4219TIP3   OH212613   2.213   3.705   6.690
 4219TIP3    H112614   2.122   3.730   6.708
 4219TIP3    H212615   2.265   3.757   6.751
 4220TIP3   OH212616   7.772   3.144   4.538
 4220TIP3    H112617   7.857   3.154   4.496
 4220TIP3    H212618   7.743   3.233   4.557
 4221TIP3   OH212619   3.925   4.892   3.770
 4221TIP3    H112620   3.903   4.872   3.861
 4221TIP3    H212621   3.845   4.873   3.721
 4222TIP3   OH212622   4.907   4.965   1.650
 4222TIP3    H112623   4.932   5.051   1.617
 4222TIP3    H212624   4.971   4.945   1.718
 4223TIP3   OH212625   1.476   7.195   5.106
 4223TIP3    H112626   1.512   7.159   5.187
 4223TIP3    H212627   1.392   7.232   5.131
 4224TIP3   OH212628   3.121   7.274   1.560
 4224TIP3    H112629   3.189   7.280   1.627
 4224TIP3    H212630   3.039   7.262   1.609
 4225TIP3   OH212631   4.253   2.577   1.614
 4225TIP3    H112632   4.307   2.644   1.572
 4225TIP3    H212633   4.163   2.607   1.600
 4226TIP3   OH212634   2.484   1.565   6.458
 4226TIP3    H112635   2.540   1.627   6.505
 4226TIP3    H212636   2.456   1.611   6.380
 4227TIP3   OH212637   7.439   0.580   5.443
 4227TIP3    H112638   7.501   0.616   5.507
 4227TIP3    H212639   7.494   0.531   5.382
 4228TIP3   OH212640   5.432   7.148   1.288
 4228TIP3    H112641   5.374   7.223   1.281
 4228TIP3    H212642   5.374   7.075   1.308
 4229TIP3   OH212643   0.694   6.486   0.792
 4229TIP3    H112644   0.758   6.429   0.834
 4229TIP3    H212645   0.646   6.526   0.864
 4230TIP3   OH212646   2.551   3.120   3.717
 4230TIP3    H112647   2.542   3.206   3.757
 4230TIP3    H212648   2.503   3.126   3.635
 4231TIP3   OH212649   3.950   7.193   0.814
 4231TIP3    H112650   3.900   7.206   0.733
 4231TIP3    H212651   3.909   7.118   0.856
 4232TIP3   OH212652   4.896   7.086   0.272
 4232TIP3    H112653   4.804   7.070   0.250
 4232TIP3    H212654   4.908   7.180   0.258
 4233TIP3   OH212655   5.571   4.234   1.056
 4233TIP3    H112656   5.477   4.225   1.039
 4233TIP3    H212657   5.590   4.168   1.123
 4234TIP3   OH212658   0.067   4.418   3.954
 4234TIP3    H112659   0.118   4.338   3.968
 4234TIP3    H212660   0.007   4.396   3.882
 4235TIP3   OH212661   1.560   7.727   3.039
 4235TIP3    H112662   1.558   7.704   2.946
 4235TIP3    H212663   1.611   7.657   3.079
 4236TIP3   OH212664   6.348   2.954   2.780
 4236TIP3    H112665   6.394   2.970   2.697
 4236TIP3    H212666   6.362   2.860   2.797
 4237TIP3   OH212667   1.183   1.780   5.360
 4237TIP3    H112668   1.156   1.710   5.420
 4237TIP3    H212669   1.173   1.741   5.273
 4238TIP3   OH212670   2.206   2.752   1.174
 4238TIP3    H112671   2.165   2.813   1.235
 4238TIP3    H212672   2.147   2.677   1.171
 4239TIP3   OH212673   7.120   5.111   2.145
 4239TIP3    H112674   7.028   5.129   2.126
 4239TIP3    H212675   7.140   5.031   2.097
 4240TIP3   OH212676   3.756   7.265   2.825
 4240TIP3    H112677   3.763   7.314   2.743
 4240TIP3    H212678   3.663   7.244   2.832
 4241TIP3   OH212679   2.962   7.003   3.993
 4241TIP3    H112680   2.903   6.929   4.004
 4241TIP3    H212681   2.910   7.079   4.016
 4242TIP3   OH212682   7.659   2.867   1.277
 4242TIP3    H112683   7.666   2.798   1.343
 4242TIP3    H212684   7.706   2.833   1.201
 4243TIP3   OH212685   0.599   5.751   6.772
 4243TIP3    H112686   0.672   5.773   6.830
 4243TIP3    H212687   0.640   5.723   6.690
 4244TIP3   OH212688   2.446   0.848   4.938
 4244TIP3    H112689   2.493   0.893   4.868
 4244TIP3    H212690   2.463   0.901   5.016
 4245TIP3   OH212691   6.771   0.598   1.366
 4245TIP3    H112692   6.802   0.687   1.352
 4245TIP3    H212693   6.695   0.590   1.309
 4246TIP3   OH212694   6.771   5.127   5.923
 4246TIP3    H112695   6.694   5.071   5.938
 4246TIP3    H212696   6.756   5.204   5.977
 4247TIP3   OH212697   2.046   6.917   1.645
 4247TIP3    H112698   2.029   6.930   1.738
 4247TIP3    H212699   2.078   6.827   1.639
 4248TIP3   OH212700   1.817   1.646   2.052
 4248TIP3    H112701   1.873   1.624   2.126
 4248TIP3    H212702   1.747   1.580   2.056
 4249TIP3   OH212703   6.653   4.185   0.162
 4249TIP3    H112704   6.588   4.117   0.148
 4249TIP3    H212705   6.730   4.139   0.197
 4250TIP3   OH212706   6.359   1.034   0.418
 4250TIP3    H112707   6.283   1.091   0.430
 4250TIP3    H212708   6.322   0.945   0.423
 4251TIP3   OH212709   3.207   0.897   1.165
 4251TIP3    H112710   3.216   0.821   1.223
 4251TIP3    H212711   3.215   0.972   1.223
 4252TIP3   OH212712   2.055   0.961   4.065
 4252TIP3    H112713   2.002   1.031   4.102
 4252TIP3    H212714   2.041   0.967   3.970
 4253TIP3   OH212715   0.326   3.570   4.741
 4253TIP3    H112716   0.284   3.509   4.801
 4253TIP3    H212717   0.410   3.590   4.782
 4254TIP3   OH212718   7.721   3.414   4.572
 4254TIP3    H112719   7.781   3.477   4.533
 4254TIP3    H212720   7.675   3.464   4.640
 4255TIP3   OH212721   4.437   7.556   2.319
 4255TIP3    H112722   4.504   7.510   2.370
 4255TIP3    H212723   4.355   7.514   2.345
 4256TIP3   OH212724   2.962   3.464   1.863
 4256TIP3    H112725   2.950   3.558   1.880
 4256TIP3    H212726   3.053   3.457   1.833
 4257TIP3   OH212727   5.358   7.776   1.327
 4257TIP3    H112728   5.316   7.794   1.411
 4257TIP3    H212729   5.310   7.701   1.292
 4258TIP3   OH212730   5.519   7.643   4.435
 4258TIP3    H112731   5.568   7.561   4.442
 4258TIP3    H212732   5.429   7.616   4.417
 4259TIP3   OH212733   3.303   5.686   2.584
 4259TIP3    H112734   3.314   5.692   2.489
 4259TIP3    H212735   3.375   5.739   2.620
 4260TIP3   OH212736   2.239   6.518   2.715
 4260TIP3    H112737   2.303   6.478   2.657
 4260TIP3    H212738   2.166   6.542   2.659
 4261TIP3   OH212739   5.255   5.899   5.960
 4261TIP3    H112740   5.163   5.877   5.980
 4261TIP3    H212741   5.305   5.831   6.005
 4262TIP3   OH212742   7.435   0.455   4.849
 4262TIP3    H112743   7.510   0.475   4.904
 4262TIP3    H212744   7.461   0.377   4.801
 4263TIP3   OH212745   2.105   1.107   3.525
 4263TIP3    H112746   2.067   1.157   3.453
 4263TIP3    H212747   2.139   1.028   3.484
 4264TIP3   OH212748   6.691   2.516   0.301
 4264TIP3    H112749   6.668   2.537   0.391
 4264TIP3    H212750   6.626   2.562   0.248
 4265TIP3   OH212751   2.617   4.419   1.724
 4265TIP3    H112752   2.625   4.412   1.629
 4265TIP3    H212753   2.561   4.495   1.738
 4266TIP3   OH212754   5.711   5.703   4.854
 4266TIP3    H112755   5.670   5.786   4.830
 4266TIP3    H212756   5.795   5.728   4.892
 4267TIP3   OH212757   7.622   2.144   5.397
 4267TIP3    H112758   7.659   2.149   5.485
 4267TIP3    H212759   7.573   2.225   5.387
 4268TIP3   OH212760   1.998   0.307   2.589
 4268TIP3    H112761   1.974   0.377   2.649
 4268TIP3    H212762   1.914   0.271   2.559
 4269TIP3   OH212763   4.199   3.244   3.990
 4269TIP3    H112764   4.238   3.310   4.047
 4269TIP3    H212765   4.118   3.285   3.959
 4270TIP3   OH212766   8.069   6.374   6.488
 4270TIP3    H112767   7.986   6.342   6.455
 4270TIP3    H212768   8.124   6.297   6.496
 4271TIP3   OH212769   6.160   7.185   1.059
 4271TIP3    H112770   6.161   7.090   1.049
 4271TIP3    H212771   6.236   7.216   1.010
 4272TIP3   OH212772   5.943   0.285   4.832
 4272TIP3    H112773   6.032   0.306   4.801
 4272TIP3    H212774   5.944   0.309   4.924
 4273TIP3   OH212775   2.604   6.062   3.867
 4273TIP3    H112776   2.663   6.000   3.908
 4273TIP3    H212777   2.576   6.120   3.938
 4274TIP3   OH212778   3.380   4.071   6.398
 4274TIP3    H112779   3.460   4.074   6.450
 4274TIP3    H212780   3.378   4.155   6.352
 4275TIP3   OH212781   3.689   0.886   6.690
 4275TIP3    H112782   3.703   0.939   6.612
 4275TIP3    H212783   3.668   0.799   6.656
 4276TIP3   OH212784   7.836   4.076   1.742
 4276TIP3    H112785   7.757   4.112   1.783
 4276TIP3    H212786   7.804   4.026   1.667
 4277TIP3   OH212787   3.253   3.899   3.200
 4277TIP3    H112788   3.271   3.834   3.133
 4277TIP3    H212789   3.325   3.962   3.192
 4278TIP3   OH212790   6.670   7.339   0.200
 4278TIP3    H112791   6.731   7.352   0.273
 4278TIP3    H212792   6.610   7.413   0.206
 4279TIP3   OH212793   3.666   0.683   4.757
 4279TIP3    H112794   3.618   0.752   4.712
 4279TIP3    H212795   3.707   0.727   4.832
 4280TIP3   OH212796   4.647   7.450   3.300
 4280TIP3    H112797   4.667   7.464   3.208
 4280TIP3    H212798   4.599   7.367   3.302
 4281TIP3   OH212799   4.917   7.681   0.629
 4281TIP3    H112800   4.907   7.668   0.724
 4281TIP3    H212801   4.996   7.633   0.607
 4282TIP3   OH212802   8.032   7.608   0.140
 4282TIP3    H112803   8.108   7.551   0.152
 4282TIP3    H212804   8.056   7.689   0.185
 4283TIP3   OH212805   5.214   5.357   3.071
 4283TIP3    H112806   5.234   5.266   3.049
 4283TIP3    H212807   5.282   5.409   3.028
 4284TIP3   OH212808   2.843   2.087   3.387
 4284TIP3    H112809   2.771   2.027   3.365
 4284TIP3    H212810   2.918   2.053   3.338
 4285TIP3   OH212811   5.923   4.842   1.574
 4285TIP3    H112812   5.980   4.912   1.606
 4285TIP3    H212813   5.966   4.761   1.601
 4286TIP3   OH212814   1.841   4.822   2.202
 4286TIP3    H112815   1.867   4.896   2.257
 4286TIP3    H212816   1.841   4.747   2.260
 4287TIP3   OH212817   5.187   5.566   5.922
 4287TIP3    H112818   5.126   5.635   5.948
 4287TIP3    H212819   5.246   5.557   5.997
 4288TIP3   OH212820   4.099   3.236   5.795
 4288TIP3    H112821   4.175   3.293   5.800
 4288TIP3    H212822   4.034   3.277   5.852
 4289TIP3   OH212823   4.402   4.867   3.537
 4289TIP3    H112824   4.396   4.962   3.534
 4289TIP3    H212825   4.331   4.840   3.595
 4290TIP3   OH212826   0.967   4.251   0.433
 4290TIP3    H112827   1.048   4.259   0.483
 4290TIP3    H212828   0.912   4.193   0.485
 4291TIP3   OH212829   6.663   2.446   5.134
 4291TIP3    H112830   6.607   2.471   5.061
 4291TIP3    H212831   6.746   2.420   5.094
 4292TIP3   OH212832   6.789   1.846   3.644
 4292TIP3    H112833   6.724   1.895   3.594
 4292TIP3    H212834   6.864   1.837   3.585
 4293TIP3   OH212835   5.837   6.536   6.360
 4293TIP3    H112836   5.804   6.610   6.411
 4293TIP3    H212837   5.782   6.533   6.282
 4294TIP3   OH212838   1.701   7.452   0.515
 4294TIP3    H112839   1.611   7.417   0.513
 4294TIP3    H212840   1.724   7.453   0.607
 4295TIP3   OH212841   1.733   4.488   3.406
 4295TIP3    H112842   1.782   4.549   3.351
 4295TIP3    H212843   1.724   4.409   3.353
 4296TIP3   OH212844   3.335   7.407   4.242
 4296TIP3    H112845   3.278   7.355   4.186
 4296TIP3    H212846   3.329   7.496   4.207
 4297TIP3   OH212847   2.285   2.127   6.153
 4297TIP3    H112848   2.257   2.217   6.133
 4297TIP3    H212849   2.281   2.082   6.069
 4298TIP3   OH212850   0.945   1.485   5.757
 4298TIP3    H112851   0.903   1.508   5.840
 4298TIP3    H212852   0.970   1.393   5.768
 4299TIP3   OH212853   8.178   3.140   4.738
 4299TIP3    H112854   8.144   3.059   4.701
 4299TIP3    H212855   8.173   3.128   4.833
 4300TIP3   OH212856   7.533   4.475   5.843
 4300TIP3    H112857   7.485   4.445   5.920
 4300TIP3    H212858   7.622   4.441   5.855
 4301TIP3   OH212859   7.841   5.233   5.089
 4301TIP3    H112860   7.879   5.320   5.080
 4301TIP3    H212861   7.820   5.206   4.999
 4302TIP3   OH212862   4.158   2.087   4.669
 4302TIP3    H112863   4.226   2.126   4.724
 4302TIP3    H212864   4.102   2.161   4.644
 4303TIP3   OH212865   2.028   5.096   5.093
 4303TIP3    H112866   2.110   5.047   5.093
 4303TIP3    H212867   1.993   5.084   5.181
 4304TIP3   OH212868   0.030   7.583   1.184
 4304TIP3    H112869   0.060   7.597   1.095
 4304TIP3    H212870   0.045   7.490   1.200
 4305TIP3   OH212871   8.094   6.957   4.685
 4305TIP3    H112872   8.091   6.977   4.779
 4305TIP3    H212873   8.149   7.025   4.648
 4306TIP3   OH212874   6.474   0.989   4.052
 4306TIP3    H112875   6.400   0.951   4.099
 4306TIP3    H212876   6.550   0.973   4.109
 4307TIP3   OH212877   3.162   1.014   2.359
 4307TIP3    H112878   3.081   0.991   2.404
 4307TIP3    H212879   3.172   1.108   2.376
 4308TIP3   OH212880   1.824   0.267   0.192
 4308TIP3    H112881   1.842   0.182   0.231
 4308TIP3    H212882   1.736   0.257   0.154
 4309TIP3   OH212883   0.962   5.825   3.758
 4309TIP3    H112884   0.902   5.777   3.702
 4309TIP3    H212885   0.987   5.902   3.707
 4310TIP3   OH212886   5.189   7.305   0.353
 4310TIP3    H112887   5.236   7.234   0.310
 4310TIP3    H212888   5.258   7.359   0.392
 4311TIP3   OH212889   0.369   6.438   4.524
 4311TIP3    H112890   0.441   6.461   4.465
 4311TIP3    H212891   0.331   6.358   4.486
 4312TIP3   OH212892   6.869   3.824   5.191
 4312TIP3    H112893   6.886   3.737   5.153
 4312TIP3    H212894   6.956   3.857   5.214
 4313TIP3   OH212895   6.419   2.645   3.251
 4313TIP3    H112896   6.351   2.708   3.229
 4313TIP3    H212897   6.394   2.612   3.338
 4314TIP3   OH212898   6.618   3.182   4.589
 4314TIP3    H112899   6.686   3.149   4.530
 4314TIP3    H212900   6.641   3.273   4.605
 4315TIP3   OH212901   0.101   7.329   4.618
 4315TIP3    H112902   0.160   7.387   4.569
 4315TIP3    H212903   0.157   7.291   4.686
 4316TIP3   OH212904   3.363   5.816   3.847
 4316TIP3    H112905   3.448   5.859   3.856
 4316TIP3    H212906   3.371   5.736   3.898
 4317TIP3   OH212907   5.450   6.697   6.561
 4317TIP3    H112908   5.534   6.731   6.592
 4317TIP3    H212909   5.408   6.663   6.639
 4318TIP3   OH212910   8.089   3.472   1.099
 4318TIP3    H112911   8.132   3.395   1.136
 4318TIP3    H212912   7.999   3.467   1.132
 4319TIP3   OH212913   7.783   1.395   2.324
 4319TIP3    H112914   7.771   1.483   2.289
 4319TIP3    H212915   7.804   1.341   2.248
 4320TIP3   OH212916   1.504   3.503   3.580
 4320TIP3    H112917   1.422   3.523   3.624
 4320TIP3    H212918   1.565   3.570   3.611
 4321TIP3   OH212919   5.213   2.392   6.368
 4321TIP3    H112920   5.211   2.319   6.307
 4321TIP3    H212921   5.194   2.353   6.454
 4322TIP3   OH212922   5.254   7.399   1.368
 4322TIP3    H112923   5.252   7.451   1.288
 4322TIP3    H212924   5.169   7.354   1.370
 4323TIP3   OH212925   4.636   6.069   0.297
 4323TIP3    H112926   4.600   6.157   0.285
 4323TIP3    H212927   4.573   6.024   0.353
 4324TIP3   OH212928   3.120   6.890   1.037
 4324TIP3    H112929   3.034   6.912   1.074
 4324TIP3    H212930   3.170   6.971   1.043
 4325TIP3   OH212931   5.371   3.769   2.130
 4325TIP3    H112932   5.430   3.735   2.197
 4325TIP3    H212933   5.348   3.693   2.077
 4326TIP3   OH212934   2.969   1.365   4.520
 4326TIP3    H112935   3.022   1.322   4.587
 4326TIP3    H212936   2.890   1.312   4.514
 4327TIP3   OH212937   4.109   6.369   0.772
 4327TIP3    H112938   4.046   6.411   0.714
 4327TIP3    H212939   4.074   6.384   0.860
 4328TIP3   OH212940   1.904   7.247   0.916
 4328TIP3    H112941   1.857   7.188   0.974
 4328TIP3    H212942   1.897   7.333   0.958
 4329TIP3   OH212943   6.876   5.143   2.052
 4329TIP3    H112944   6.804   5.185   2.100
 4329TIP3    H212945   6.842   5.057   2.028
 4330TIP3   OH212946   5.759   3.201   0.785
 4330TIP3    H112947   5.807   3.279   0.813
 4330TIP3    H212948   5.688   3.193   0.850
 4331TIP3   OH212949   2.316   4.412   4.280
 4331TIP3    H112950   2.339   4.474   4.350
 4331TIP3    H212951   2.379   4.430   4.211
 4332TIP3   OH212952   3.724   4.032   0.735
 4332TIP3    H112953   3.742   4.039   0.641
 4332TIP3    H212954   3.770   4.106   0.775
 4333TIP3   OH212955   8.093   1.725   6.647
 4333TIP3    H112956   8.126   1.813   6.629
 4333TIP3    H212957   8.170   1.669   6.639
 4334TIP3   OH212958   2.425   2.090   4.645
 4334TIP3    H112959   2.373   2.113   4.568
 4334TIP3    H212960   2.458   2.173   4.677
 4335TIP3   OH212961   3.007   3.724   6.136
 4335TIP3    H112962   3.097   3.692   6.125
 4335TIP3    H212963   3.004   3.804   6.084
 4336TIP3   OH212964   6.667   6.075   3.606
 4336TIP3    H112965   6.670   5.998   3.663
 4336TIP3    H212966   6.757   6.088   3.578
 4337TIP3   OH212967   2.948   2.517   4.043
 4337TIP3    H112968   2.930   2.477   3.958
 4337TIP3    H212969   2.959   2.443   4.102
 4338TIP3   OH212970   0.338   2.697   1.778
 4338TIP3    H112971   0.423   2.725   1.742
 4338TIP3    H212972   0.308   2.771   1.830
 4339TIP3   OH212973   3.802   0.238   0.675
 4339TIP3    H112974   3.853   0.257   0.754
 4339TIP3    H212975   3.861   0.257   0.603
 4340TIP3   OH212976   2.140   2.734   1.788
 4340TIP3    H112977   2.188   2.756   1.709
 4340TIP3    H212978   2.207   2.709   1.851
 4341TIP3   OH212979   7.164   1.307   1.426
 4341TIP3    H112980   7.232   1.327   1.362
 4341TIP3    H212981   7.211   1.261   1.496
 4342TIP3   OH212982   4.839   7.321   4.304
 4342TIP3    H112983   4.859   7.229   4.324
 4342TIP3    H212984   4.743   7.325   4.305
 4343TIP3   OH212985   5.330   5.426   5.521
 4343TIP3    H112986   5.311   5.381   5.439
 4343TIP3    H212987   5.364   5.358   5.579
 4344TIP3   OH212988   0.113   5.729   4.556
 4344TIP3    H112989   0.083   5.771   4.475
 4344TIP3    H212990   0.045   5.664   4.575
 4345TIP3   OH212991   5.368   1.943   5.182
 4345TIP3    H112992   5.351   2.015   5.122
 4345TIP3    H212993   5.290   1.887   5.176
 4346TIP3   OH212994   6.168   6.570   4.405
 4346TIP3    H112995   6.098   6.624   4.443
 4346TIP3    H212996   6.247   6.623   4.415
 4347TIP3   OH212997   1.929   0.904   5.808
 4347TIP3    H112998   1.942   0.999   5.813
 4347TIP3    H212999   1.992   0.875   5.743
 4348TIP3   OH213000   1.563   0.026   1.693
 4348TIP3    H113001   1.530  -0.058   1.662
 4348TIP3    H213002   1.529   0.090   1.631
 4349TIP3   OH213003   0.654   6.545   0.515
 4349TIP3    H113004   0.562   6.540   0.542
 4349TIP3    H213005   0.702   6.516   0.593
 4350TIP3   OH213006   1.104   3.892   0.325
 4350TIP3    H113007   1.176   3.841   0.362
 4350TIP3    H213008   1.142   3.933   0.246
 4351TIP3   OH213009   0.770   2.777   6.115
 4351TIP3    H113010   0.723   2.750   6.193
 4351TIP3    H213011   0.860   2.792   6.144
 4352TIP3   OH213012   2.985   1.926   5.235
 4352TIP3    H113013   2.945   2.000   5.281
 4352TIP3    H213014   3.079   1.941   5.242
 4353TIP3   OH213015   1.890   3.653   5.349
 4353TIP3    H113016   1.948   3.677   5.421
 4353TIP3    H213017   1.870   3.736   5.306
 4354TIP3   OH213018   2.423   1.432   3.539
 4354TIP3    H113019   2.407   1.452   3.446
 4354TIP3    H213020   2.336   1.429   3.578
 4355TIP3   OH213021   7.008   7.147   5.503
 4355TIP3    H113022   7.021   7.052   5.493
 4355TIP3    H213023   7.063   7.170   5.578
 4356TIP3   OH213024   4.218   6.473   5.798
 4356TIP3    H113025   4.291   6.420   5.829
 4356TIP3    H213026   4.230   6.478   5.704
 4357TIP3   OH213027   0.203   6.245   2.294
 4357TIP3    H113028   0.212   6.338   2.316
 4357TIP3    H213029   0.119   6.238   2.250
 4358TIP3   OH213030   2.880   3.627   0.541
 4358TIP3    H113031   2.959   3.580   0.515
 4358TIP3    H213032   2.830   3.563   0.592
 4359TIP3   OH213033   5.913   3.296   3.947
 4359TIP3    H113034   5.837   3.346   3.918
 4359TIP3    H213035   5.917   3.312   4.041
 4360TIP3   OH213036   4.186   4.213   2.648
 4360TIP3    H113037   4.251   4.227   2.716
 4360TIP3    H213038   4.115   4.166   2.692
 4361TIP3   OH213039   6.011   7.344   1.577
 4361TIP3    H113040   5.983   7.306   1.660
 4361TIP3    H213041   6.069   7.279   1.539
 4362TIP3   OH213042   4.250   2.722   2.275
 4362TIP3    H113043   4.261   2.705   2.182
 4362TIP3    H213044   4.156   2.712   2.290
 4363TIP3   OH213045   6.035   4.879   3.031
 4363TIP3    H113046   6.037   4.792   2.992
 4363TIP3    H213047   6.120   4.886   3.077
 4364TIP3   OH213048   1.566   6.883   5.722
 4364TIP3    H113049   1.596   6.973   5.735
 4364TIP3    H213050   1.492   6.891   5.661
 4365TIP3   OH213051   5.892   7.141   3.593
 4365TIP3    H113052   5.901   7.123   3.500
 4365TIP3    H213053   5.800   7.127   3.612
 4366TIP3   OH213054   3.822   7.748   0.539
 4366TIP3    H113055   3.843   7.697   0.618
 4366TIP3    H213056   3.768   7.689   0.486
 4367TIP3   OH213057   3.571   6.404   2.952
 4367TIP3    H113058   3.600   6.475   2.895
 4367TIP3    H213059   3.578   6.439   3.040
 4368TIP3   OH213060   2.728   0.931   2.117
 4368TIP3    H113061   2.821   0.955   2.123
 4368TIP3    H213062   2.682   1.006   2.156
 4369TIP3   OH213063   4.286   3.202   0.647
 4369TIP3    H113064   4.368   3.229   0.688
 4369TIP3    H213065   4.287   3.106   0.651
 4370TIP3   OH213066   2.064   1.668   6.283
 4370TIP3    H113067   1.971   1.647   6.272
 4370TIP3    H213068   2.065   1.731   6.355
 4371TIP3   OH213069   0.786   4.251   4.057
 4371TIP3    H113070   0.753   4.338   4.079
 4371TIP3    H213071   0.881   4.261   4.054
 4372TIP3   OH213072   8.071   5.019   1.826
 4372TIP3    H113073   8.160   4.987   1.843
 4372TIP3    H213074   8.042   5.055   1.910
 4373TIP3   OH213075   2.803   6.719   3.344
 4373TIP3    H113076   2.747   6.645   3.366
 4373TIP3    H213077   2.762   6.757   3.266
 4374TIP3   OH213078   1.177   7.567   3.834
 4374TIP3    H113079   1.088   7.553   3.802
 4374TIP3    H213080   1.212   7.637   3.779
 4375TIP3   OH213081   0.818   1.276   4.795
 4375TIP3    H113082   0.764   1.211   4.751
 4375TIP3    H213083   0.774   1.290   4.879
 4376TIP3   OH213084   5.924   6.632   5.284
 4376TIP3    H113085   5.968   6.563   5.234
 4376TIP3    H213086   5.905   6.700   5.219
 4377TIP3   OH213087   0.253   6.114   3.712
 4377TIP3    H113088   0.220   6.080   3.628
 4377TIP3    H213089   0.330   6.165   3.688
 4378TIP3   OH213090   5.458   5.063   3.395
 4378TIP3    H113091   5.399   4.989   3.404
 4378TIP3    H213092   5.410   5.127   3.343
 4379TIP3   OH213093   1.594   2.418   0.249
 4379TIP3    H113094   1.505   2.440   0.221
 4379TIP3    H213095   1.584   2.334   0.294
 4380TIP3   OH213096   3.267   1.992   5.378
 4380TIP3    H113097   3.296   1.935   5.307
 4380TIP3    H213098   3.339   1.989   5.442
 4381TIP3   OH213099   2.106   3.310   4.872
 4381TIP3    H113100   2.143   3.250   4.937
 4381TIP3    H213101   2.178   3.369   4.850
 4382TIP3   OH213102   6.708   2.888   1.044
 4382TIP3    H113103   6.671   2.972   1.018
 4382TIP3    H213104   6.784   2.877   0.986
 4383TIP3   OH213105   1.121   2.907   6.187
 4383TIP3    H113106   1.196   2.942   6.235
 4383TIP3    H213107   1.047   2.919   6.247
 4384TIP3   OH213108   4.608   0.213   6.652
 4384TIP3    H113109   4.641   0.164   6.728
 4384TIP3    H213110   4.685   0.261   6.620
 4385TIP3   OH213111   2.885   6.693   0.767
 4385TIP3    H113112   2.833   6.760   0.812
 4385TIP3    H213113   2.902   6.627   0.835
 4386TIP3   OH213114   5.962   7.503   3.167
 4386TIP3    H113115   6.043   7.463   3.134
 4386TIP3    H213116   5.992   7.562   3.236
 4387TIP3   OH213117   2.517   7.223   1.399
 4387TIP3    H113118   2.559   7.267   1.473
 4387TIP3    H213119   2.440   7.278   1.380
 4388TIP3   OH213120   2.982   7.773   2.920
 4388TIP3    H113121   3.065   7.794   2.877
 4388TIP3    H213122   2.952   7.694   2.875
 4389TIP3   OH213123   1.639   0.548   4.583
 4389TIP3    H113124   1.639   0.468   4.635
 4389TIP3    H213125   1.722   0.546   4.535
 4390TIP3   OH213126   1.645   4.842   1.985
 4390TIP3    H113127   1.606   4.827   2.071
 4390TIP3    H213128   1.736   4.816   1.995
 4391TIP3   OH213129   2.928   0.069   2.840
 4391TIP3    H113130   2.986   0.142   2.859
 4391TIP3    H213131   2.890   0.090   2.755
 4392TIP3   OH213132   1.649   0.255   4.685
 4392TIP3    H113133   1.741   0.281   4.692
 4392TIP3    H213134   1.641   0.180   4.743
 4393TIP3   OH213135   2.496   5.201   6.402
 4393TIP3    H113136   2.475   5.167   6.490
 4393TIP3    H213137   2.501   5.295   6.413
 4394TIP3   OH213138   7.096   2.516   4.133
 4394TIP3    H113139   7.154   2.440   4.130
 4394TIP3    H213140   7.027   2.492   4.195
 4395TIP3   OH213141   2.350   4.327   1.275
 4395TIP3    H113142   2.419   4.289   1.220
 4395TIP3    H213143   2.376   4.305   1.364
 4396TIP3   OH213144   5.876   4.272   2.134
 4396TIP3    H113145   5.947   4.315   2.088
 4396TIP3    H213146   5.796   4.309   2.097
 4397TIP3   OH213147   6.744   4.318   0.950
 4397TIP3    H113148   6.756   4.381   0.878
 4397TIP3    H213149   6.832   4.300   0.982
 4398TIP3   OH213150   7.795   4.239   6.430
 4398TIP3    H113151   7.784   4.323   6.386
 4398TIP3    H213152   7.706   4.209   6.448
 4399TIP3   OH213153   1.874   1.196   5.929
 4399TIP3    H113154   1.939   1.218   5.995
 4399TIP3    H213155   1.916   1.218   5.846
 4400TIP3   OH213156   3.437   7.790   1.105
 4400TIP3    H113157   3.402   7.723   1.047
 4400TIP3    H213158   3.491   7.742   1.168
 4401TIP3   OH213159   8.030   2.828   2.571
 4401TIP3    H113160   8.023   2.821   2.476
 4401TIP3    H213161   8.105   2.884   2.586
 4402TIP3   OH213162   7.785   1.557   4.743
 4402TIP3    H113163   7.778   1.466   4.715
 4402TIP3    H213164   7.709   1.571   4.800
 4403TIP3   OH213165   2.385   0.812   1.848
 4403TIP3    H113166   2.378   0.725   1.809
 4403TIP3    H213167   2.297   0.847   1.844
 4404TIP3   OH213168   2.318   4.217   2.563
 4404TIP3    H113169   2.321   4.211   2.659
 4404TIP3    H213170   2.347   4.130   2.533
 4405TIP3   OH213171   2.905   0.999   1.470
 4405TIP3    H113172   2.847   0.951   1.412
 4405TIP3    H213173   2.919   0.940   1.544
 4406TIP3   OH213174   3.616   4.841   4.136
 4406TIP3    H113175   3.692   4.891   4.165
 4406TIP3    H213176   3.542   4.899   4.150
 4407TIP3   OH213177   0.401   5.511   1.198
 4407TIP3    H113178   0.453   5.578   1.153
 4407TIP3    H213179   0.466   5.462   1.249
 4408TIP3   OH213180   6.197   1.809   5.526
 4408TIP3    H113181   6.168   1.896   5.498
 4408TIP3    H213182   6.210   1.761   5.445
 4409TIP3   OH213183   1.978   5.026   1.509
 4409TIP3    H113184   1.920   5.041   1.434
 4409TIP3    H213185   1.957   5.098   1.570
 4410TIP3   OH213186   5.415   5.302   2.110
 4410TIP3    H113187   5.490   5.251   2.141
 4410TIP3    H213188   5.354   5.236   2.075
 4411TIP3   OH213189   5.335   5.315   5.269
 4411TIP3    H113190   5.289   5.286   5.190
 4411TIP3    H213191   5.427   5.311   5.245
 4412TIP3   OH213192   4.746   7.243   1.361
 4412TIP3    H113193   4.756   7.321   1.307
 4412TIP3    H213194   4.831   7.232   1.403
 4413TIP3   OH213195   2.148   2.667   6.717
 4413TIP3    H113196   2.242   2.685   6.713
 4413TIP3    H213197   2.110   2.748   6.751
 4414TIP3   OH213198   5.818   2.903   4.316
 4414TIP3    H113199   5.870   2.833   4.354
 4414TIP3    H213200   5.871   2.936   4.244
 4415TIP3   OH213201   2.935   0.048   2.539
 4415TIP3    H113202   3.001  -0.021   2.537
 4415TIP3    H213203   2.984   0.129   2.524
 4416TIP3   OH213204   0.663   2.626   0.895
 4416TIP3    H113205   0.600   2.694   0.918
 4416TIP3    H213206   0.742   2.674   0.869
 4417TIP3   OH213207   5.081   4.615   2.203
 4417TIP3    H113208   5.057   4.532   2.162
 4417TIP3    H213209   5.175   4.608   2.219
 4418TIP3   OH213210   3.116   4.886   1.019
 4418TIP3    H113211   3.155   4.929   0.943
 4418TIP3    H213212   3.173   4.909   1.092
 4419TIP3   OH213213   8.258   7.154   5.207
 4419TIP3    H113214   8.243   7.067   5.244
 4419TIP3    H213215   8.310   7.138   5.129
 4420TIP3   OH213216   0.745   4.750   4.014
 4420TIP3    H113217   0.836   4.725   4.026
 4420TIP3    H213218   0.740   4.840   4.046
 4421TIP3   OH213219   7.136   5.650   6.561
 4421TIP3    H113220   7.216   5.702   6.545
 4421TIP3    H213221   7.071   5.715   6.588
 4422TIP3   OH213222   3.347   4.114   1.004
 4422TIP3    H113223   3.360   4.131   0.911
 4422TIP3    H213224   3.252   4.103   1.013
 4423TIP3   OH213225   6.073   7.181   4.685
 4423TIP3    H113226   6.043   7.092   4.667
 4423TIP3    H213227   5.995   7.235   4.671
 4424TIP3   OH213228   4.211   1.314   4.307
 4424TIP3    H113229   4.200   1.407   4.290
 4424TIP3    H213230   4.306   1.300   4.304
 4425TIP3   OH213231   1.622   0.272   2.990
 4425TIP3    H113232   1.592   0.360   2.968
 4425TIP3    H213233   1.691   0.286   3.055
 4426TIP3   OH213234   7.391   6.486   3.093
 4426TIP3    H113235   7.387   6.477   3.188
 4426TIP3    H213236   7.327   6.554   3.072
 4427TIP3   OH213237   7.023   6.656   4.238
 4427TIP3    H113238   7.009   6.567   4.204
 4427TIP3    H213239   6.945   6.674   4.290
 4428TIP3   OH213240   3.681   2.043   3.992
 4428TIP3    H113241   3.742   2.099   3.944
 4428TIP3    H213242   3.596   2.086   3.979
 4429TIP3   OH213243   1.242   4.961   3.928
 4429TIP3    H113244   1.154   4.928   3.912
 4429TIP3    H213245   1.273   4.909   4.003
 4430TIP3   OH213246   2.404   0.901   2.817
 4430TIP3    H113247   2.382   0.808   2.816
 4430TIP3    H213248   2.363   0.934   2.897
 4431TIP3   OH213249   2.796   6.829   1.450
 4431TIP3    H113250   2.764   6.748   1.490
 4431TIP3    H213251   2.719   6.885   1.445
 4432TIP3   OH213252   6.048   5.208   2.222
 4432TIP3    H113253   6.000   5.236   2.144
 4432TIP3    H213254   5.990   5.144   2.264
 4433TIP3   OH213255   3.804   4.915   4.350
 4433TIP3    H113256   3.723   4.870   4.372
 4433TIP3    H213257   3.866   4.845   4.329
 4434TIP3   OH213258   6.064   1.208   2.222
 4434TIP3    H113259   6.046   1.139   2.286
 4434TIP3    H213260   6.144   1.181   2.179
 4435TIP3   OH213261   3.708   5.058   4.958
 4435TIP3    H113262   3.757   4.999   4.901
 4435TIP3    H213263   3.702   5.140   4.909
 4436TIP3   OH213264   2.686   7.677   5.094
 4436TIP3    H113265   2.678   7.633   5.009
 4436TIP3    H213266   2.776   7.709   5.096
 4437TIP3   OH213267   8.239   3.058   0.381
 4437TIP3    H113268   8.239   3.099   0.467
 4437TIP3    H213269   8.175   3.107   0.330
 4438TIP3   OH213270   1.773   2.328   4.085
 4438TIP3    H113271   1.744   2.311   4.174
 4438TIP3    H213272   1.826   2.408   4.093
 4439TIP3   OH213273   0.851   6.975   3.641
 4439TIP3    H113274   0.833   7.055   3.690
 4439TIP3    H213275   0.796   6.909   3.682
 4440TIP3   OH213276   5.203   3.472   4.301
 4440TIP3    H113277   5.148   3.474   4.380
 4440TIP3    H213278   5.274   3.533   4.321
 4441TIP3   OH213279   5.135   4.545   2.471
 4441TIP3    H113280   5.062   4.563   2.531
 4441TIP3    H213281   5.110   4.589   2.390
 4442TIP3   OH213282   3.873   4.588   2.322
 4442TIP3    H113283   3.804   4.652   2.337
 4442TIP3    H213284   3.934   4.602   2.395
 4443TIP3   OH213285   1.242   3.131   4.711
 4443TIP3    H113286   1.259   3.212   4.663
 4443TIP3    H213287   1.146   3.124   4.714
 4444TIP3   OH213288   0.365   2.864   2.415
 4444TIP3    H113289   0.280   2.907   2.406
 4444TIP3    H213290   0.414   2.893   2.338
 4445TIP3   OH213291   7.044   2.454   5.432
 4445TIP3    H113292   7.072   2.421   5.517
 4445TIP3    H213293   7.002   2.379   5.390
 4446TIP3   OH213294   4.943   7.151   1.781
 4446TIP3    H113295   4.940   7.109   1.695
 4446TIP3    H213296   4.956   7.244   1.762
 4447TIP3   OH213297   0.628   3.439   4.161
 4447TIP3    H113298   0.594   3.354   4.131
 4447TIP3    H213299   0.679   3.418   4.239
 4448TIP3   OH213300   8.274   0.462   1.859
 4448TIP3    H113301   8.303   0.550   1.837
 4448TIP3    H213302   8.291   0.454   1.953
 4449TIP3   OH213303   4.792   0.540   4.372
 4449TIP3    H113304   4.766   0.484   4.446
 4449TIP3    H213305   4.884   0.561   4.389
 4450TIP3   OH213306   3.088   7.205   4.896
 4450TIP3    H113307   3.175   7.217   4.935
 4450TIP3    H213308   3.046   7.290   4.903
 4451TIP3   OH213309   6.826   5.365   6.068
 4451TIP3    H113310   6.916   5.351   6.100
 4451TIP3    H213311   6.776   5.385   6.147
 4452TIP3   OH213312   3.922   6.396   1.030
 4452TIP3    H113313   3.846   6.410   0.973
 4452TIP3    H213314   3.892   6.332   1.094
 4453TIP3   OH213315   3.457   3.088   2.998
 4453TIP3    H113316   3.418   3.041   2.926
 4453TIP3    H213317   3.551   3.072   2.990
 4454TIP3   OH213318   0.521   2.457   0.681
 4454TIP3    H113319   0.524   2.546   0.645
 4454TIP3    H213320   0.506   2.471   0.775
 4455TIP3   OH213321   6.541   6.988   2.877
 4455TIP3    H113322   6.479   6.931   2.832
 4455TIP3    H213323   6.616   6.931   2.895
 4456TIP3   OH213324   3.361   2.667   1.387
 4456TIP3    H113325   3.416   2.600   1.429
 4456TIP3    H213326   3.326   2.719   1.459
 4457TIP3   OH213327   2.346   0.265   3.672
 4457TIP3    H113328   2.268   0.249   3.619
 4457TIP3    H213329   2.316   0.319   3.745
 4458TIP3   OH213330   8.143   2.925   3.810
 4458TIP3    H113331   8.215   2.893   3.864
 4458TIP3    H213332   8.183   2.943   3.724
 4459TIP3   OH213333   2.087   6.879   1.925
 4459TIP3    H113334   2.175   6.845   1.911
 4459TIP3    H213335   2.033   6.802   1.941
 4460TIP3   OH213336   2.403   0.956   5.831
 4460TIP3    H113337   2.346   0.926   5.760
 4460TIP3    H213338   2.383   1.049   5.839
 4461TIP3   OH213339   7.037   4.390   1.043
 4461TIP3    H113340   7.083   4.368   1.124
 4461TIP3    H213341   7.007   4.480   1.057
 4462TIP3   OH213342   4.879   3.741   6.291
 4462TIP3    H113343   4.960   3.718   6.335
 4462TIP3    H213344   4.857   3.828   6.325
 4463TIP3   OH213345   4.558   1.110   2.671
 4463TIP3    H113346   4.587   1.020   2.686
 4463TIP3    H213347   4.639   1.162   2.673
 4464TIP3   OH213348   1.203   4.280   3.395
 4464TIP3    H113349   1.159   4.295   3.311
 4464TIP3    H213350   1.296   4.284   3.374
 4465TIP3   OH213351   2.062   4.320   3.904
 4465TIP3    H113352   2.064   4.327   3.808
 4465TIP3    H213353   2.062   4.411   3.935
 4466TIP3   OH213354   3.690   0.193   2.629
 4466TIP3    H113355   3.649   0.206   2.543
 4466TIP3    H213356   3.759   0.259   2.633
 4467TIP3   OH213357   7.098   0.278   5.766
 4467TIP3    H113358   7.004   0.261   5.764
 4467TIP3    H213359   7.107   0.366   5.802
 4468TIP3   OH213360   7.188   1.066   3.021
 4468TIP3    H113361   7.174   1.160   3.021
 4468TIP3    H213362   7.243   1.049   3.097
 4469TIP3   OH213363   0.747   1.500   3.827
 4469TIP3    H113364   0.666   1.451   3.825
 4469TIP3    H213365   0.816   1.435   3.815
 4470TIP3   OH213366   4.535   7.508   0.696
 4470TIP3    H113367   4.511   7.420   0.724
 4470TIP3    H213368   4.565   7.497   0.606
 4471TIP3   OH213369   7.263   2.185   2.235
 4471TIP3    H113370   7.287   2.185   2.328
 4471TIP3    H213371   7.180   2.138   2.232
 4472TIP3   OH213372   3.676   1.272   2.063
 4472TIP3    H113373   3.680   1.221   2.144
 4472TIP3    H213374   3.743   1.339   2.073
 4473TIP3   OH213375   6.435   3.276   0.109
 4473TIP3    H113376   6.370   3.209   0.086
 4473TIP3    H213377   6.463   3.311   0.025
 4474TIP3   OH213378   7.920   6.963   0.389
 4474TIP3    H113379   7.870   7.038   0.358
 4474TIP3    H213380   7.924   6.974   0.484
 4475TIP3   OH213381   5.295   3.703   3.405
 4475TIP3    H113382   5.279   3.617   3.366
 4475TIP3    H213383   5.253   3.764   3.344
 4476TIP3   OH213384   7.834   7.382   0.077
 4476TIP3    H113385   7.925   7.411   0.073
 4476TIP3    H213386   7.789   7.451   0.127
 4477TIP3   OH213387   0.129   6.424   2.066
 4477TIP3    H113388   0.122   6.386   1.978
 4477TIP3    H213389   0.068   6.372   2.119
 4478TIP3   OH213390   1.516   0.051   6.231
 4478TIP3    H113391   1.580   0.100   6.178
 4478TIP3    H213392   1.455   0.118   6.261
 4479TIP3   OH213393   5.700   3.736   2.533
 4479TIP3    H113394   5.768   3.674   2.562
 4479TIP3    H213395   5.732   3.769   2.449
 4480TIP3   OH213396   3.166   4.593   2.815
 4480TIP3    H113397   3.181   4.650   2.889
 4480TIP3    H213398   3.149   4.507   2.854
 4481TIP3   OH213399   7.344   4.672   0.873
 4481TIP3    H113400   7.329   4.628   0.790
 4481TIP3    H213401   7.370   4.603   0.933
 4482TIP3   OH213402   7.246   6.944   1.923
 4482TIP3    H113403   7.168   6.964   1.871
 4482TIP3    H213404   7.296   6.883   1.869
 4483TIP3   OH213405   6.278  -0.003   1.749
 4483TIP3    H113406   6.235   0.059   1.691
 4483TIP3    H213407   6.233   0.008   1.833
 4484TIP3   OH213408   5.381   3.108   0.672
 4484TIP3    H113409   5.464   3.155   0.674
 4484TIP3    H213410   5.386   3.047   0.745
 4485TIP3   OH213411   0.238   3.606   2.573
 4485TIP3    H113412   0.228   3.550   2.496
 4485TIP3    H213413   0.148   3.625   2.601
 4486TIP3   OH213414   7.561   1.305   2.648
 4486TIP3    H113415   7.493   1.357   2.606
 4486TIP3    H213416   7.554   1.219   2.606
 4487TIP3   OH213417   0.623   2.805   6.661
 4487TIP3    H113418   0.534   2.815   6.627
 4487TIP3    H213419   0.660   2.732   6.609
 4488TIP3   OH213420   1.540   5.071   1.436
 4488TIP3    H113421   1.531   5.145   1.496
 4488TIP3    H213422   1.627   5.081   1.398
 4489TIP3   OH213423   4.219   3.253   5.142
 4489TIP3    H113424   4.210   3.218   5.231
 4489TIP3    H213425   4.136   3.229   5.099
 4490TIP3   OH213426   5.804   1.711   1.536
 4490TIP3    H113427   5.879   1.738   1.482
 4490TIP3    H213428   5.751   1.656   1.478
 4491TIP3   OH213429   5.618   2.392   1.620
 4491TIP3    H113430   5.652   2.465   1.672
 4491TIP3    H213431   5.695   2.358   1.574
 4492TIP3   OH213432   4.929   6.213   0.572
 4492TIP3    H113433   4.969   6.288   0.528
 4492TIP3    H213434   4.861   6.251   0.628
 4493TIP3   OH213435   4.878   4.377   1.866
 4493TIP3    H113436   4.821   4.306   1.895
 4493TIP3    H213437   4.959   4.333   1.839
 4494TIP3   OH213438   5.584   0.684   2.731
 4494TIP3    H113439   5.511   0.624   2.717
 4494TIP3    H213440   5.624   0.655   2.813
 4495TIP3   OH213441   6.626   0.685   2.681
 4495TIP3    H113442   6.543   0.655   2.644
 4495TIP3    H213443   6.638   0.773   2.645
 4496TIP3   OH213444   6.451   0.393   6.261
 4496TIP3    H113445   6.434   0.353   6.346
 4496TIP3    H213446   6.515   0.462   6.280
 4497TIP3   OH213447   1.946   6.832   0.080
 4497TIP3    H113448   1.862   6.870   0.054
 4497TIP3    H213449   1.972   6.779   0.006
 4498TIP3   OH213450   1.097   5.856   0.908
 4498TIP3    H113451   1.096   5.849   0.813
 4498TIP3    H213452   1.147   5.780   0.937
 4499TIP3   OH213453   3.821   6.720   6.011
 4499TIP3    H113454   3.842   6.674   6.092
 4499TIP3    H213455   3.732   6.753   6.025
 4500TIP3   OH213456   2.142   5.439   1.849
 4500TIP3    H113457   2.074   5.396   1.901
 4500TIP3    H213458   2.181   5.368   1.798
 4501TIP3   OH213459   4.005   3.391   5.487
 4501TIP3    H113460   4.019   3.310   5.536
 4501TIP3    H213461   3.952   3.365   5.412
 4502TIP3   OH213462   4.449   3.149   5.020
 4502TIP3    H113463   4.364   3.171   5.057
 4502TIP3    H213464   4.483   3.232   4.987
 4503TIP3   OH213465   6.160   2.055   3.921
 4503TIP3    H113466   6.097   2.022   3.857
 4503TIP3    H213467   6.158   1.991   3.992
 4504TIP3   OH213468   5.061   2.313   4.802
 4504TIP3    H113469   5.013   2.256   4.862
 4504TIP3    H213470   5.020   2.299   4.717
 4505TIP3   OH213471   1.083   6.903   2.443
 4505TIP3    H113472   1.058   6.942   2.526
 4505TIP3    H213473   1.129   6.822   2.467
 4506TIP3   OH213474   6.348   0.619   2.235
 4506TIP3    H113475   6.359   0.545   2.175
 4506TIP3    H213476   6.419   0.610   2.298
 4507TIP3   OH213477   4.156   1.715   2.565
 4507TIP3    H113478   4.192   1.793   2.606
 4507TIP3    H213479   4.062   1.732   2.558
 4508TIP3   OH213480   4.105   4.115   0.225
 4508TIP3    H113481   4.035   4.087   0.166
 4508TIP3    H213482   4.070   4.100   0.313
 4509TIP3   OH213483   7.928   6.351   1.246
 4509TIP3    H113484   7.963   6.268   1.278
 4509TIP3    H213485   7.899   6.333   1.157
 4510TIP3   OH213486   2.309   3.557   3.772
 4510TIP3    H113487   2.303   3.641   3.727
 4510TIP3    H213488   2.230   3.553   3.826
 4511TIP3   OH213489   0.742   6.416   2.324
 4511TIP3    H113490   0.716   6.442   2.412
 4511TIP3    H213491   0.706   6.484   2.267
 4512TIP3   OH213492   3.156   3.917   4.300
 4512TIP3    H113493   3.221   3.897   4.233
 4512TIP3    H213494   3.128   4.007   4.280
 4513TIP3   OH213495   2.319   3.007   4.737
 4513TIP3    H113496   2.335   3.021   4.644
 4513TIP3    H213497   2.404   2.981   4.772
 4514TIP3   OH213498   4.549   2.802   4.581
 4514TIP3    H113499   4.593   2.825   4.499
 4514TIP3    H213500   4.532   2.886   4.624
 4515TIP3   OH213501   5.653   1.793   1.976
 4515TIP3    H113502   5.678   1.831   1.892
 4515TIP3    H213503   5.572   1.745   1.957
 4516TIP3   OH213504   2.385   2.715   5.308
 4516TIP3    H113505   2.365   2.807   5.292
 4516TIP3    H213506   2.432   2.715   5.391
 4517TIP3   OH213507   8.261   3.871   0.946
 4517TIP3    H113508   8.311   3.914   0.876
 4517TIP3    H213509   8.173   3.908   0.938
 4518TIP3   OH213510   1.443   2.152   2.519
 4518TIP3    H113511   1.419   2.239   2.487
 4518TIP3    H213512   1.379   2.134   2.588
 4519TIP3   OH213513   1.086   3.646   4.355
 4519TIP3    H113514   1.102   3.599   4.437
 4519TIP3    H213515   1.142   3.723   4.360
 4520TIP3   OH213516   0.386   5.675   6.241
 4520TIP3    H113517   0.335   5.740   6.193
 4520TIP3    H213518   0.321   5.624   6.290
 4521TIP3   OH213519   7.751   5.805   4.633
 4521TIP3    H113520   7.697   5.753   4.692
 4521TIP3    H213521   7.688   5.852   4.577
 4522TIP3   OH213522   6.787   6.990   2.101
 4522TIP3    H113523   6.793   6.998   2.006
 4522TIP3    H213524   6.696   7.010   2.121
 4523TIP3   OH213525   3.565   1.529   3.415
 4523TIP3    H113526   3.554   1.553   3.507
 4523TIP3    H213527   3.578   1.434   3.417
 4524TIP3   OH213528   3.954   2.570   3.927
 4524TIP3    H113529   4.003   2.517   3.864
 4524TIP3    H213530   3.925   2.647   3.877
 4525TIP3   OH213531   5.557   5.308   3.999
 4525TIP3    H113532   5.508   5.243   4.049
 4525TIP3    H213533   5.492   5.376   3.978
 4526TIP3   OH213534   6.086   1.145   0.980
 4526TIP3    H113535   6.030   1.101   1.044
 4526TIP3    H213536   6.131   1.074   0.935
 4527TIP3   OH213537   4.141   1.834   4.800
 4527TIP3    H113538   4.146   1.923   4.765
 4527TIP3    H213539   4.054   1.829   4.839
 4528TIP3   OH213540   7.781   2.837   4.097
 4528TIP3    H113541   7.757   2.853   4.188
 4528TIP3    H213542   7.752   2.915   4.050
 4529TIP3   OH213543   2.679   4.761   5.615
 4529TIP3    H113544   2.609   4.813   5.575
 4529TIP3    H213545   2.674   4.676   5.573
 4530TIP3   OH213546   4.118   7.205   4.946
 4530TIP3    H113547   4.052   7.273   4.938
 4530TIP3    H213548   4.157   7.219   5.032
 4531TIP3   OH213549   7.222   7.547   4.195
 4531TIP3    H113550   7.211   7.514   4.284
 4531TIP3    H213551   7.297   7.606   4.200
 4532TIP3   OH213552   8.136   6.013   1.129
 4532TIP3    H113553   8.115   5.950   1.060
 4532TIP3    H213554   8.230   6.001   1.143
 4533TIP3   OH213555   2.894   4.800   2.654
 4533TIP3    H113556   2.844   4.719   2.656
 4533TIP3    H213557   2.847   4.859   2.712
 4534TIP3   OH213558   0.958   3.011   2.936
 4534TIP3    H113559   0.949   2.967   2.852
 4534TIP3    H213560   1.052   3.023   2.947
 4535TIP3   OH213561   3.848   4.490   1.808
 4535TIP3    H113562   3.783   4.420   1.811
 4535TIP3    H213563   3.813   4.553   1.745
 4536TIP3   OH213564  -0.003   7.073   5.591
 4536TIP3    H113565   0.035   6.998   5.545
 4536TIP3    H213566  -0.013   7.043   5.681
 4537TIP3   OH213567   5.834   1.171   4.123
 4537TIP3    H113568   5.808   1.261   4.141
 4537TIP3    H213569   5.821   1.160   4.029
 4538TIP3   OH213570   5.806   1.304   5.125
 4538TIP3    H113571   5.761   1.386   5.146
 4538TIP3    H213572   5.780   1.244   5.195
 4539TIP3   OH213573   6.829   3.625   0.684
 4539TIP3    H113574   6.875   3.558   0.734
 4539TIP3    H213575   6.787   3.577   0.612
 4540TIP3   OH213576   1.024   1.232   5.097
 4540TIP3    H113577   1.055   1.247   5.187
 4540TIP3    H213578   1.057   1.145   5.075
 4541TIP3   OH213579   1.834   0.952   2.693
 4541TIP3    H113580   1.829   1.048   2.689
 4541TIP3    H213581   1.926   0.935   2.712
 4542TIP3   OH213582   2.035   2.521   1.377
 4542TIP3    H113583   2.080   2.453   1.427
 4542TIP3    H213584   1.946   2.523   1.413
 4543TIP3   OH213585   7.536   7.248   0.867
 4543TIP3    H113586   7.550   7.273   0.959
 4543TIP3    H213587   7.608   7.289   0.819
 4544TIP3   OH213588   4.332   4.972   6.722
 4544TIP3    H113589   4.275   4.960   6.646
 4544TIP3    H213590   4.339   4.885   6.761
 4545TIP3   OH213591   2.954   4.574   6.398
 4545TIP3    H113592   2.981   4.653   6.352
 4545TIP3    H213593   2.891   4.532   6.340
 4546TIP3   OH213594   6.933   5.139   1.156
 4546TIP3    H113595   6.849   5.117   1.115
 4546TIP3    H213596   6.948   5.069   1.219
 4547TIP3   OH213597   0.588   6.517   4.316
 4547TIP3    H113598   0.670   6.538   4.361
 4547TIP3    H213599   0.600   6.426   4.287
 4548TIP3   OH213600   0.710   4.779   5.766
 4548TIP3    H113601   0.668   4.757   5.683
 4548TIP3    H213602   0.638   4.799   5.825
 4549TIP3   OH213603   4.661   0.180   2.143
 4549TIP3    H113604   4.652   0.273   2.121
 4549TIP3    H213605   4.643   0.134   2.061
 4550TIP3   OH213606   2.249   1.929   3.830
 4550TIP3    H113607   2.169   1.956   3.785
 4550TIP3    H213608   2.269   1.843   3.792
 4551TIP3   OH213609   0.091   1.932   1.710
 4551TIP3    H113610   0.027   1.876   1.755
 4551TIP3    H213611   0.166   1.936   1.770
 4552TIP3   OH213612   5.736   7.648   4.796
 4552TIP3    H113613   5.651   7.605   4.781
 4552TIP3    H213614   5.786   7.630   4.717
 4553TIP3   OH213615   3.909   5.307   6.229
 4553TIP3    H113616   3.869   5.378   6.179
 4553TIP3    H213617   3.900   5.230   6.173
 4554TIP3   OH213618   6.998   6.407   2.424
 4554TIP3    H113619   7.036   6.479   2.473
 4554TIP3    H213620   6.915   6.388   2.470
 4555TIP3   OH213621   5.694   2.895   1.054
 4555TIP3    H113622   5.755   2.969   1.047
 4555TIP3    H213623   5.723   2.834   0.987
 4556TIP3   OH213624   1.149   2.448   3.901
 4556TIP3    H113625   1.236   2.476   3.871
 4556TIP3    H213626   1.089   2.486   3.838
 4557TIP3   OH213627   5.576   0.525   0.818
 4557TIP3    H113628   5.577   0.432   0.842
 4557TIP3    H213629   5.620   0.528   0.733
 4558TIP3   OH213630   2.338   6.607   3.521
 4558TIP3    H113631   2.270   6.620   3.587
 4558TIP3    H213632   2.290   6.600   3.438
 4559TIP3   OH213633   7.860   0.618   6.135
 4559TIP3    H113634   7.850   0.648   6.226
 4559TIP3    H213635   7.946   0.578   6.132
 4560TIP3   OH213636   4.366   3.851   4.468
 4560TIP3    H113637   4.356   3.847   4.563
 4560TIP3    H213638   4.355   3.943   4.446
 4561TIP3   OH213639   2.824   5.634   0.793
 4561TIP3    H113640   2.788   5.614   0.880
 4561TIP3    H213641   2.752   5.617   0.733
 4562TIP3   OH213642   0.440   5.324   6.644
 4562TIP3    H113643   0.463   5.282   6.561
 4562TIP3    H213644   0.392   5.403   6.619
 4563TIP3   OH213645   3.801   5.325   2.614
 4563TIP3    H113646   3.718   5.371   2.606
 4563TIP3    H213647   3.838   5.356   2.697
 4564TIP3   OH213648   7.818   1.685   1.060
 4564TIP3    H113649   7.726   1.709   1.062
 4564TIP3    H213650   7.836   1.668   0.967
 4565TIP3   OH213651   5.271   3.872   1.395
 4565TIP3    H113652   5.233   3.820   1.324
 4565TIP3    H213653   5.313   3.807   1.452
 4566TIP3   OH213654   1.992   1.567   4.413
 4566TIP3    H113655   2.065   1.531   4.463
 4566TIP3    H213656   2.001   1.528   4.326
 4567TIP3   OH213657   4.357   5.274   1.465
 4567TIP3    H113658   4.274   5.267   1.417
 4567TIP3    H213659   4.423   5.243   1.404
 4568TIP3   OH213660   2.480   4.899   3.186
 4568TIP3    H113661   2.416   4.963   3.156
 4568TIP3    H213662   2.564   4.945   3.181
 4569TIP3   OH213663   4.575   0.934   3.036
 4569TIP3    H113664   4.647   0.894   2.988
 4569TIP3    H213665   4.598   1.027   3.041
 4570TIP3   OH213666   7.495   2.061   4.000
 4570TIP3    H113667   7.533   2.104   3.923
 4570TIP3    H213668   7.534   2.106   4.075
 4571TIP3   OH213669   7.460   6.641   6.083
 4571TIP3    H113670   7.498   6.605   6.003
 4571TIP3    H213671   7.448   6.734   6.065
 4572TIP3   OH213672   3.436   0.948   5.451
 4572TIP3    H113673   3.438   1.016   5.519
 4572TIP3    H213674   3.469   0.869   5.495
 4573TIP3   OH213675   0.289   5.220   4.861
 4573TIP3    H113676   0.377   5.185   4.866
 4573TIP3    H213677   0.251   5.203   4.948
 4574TIP3   OH213678   1.019   3.951   5.932
 4574TIP3    H113679   0.950   3.885   5.933
 4574TIP3    H213680   1.100   3.900   5.920
 4575TIP3   OH213681   0.276   0.234   6.156
 4575TIP3    H113682   0.335   0.235   6.232
 4575TIP3    H213683   0.243   0.144   6.152
 4576TIP3   OH213684   0.702   2.806   0.123
 4576TIP3    H113685   0.679   2.826   0.032
 4576TIP3    H213686   0.746   2.885   0.154
 4577TIP3   OH213687   4.275   2.257   3.943
 4577TIP3    H113688   4.254   2.331   3.886
 4577TIP3    H213689   4.284   2.182   3.884
 4578TIP3   OH213690   8.035   3.510   6.758
 4578TIP3    H113691   8.031   3.506   6.662
 4578TIP3    H213692   8.066   3.598   6.777
 4579TIP3   OH213693   5.575   3.415   4.542
 4579TIP3    H113694   5.530   3.360   4.478
 4579TIP3    H213695   5.586   3.358   4.618
 4580TIP3   OH213696   5.763   6.151   4.655
 4580TIP3    H113697   5.813   6.098   4.717
 4580TIP3    H213698   5.829   6.188   4.597
 4581TIP3   OH213699   0.118   4.301   0.360
 4581TIP3    H113700   0.151   4.365   0.297
 4581TIP3    H213701   0.157   4.218   0.332
 4582TIP3   OH213702   0.100   3.780   3.961
 4582TIP3    H113703   0.065   3.786   3.872
 4582TIP3    H213704   0.023   3.769   4.017
 4583TIP3   OH213705   1.668   0.557   0.805
 4583TIP3    H113706   1.627   0.576   0.890
 4583TIP3    H213707   1.712   0.639   0.781
 4584TIP3   OH213708   5.323   0.110   0.215
 4584TIP3    H113709   5.345   0.099   0.308
 4584TIP3    H213710   5.262   0.184   0.214
 4585TIP3   OH213711   5.262   0.230   1.345
 4585TIP3    H113712   5.335   0.288   1.322
 4585TIP3    H213713   5.293   0.181   1.421
 4586TIP3   OH213714   1.637   7.138   3.455
 4586TIP3    H113715   1.689   7.151   3.376
 4586TIP3    H213716   1.591   7.056   3.440
 4587TIP3   OH213717   7.870   2.558   4.214
 4587TIP3    H113718   7.850   2.652   4.210
 4587TIP3    H213719   7.885   2.533   4.123
 4588TIP3   OH213720   7.587   6.440   4.778
 4588TIP3    H113721   7.588   6.517   4.835
 4588TIP3    H213722   7.674   6.439   4.738
 4589TIP3   OH213723   5.942   3.310   4.212
 4589TIP3    H113724   5.877   3.324   4.281
 4589TIP3    H213725   6.026   3.328   4.254
 4590TIP3   OH213726   5.244   6.768   3.496
 4590TIP3    H113727   5.205   6.697   3.547
 4590TIP3    H213728   5.320   6.728   3.453
 4591TIP3   OH213729   6.584   5.895   0.708
 4591TIP3    H113730   6.601   5.937   0.792
 4591TIP3    H213731   6.570   5.968   0.648
 4592TIP3   OH213732   6.343   3.070   5.950
 4592TIP3    H113733   6.320   3.024   5.869
 4592TIP3    H213734   6.297   3.153   5.944
 4593TIP3   OH213735   2.558   2.500   2.294
 4593TIP3    H113736   2.469   2.531   2.276
 4593TIP3    H213737   2.572   2.521   2.386
 4594TIP3   OH213738   6.871   4.985   4.295
 4594TIP3    H113739   6.864   5.079   4.280
 4594TIP3    H213740   6.824   4.970   4.377
 4595TIP3   OH213741   8.227   2.974   2.684
 4595TIP3    H113742   8.292   3.035   2.648
 4595TIP3    H213743   8.162   3.030   2.727
 4596TIP3   OH213744   3.484   3.040   5.031
 4596TIP3    H113745   3.500   2.998   4.947
 4596TIP3    H213746   3.522   3.128   5.021
 4597TIP3   OH213747   6.243   3.174   6.651
 4597TIP3    H113748   6.193   3.141   6.725
 4597TIP3    H213749   6.319   3.217   6.690
 4598TIP3   OH213750   0.438   1.678   6.273
 4598TIP3    H113751   0.380   1.695   6.347
 4598TIP3    H213752   0.476   1.593   6.292
 4599TIP3   OH213753   3.118   2.224   5.261
 4599TIP3    H113754   3.172   2.303   5.266
 4599TIP3    H213755   3.161   2.162   5.320
 4600TIP3   OH213756   1.002   1.277   1.488
 4600TIP3    H113757   1.030   1.215   1.420
 4600TIP3    H213758   1.060   1.353   1.476
 4601TIP3   OH213759   1.256   3.804   5.822
 4601TIP3    H113760   1.299   3.735   5.772
 4601TIP3    H213761   1.324   3.839   5.878
 4602TIP3   OH213762   8.214   2.535   3.889
 4602TIP3    H113763   8.274   2.603   3.919
 4602TIP3    H213764   8.194   2.483   3.967
 4603TIP3   OH213765   4.029   6.271   2.809
 4603TIP3    H113766   3.996   6.309   2.890
 4603TIP3    H213767   4.108   6.222   2.836
 4604TIP3   OH213768   1.108   4.852   5.815
 4604TIP3    H113769   1.095   4.947   5.821
 4604TIP3    H213770   1.202   4.840   5.820
 4605TIP3   OH213771   1.036   7.239   1.030
 4605TIP3    H113772   1.068   7.307   0.970
 4605TIP3    H213773   1.031   7.283   1.115
 4606TIP3   OH213774   1.440   5.200   6.589
 4606TIP3    H113775   1.518   5.254   6.579
 4606TIP3    H213776   1.469   5.123   6.637
 4607TIP3   OH213777   0.258   4.141   4.047
 4607TIP3    H113778   0.312   4.208   4.089
 4607TIP3    H213779   0.317   4.066   4.037
 4608TIP3   OH213780   7.583   4.520   3.467
 4608TIP3    H113781   7.642   4.465   3.519
 4608TIP3    H213782   7.500   4.472   3.466
 4609TIP3   OH213783   5.673   5.530   0.535
 4609TIP3    H113784   5.597   5.511   0.479
 4609TIP3    H213785   5.685   5.625   0.527
 4610TIP3   OH213786   4.243   3.110   0.388
 4610TIP3    H113787   4.166   3.145   0.343
 4610TIP3    H213788   4.249   3.161   0.469
 4611TIP3   OH213789   2.749   5.911   0.936
 4611TIP3    H113790   2.749   5.816   0.924
 4611TIP3    H213791   2.794   5.945   0.859
 4612TIP3   OH213792   7.986   4.331   6.691
 4612TIP3    H113793   7.934   4.282   6.627
 4612TIP3    H213794   8.070   4.286   6.692
 4613TIP3   OH213795   1.454   3.101   4.239
 4613TIP3    H113796   1.530   3.140   4.196
 4613TIP3    H213797   1.395   3.175   4.256
 4614TIP3   OH213798   3.322   3.800   1.450
 4614TIP3    H113799   3.286   3.731   1.506
 4614TIP3    H213800   3.323   3.762   1.363
 4615TIP3   OH213801   0.709   6.551   2.581
 4615TIP3    H113802   0.619   6.525   2.566
 4615TIP3    H213803   0.719   6.550   2.677
 4616TIP3   OH213804   0.185   7.428   3.489
 4616TIP3    H113805   0.133   7.466   3.418
 4616TIP3    H213806   0.187   7.334   3.470
 4617TIP3   OH213807   4.664   3.598   3.293
 4617TIP3    H113808   4.615   3.606   3.211
 4617TIP3    H213809   4.625   3.521   3.336
 4618TIP3   OH213810   6.980   7.448   4.630
 4618TIP3    H113811   6.898   7.450   4.581
 4618TIP3    H213812   6.955   7.418   4.717
 4619TIP3   OH213813   0.384   5.774   3.104
 4619TIP3    H113814   0.452   5.773   3.037
 4619TIP3    H213815   0.304   5.796   3.056
 4620TIP3   OH213816   3.436   4.355   3.260
 4620TIP3    H113817   3.522   4.371   3.221
 4620TIP3    H213818   3.438   4.401   3.343
 4621TIP3   OH213819   3.908   7.716   5.608
 4621TIP3    H113820   4.002   7.718   5.627
 4621TIP3    H213821   3.866   7.713   5.694
 4622TIP3   OH213822   4.545   2.779   1.908
 4622TIP3    H113823   4.529   2.805   1.817
 4622TIP3    H213824   4.574   2.688   1.902
 4623TIP3   OH213825   6.075   4.280   4.357
 4623TIP3    H113826   6.018   4.340   4.405
 4623TIP3    H213827   6.138   4.336   4.312
 4624TIP3   OH213828   4.860   5.472   6.240
 4624TIP3    H113829   4.950   5.503   6.235
 4624TIP3    H213830   4.810   5.536   6.189
 4625TIP3   OH213831   2.824   1.834   1.867
 4625TIP3    H113832   2.740   1.880   1.860
 4625TIP3    H213833   2.800   1.742   1.881
 4626TIP3   OH213834   5.955   5.081   3.182
 4626TIP3    H113835   5.957   5.006   3.122
 4626TIP3    H213836   5.983   5.155   3.129
 4627TIP3   OH213837   1.962   2.092   5.410
 4627TIP3    H113838   1.889   2.073   5.352
 4627TIP3    H213839   2.028   2.133   5.354
 4628TIP3   OH213840   2.560   2.753   0.969
 4628TIP3    H113841   2.542   2.795   0.884
 4628TIP3    H213842   2.602   2.671   0.946
 4629TIP3   OH213843   7.925   7.677   4.942
 4629TIP3    H113844   7.860   7.747   4.938
 4629TIP3    H213845   7.933   7.647   4.852
 4630TIP3   OH213846   0.170   6.305   0.618
 4630TIP3    H113847   0.171   6.212   0.643
 4630TIP3    H213848   0.262   6.327   0.603
 4631TIP3   OH213849   6.751   3.860   0.859
 4631TIP3    H113850   6.810   3.926   0.897
 4631TIP3    H213851   6.809   3.792   0.826
 4632TIP3   OH213852   3.935   2.594   1.741
 4632TIP3    H113853   3.873   2.588   1.813
 4632TIP3    H213854   3.921   2.681   1.703
 4633TIP3   OH213855   3.799   4.860   6.062
 4633TIP3    H113856   3.704   4.852   6.048
 4633TIP3    H213857   3.829   4.769   6.073
 4634TIP3   OH213858   7.884   6.041   6.564
 4634TIP3    H113859   7.820   6.097   6.610
 4634TIP3    H213860   7.839   5.957   6.555
 4635TIP3   OH213861   2.307   6.600   6.753
 4635TIP3    H113862   2.299   6.678   6.698
 4635TIP3    H213863   2.396   6.568   6.737
 4636TIP3   OH213864   6.078   2.475   0.700
 4636TIP3    H113865   6.163   2.447   0.735
 4636TIP3    H213866   6.056   2.408   0.635
 4637TIP3   OH213867   6.905   5.153   3.231
 4637TIP3    H113868   6.813   5.135   3.250
 4637TIP3    H213869   6.947   5.161   3.316
 4638TIP3   OH213870   1.221   5.770   2.847
 4638TIP3    H113871   1.254   5.849   2.889
 4638TIP3    H213872   1.167   5.802   2.775
 4639TIP3   OH213873   3.501   7.428   3.933
 4639TIP3    H113874   3.535   7.380   4.008
 4639TIP3    H213875   3.452   7.362   3.883
 4640TIP3   OH213876   8.156   7.435   4.061
 4640TIP3    H113877   8.201   7.401   3.983
 4640TIP3    H213878   8.134   7.356   4.111
 4641TIP3   OH213879   4.640   0.429   2.046
 4641TIP3    H113880   4.715   0.410   1.989
 4641TIP3    H213881   4.612   0.517   2.020
 4642TIP3   OH213882   8.089   4.881   1.344
 4642TIP3    H113883   8.076   4.976   1.344
 4642TIP3    H213884   8.106   4.859   1.253
 4643TIP3   OH213885   3.510   3.870   4.526
 4643TIP3    H113886   3.535   3.912   4.443
 4643TIP3    H213887   3.416   3.890   4.535
 4644TIP3   OH213888   5.972   3.953   4.325
 4644TIP3    H113889   6.061   3.919   4.322
 4644TIP3    H213890   5.981   4.041   4.362
 4645TIP3   OH213891   3.628   2.421   0.634
 4645TIP3    H113892   3.657   2.361   0.703
 4645TIP3    H213893   3.694   2.410   0.565
 4646TIP3   OH213894   6.192   0.107   1.965
 4646TIP3    H113895   6.111   0.130   1.920
 4646TIP3    H213896   6.239   0.190   1.975
 4647TIP3   OH213897   7.025   4.843   3.612
 4647TIP3    H113898   6.958   4.810   3.553
 4647TIP3    H213899   7.106   4.800   3.584
 4648TIP3   OH213900   0.433   7.496   4.830
 4648TIP3    H113901   0.524   7.479   4.807
 4648TIP3    H213902   0.392   7.410   4.834
 4649TIP3   OH213903   8.226   5.718   0.363
 4649TIP3    H113904   8.252   5.677   0.281
 4649TIP3    H213905   8.283   5.795   0.371
 4650TIP3   OH213906   6.302   5.125   4.543
 4650TIP3    H113907   6.263   5.210   4.526
 4650TIP3    H213908   6.266   5.068   4.474
 4651TIP3   OH213909   0.277   6.064   2.843
 4651TIP3    H113910   0.321   6.148   2.848
 4651TIP3    H213911   0.231   6.065   2.759
 4652TIP3   OH213912   2.527   0.925   1.625
 4652TIP3    H113913   2.481   0.892   1.702
 4652TIP3    H213914   2.612   0.955   1.659
 4653TIP3   OH213915   7.639   3.685   4.404
 4653TIP3    H113916   7.730   3.665   4.425
 4653TIP3    H213917   7.592   3.602   4.412
 4654TIP3   OH213918   0.842   7.751   2.015
 4654TIP3    H113919   0.883   7.665   2.027
 4654TIP3    H213920   0.814   7.752   1.924
 4655TIP3   OH213921   3.191   2.084   0.131
 4655TIP3    H113922   3.205   2.174   0.100
 4655TIP3    H213923   3.172   2.035   0.051
 4656TIP3   OH213924   1.540   2.633   0.660
 4656TIP3    H113925   1.601   2.648   0.732
 4656TIP3    H213926   1.489   2.557   0.686
 4657TIP3   OH213927   2.973   1.263   1.551
 4657TIP3    H113928   3.014   1.181   1.579
 4657TIP3    H213929   2.932   1.241   1.467
 4658TIP3   OH213930   8.105   4.138   5.649
 4658TIP3    H113931   8.133   4.064   5.595
 4658TIP3    H213932   8.108   4.213   5.589
 4659TIP3   OH213933   5.942   1.343   3.039
 4659TIP3    H113934   6.022   1.395   3.051
 4659TIP3    H213935   5.961   1.259   3.079
 4660TIP3   OH213936   6.754   5.497   4.237
 4660TIP3    H113937   6.830   5.459   4.281
 4660TIP3    H213938   6.781   5.586   4.214
 4661TIP3   OH213939   6.766   0.239   3.462
 4661TIP3    H113940   6.757   0.331   3.436
 4661TIP3    H213941   6.706   0.229   3.536
 4662TIP3   OH213942   0.970   6.696   5.416
 4662TIP3    H113943   0.954   6.602   5.423
 4662TIP3    H213944   1.042   6.703   5.353
 4663TIP3   OH213945   6.405   2.966   1.879
 4663TIP3    H113946   6.407   2.946   1.785
 4663TIP3    H213947   6.325   2.923   1.910
 4664TIP3   OH213948   4.672   0.294   0.971
 4664TIP3    H113949   4.682   0.334   0.885
 4664TIP3    H213950   4.703   0.204   0.959
 4665TIP3   OH213951   8.012   5.912   4.982
 4665TIP3    H113952   8.043   5.944   4.897
 4665TIP3    H213953   7.930   5.866   4.962
 4666TIP3   OH213954   0.770   2.349   4.432
 4666TIP3    H113955   0.835   2.280   4.419
 4666TIP3    H213956   0.730   2.361   4.346
 4667TIP3   OH213957   2.689   4.927   1.410
 4667TIP3    H113958   2.670   4.967   1.495
 4667TIP3    H213959   2.774   4.964   1.384
 4668TIP3   OH213960   1.765   4.824   0.039
 4668TIP3    H113961   1.737   4.882   0.110
 4668TIP3    H213962   1.713   4.852  -0.037
 4669TIP3   OH213963   0.152   1.981   4.368
 4669TIP3    H113964   0.240   2.004   4.338
 4669TIP3    H213965   0.143   2.025   4.453
 4670TIP3   OH213966   1.605   2.014   5.610
 4670TIP3    H113967   1.585   2.053   5.525
 4670TIP3    H213968   1.519   2.001   5.651
 4671TIP3   OH213969   7.713   3.441   5.640
 4671TIP3    H113970   7.655   3.365   5.646
 4671TIP3    H213971   7.662   3.514   5.675
 4672TIP3   OH213972   5.785   5.430   5.694
 4672TIP3    H113973   5.741   5.434   5.609
 4672TIP3    H213974   5.748   5.352   5.736
 4673TIP3   OH213975   6.897   4.299   6.521
 4673TIP3    H113976   6.804   4.320   6.524
 4673TIP3    H213977   6.908   4.227   6.583
 4674TIP3   OH213978   0.024   0.852   6.429
 4674TIP3    H113979  -0.071   0.860   6.415
 4674TIP3    H213980   0.058   0.816   6.347
 4675TIP3   OH213981   0.566   3.647   4.815
 4675TIP3    H113982   0.624   3.656   4.739
 4675TIP3    H213983   0.601   3.573   4.863
 4676TIP3   OH213984   2.105   3.165   0.942
 4676TIP3    H113985   2.097   3.070   0.949
 4676TIP3    H213986   2.017   3.194   0.919
 4677TIP3   OH213987   4.388   3.065   2.186
 4677TIP3    H113988   4.440   2.984   2.184
 4677TIP3    H213989   4.451   3.135   2.171
 4678TIP3   OH213990   5.729   5.803   2.354
 4678TIP3    H113991   5.810   5.825   2.309
 4678TIP3    H213992   5.683   5.886   2.364
 4679TIP3   OH213993   2.450   4.004   3.108
 4679TIP3    H113994   2.489   4.084   3.071
 4679TIP3    H213995   2.364   4.032   3.139
 4680TIP3   OH213996   0.190   4.931   6.161
 4680TIP3    H113997   0.166   5.005   6.216
 4680TIP3    H213998   0.141   4.944   6.079
 4681TIP3   OH213999   3.318   3.515   5.555
 4681TIP3    H114000   3.244   3.523   5.494
 4681TIP3    H214001   3.365   3.598   5.547
 4682TIP3   OH214002   7.528   6.265   3.748
 4682TIP3    H114003   7.469   6.340   3.754
 4682TIP3    H214004   7.581   6.282   3.671
 4683TIP3   OH214005   7.672   0.985   4.315
 4683TIP3    H114006   7.765   1.009   4.310
 4683TIP3    H214007   7.659   0.962   4.407
 4684TIP3   OH214008   1.504   6.063   5.046
 4684TIP3    H114009   1.494   6.031   4.957
 4684TIP3    H214010   1.578   6.014   5.082
 4685TIP3   OH214011   2.141   5.537   1.210
 4685TIP3    H114012   2.200   5.500   1.275
 4685TIP3    H214013   2.064   5.564   1.260
 4686TIP3   OH214014   1.604   3.256   5.225
 4686TIP3    H114015   1.672   3.248   5.292
 4686TIP3    H214016   1.528   3.292   5.271
 4687TIP3   OH214017   5.160   0.228   1.072
 4687TIP3    H114018   5.210   0.264   1.146
 4687TIP3    H214019   5.080   0.194   1.112
 4688TIP3   OH214020   1.011   1.222   4.124
 4688TIP3    H114021   0.989   1.276   4.200
 4688TIP3    H214022   1.086   1.170   4.152
 4689TIP3   OH214023   1.218   7.509   6.256
 4689TIP3    H114024   1.300   7.526   6.301
 4689TIP3    H214025   1.204   7.415   6.265
 4690TIP3   OH214026   0.696   5.913   2.007
 4690TIP3    H114027   0.728   5.974   1.941
 4690TIP3    H214028   0.769   5.902   2.067
 4691TIP3   OH214029   4.229   0.442   2.937
 4691TIP3    H114030   4.312   0.409   2.971
 4691TIP3    H214031   4.181   0.469   3.015
 4692TIP3   OH214032   2.263   4.319   2.067
 4692TIP3    H114033   2.351   4.325   2.030
 4692TIP3    H214034   2.206   4.358   2.002
 4693TIP3   OH214035   5.776   7.304   3.185
 4693TIP3    H114036   5.711   7.310   3.116
 4693TIP3    H214037   5.832   7.381   3.172
 4694TIP3   OH214038   4.889   2.486   6.605
 4694TIP3    H114039   4.921   2.400   6.632
 4694TIP3    H214040   4.967   2.541   6.604
 4695TIP3   OH214041   0.185   3.230   6.437
 4695TIP3    H114042   0.246   3.218   6.511
 4695TIP3    H214043   0.225   3.180   6.365
 4696TIP3   OH214044   0.492   0.358   1.891
 4696TIP3    H114045   0.518   0.295   1.824
 4696TIP3    H214046   0.413   0.320   1.930
 4697TIP3   OH214047   5.487   6.543   6.071
 4697TIP3    H114048   5.469   6.580   6.157
 4697TIP3    H214049   5.571   6.499   6.081
 4698TIP3   OH214050   6.628   1.992   4.504
 4698TIP3    H114051   6.594   2.077   4.474
 4698TIP3    H214052   6.659   2.009   4.593
 4699TIP3   OH214053   6.311   6.515   1.560
 4699TIP3    H114054   6.360   6.455   1.615
 4699TIP3    H214055   6.227   6.471   1.544
 4700TIP3   OH214056   7.694   5.731   5.466
 4700TIP3    H114057   7.761   5.756   5.529
 4700TIP3    H214058   7.613   5.727   5.517
 4701TIP3   OH214059   5.714   0.207   6.679
 4701TIP3    H114060   5.748   0.279   6.732
 4701TIP3    H214061   5.683   0.248   6.599
 4702TIP3   OH214062   6.609   5.959   0.968
 4702TIP3    H114063   6.623   6.054   0.975
 4702TIP3    H214064   6.522   5.945   1.006
 4703TIP3   OH214065   1.047   7.397   2.182
 4703TIP3    H114066   1.078   7.307   2.169
 4703TIP3    H214067   1.080   7.421   2.268
 4704TIP3   OH214068   2.024   4.082   5.564
 4704TIP3    H114069   2.024   4.177   5.564
 4704TIP3    H214070   2.112   4.058   5.533
 4705TIP3   OH214071   3.213   2.101   2.109
 4705TIP3    H114072   3.167   2.184   2.111
 4705TIP3    H214073   3.208   2.072   2.018
 4706TIP3   OH214074   7.458   6.487   6.805
 4706TIP3    H114075   7.419   6.520   6.724
 4706TIP3    H214076   7.548   6.465   6.782
 4707TIP3   OH214077   5.423   2.920   0.901
 4707TIP3    H114078   5.479   2.991   0.935
 4707TIP3    H214079   5.484   2.849   0.883
 4708TIP3   OH214080   1.891   6.404   5.641
 4708TIP3    H114081   1.962   6.368   5.695
 4708TIP3    H214082   1.921   6.492   5.618
 4709TIP3   OH214083   7.380   6.836   4.343
 4709TIP3    H114084   7.319   6.846   4.270
 4709TIP3    H214085   7.463   6.869   4.308
 4710TIP3   OH214086   4.260   1.036   6.165
 4710TIP3    H114087   4.165   1.035   6.174
 4710TIP3    H214088   4.278   0.983   6.087
 4711TIP3   OH214089   7.791   0.749   0.520
 4711TIP3    H114090   7.721   0.775   0.460
 4711TIP3    H214091   7.847   0.692   0.468
 4712TIP3   OH214092   8.125   6.506   1.152
 4712TIP3    H114093   8.180   6.443   1.105
 4712TIP3    H214094   8.066   6.452   1.204
 4713TIP3   OH214095   2.967   4.232   6.121
 4713TIP3    H114096   2.872   4.238   6.122
 4713TIP3    H214097   2.991   4.220   6.213
 4714TIP3   OH214098   3.259   6.850   3.768
 4714TIP3    H114099   3.350   6.869   3.745
 4714TIP3    H214100   3.221   6.936   3.784
 4715TIP3   OH214101   5.512   7.658   6.705
 4715TIP3    H114102   5.474   7.704   6.780
 4715TIP3    H214103   5.461   7.688   6.630
 4716TIP3   OH214104   6.130   6.326   2.537
 4716TIP3    H114105   6.137   6.350   2.630
 4716TIP3    H214106   6.122   6.410   2.491
 4717TIP3   OH214107   4.195   7.474   5.616
 4717TIP3    H114108   4.110   7.457   5.657
 4717TIP3    H214109   4.230   7.387   5.598
 4718TIP3   OH214110   5.164   4.851   4.444
 4718TIP3    H114111   5.238   4.833   4.385
 4718TIP3    H214112   5.177   4.941   4.473
 4719TIP3   OH214113   2.323   3.636   1.447
 4719TIP3    H114114   2.273   3.564   1.408
 4719TIP3    H214115   2.337   3.609   1.537
 4720TIP3   OH214116   6.847   4.640   2.709
 4720TIP3    H114117   6.812   4.611   2.794
 4720TIP3    H214118   6.880   4.560   2.669
 4721TIP3   OH214119   7.963   6.697   2.442
 4721TIP3    H114120   8.056   6.703   2.462
 4721TIP3    H214121   7.920   6.696   2.528
 4722TIP3   OH214122   3.520   5.884   1.558
 4722TIP3    H114123   3.482   5.903   1.472
 4722TIP3    H214124   3.613   5.905   1.549
 4723TIP3   OH214125   6.429   5.388   4.880
 4723TIP3    H114126   6.504   5.354   4.831
 4723TIP3    H214127   6.361   5.400   4.813
 4724TIP3   OH214128   4.042   1.095   5.480
 4724TIP3    H114129   4.110   1.036   5.512
 4724TIP3    H214130   4.088   1.176   5.460
 4725TIP3   OH214131   3.734   2.938   0.075
 4725TIP3    H114132   3.722   2.871   0.009
 4725TIP3    H214133   3.684   2.907   0.151
 4726TIP3   OH214134   7.353   7.796   3.826
 4726TIP3    H114135   7.402   7.868   3.787
 4726TIP3    H214136   7.274   7.789   3.773
 4727TIP3   OH214137   1.949   6.981   5.990
 4727TIP3    H114138   1.926   7.059   6.040
 4727TIP3    H214139   1.872   6.924   5.996
 4728TIP3   OH214140   1.506   0.026   2.926
 4728TIP3    H114141   1.569   0.099   2.931
 4728TIP3    H214142   1.427   0.060   2.969
 4729TIP3   OH214143   5.673   5.286   6.571
 4729TIP3    H114144   5.606   5.218   6.564
 4729TIP3    H214145   5.702   5.282   6.662
 4730TIP3   OH214146   1.691   6.910   1.275
 4730TIP3    H114147   1.707   6.839   1.213
 4730TIP3    H214148   1.754   6.895   1.345
 4731TIP3   OH214149   5.784   4.594   1.780
 4731TIP3    H114150   5.821   4.666   1.831
 4731TIP3    H214151   5.858   4.558   1.732
 4732TIP3   OH214152   2.215   7.102   2.346
 4732TIP3    H114153   2.191   7.014   2.374
 4732TIP3    H214154   2.264   7.089   2.265
 4733TIP3   OH214155   1.206   6.782   2.093
 4733TIP3    H114156   1.231   6.693   2.069
 4733TIP3    H214157   1.136   6.771   2.157
 4734TIP3   OH214158   3.619   7.392   2.611
 4734TIP3    H114159   3.596   7.304   2.582
 4734TIP3    H214160   3.536   7.431   2.640
 4735TIP3   OH214161   4.309   2.136   1.673
 4735TIP3    H114162   4.393   2.119   1.718
 4735TIP3    H214163   4.245   2.138   1.744
 4736TIP3   OH214164   1.720   6.804   3.727
 4736TIP3    H114165   1.757   6.734   3.673
 4736TIP3    H214166   1.666   6.855   3.666
 4737TIP3   OH214167   6.955   3.286   2.929
 4737TIP3    H114168   7.044   3.287   2.962
 4737TIP3    H214169   6.912   3.359   2.973
 4738TIP3   OH214170   0.967   1.266   0.331
 4738TIP3    H114171   0.938   1.313   0.410
 4738TIP3    H214172   1.035   1.207   0.362
 4739TIP3   OH214173   0.668   0.928   2.896
 4739TIP3    H114174   0.760   0.946   2.917
 4739TIP3    H214175   0.629   1.013   2.879
 4740TIP3   OH214176   7.866   0.057   0.939
 4740TIP3    H114177   7.782   0.054   0.985
 4740TIP3    H214178   7.914   0.128   0.980
 4741TIP3   OH214179   6.137   5.450   1.982
 4741TIP3    H114180   6.056   5.403   1.999
 4741TIP3    H214181   6.112   5.522   1.923
 4742TIP3   OH214182   5.735  -0.019   4.373
 4742TIP3    H114183   5.827  -0.018   4.402
 4742TIP3    H214184   5.731   0.047   4.304
 4743TIP3   OH214185   6.979   4.894   2.969
 4743TIP3    H114186   6.939   4.815   3.004
 4743TIP3    H214187   7.031   4.929   3.042
 4744TIP3   OH214188   3.853  -0.023   2.747
 4744TIP3    H114189   3.798   0.043   2.705
 4744TIP3    H214190   3.874   0.015   2.833
 4745TIP3   OH214191   2.117   7.178   1.989
 4745TIP3    H114192   2.068   7.103   2.022
 4745TIP3    H214193   2.092   7.184   1.896
 4746TIP3   OH214194   2.854   4.057   5.237
 4746TIP3    H114195   2.798   4.006   5.178
 4746TIP3    H214196   2.937   4.008   5.238
 4747TIP3   OH214197   0.715   6.416   2.832
 4747TIP3    H114198   0.750   6.477   2.897
 4747TIP3    H214199   0.740   6.330   2.865
 4748TIP3   OH214200   8.047   4.782   0.073
 4748TIP3    H114201   8.075   4.856   0.127
 4748TIP3    H214202   7.957   4.765   0.102
 4749TIP3   OH214203   7.595   5.408   4.652
 4749TIP3    H114204   7.659   5.387   4.584
 4749TIP3    H214205   7.648   5.433   4.728
 4750TIP3   OH214206   5.207   0.969   2.363
 4750TIP3    H114207   5.245   1.012   2.287
 4750TIP3    H214208   5.182   0.882   2.332
 4751TIP3   OH214209   4.518   3.847   4.747
 4751TIP3    H114210   4.604   3.862   4.786
 4751TIP3    H214211   4.481   3.934   4.736
 4752TIP3   OH214212   2.243   4.442   3.017
 4752TIP3    H114213   2.149   4.427   3.028
 4752TIP3    H214214   2.249   4.497   2.939
 4753TIP3   OH214215   4.917   5.596   1.967
 4753TIP3    H114216   4.950   5.636   2.047
 4753TIP3    H214217   4.850   5.657   1.936
 4754TIP3   OH214218   2.767   1.455   2.123
 4754TIP3    H114219   2.824   1.377   2.129
 4754TIP3    H214220   2.704   1.443   2.193
 4755TIP3   OH214221   1.815   4.199   3.674
 4755TIP3    H114222   1.727   4.238   3.678
 4755TIP3    H214223   1.871   4.270   3.643
 4756TIP3   OH214224   3.384   5.163   2.863
 4756TIP3    H114225   3.460   5.219   2.847
 4756TIP3    H214226   3.395   5.131   2.952
 4757TIP3   OH214227   7.630   0.097   1.696
 4757TIP3    H114228   7.678   0.166   1.741
 4757TIP3    H214229   7.680   0.080   1.616
 4758TIP3   OH214230   0.756   2.405   1.800
 4758TIP3    H114231   0.776   2.312   1.788
 4758TIP3    H214232   0.721   2.433   1.716
 4759TIP3   OH214233   0.604   3.886   0.382
 4759TIP3    H114234   0.580   3.951   0.449
 4759TIP3    H214235   0.638   3.937   0.309
 4760TIP3   OH214236   0.507   6.044   0.545
 4760TIP3    H114237   0.567   6.111   0.579
 4760TIP3    H214238   0.475   5.999   0.623
 4761TIP3   OH214239   1.746   3.152   6.186
 4761TIP3    H114240   1.788   3.067   6.171
 4761TIP3    H214241   1.734   3.189   6.099
 4762TIP3   OH214242   2.517   4.351   0.697
 4762TIP3    H114243   2.510   4.415   0.626
 4762TIP3    H214244   2.564   4.278   0.659
 4763TIP3   OH214245   3.256   1.586   2.610
 4763TIP3    H114246   3.237   1.503   2.653
 4763TIP3    H214247   3.340   1.572   2.566
 4764TIP3   OH214248   2.579   6.559   3.408
 4764TIP3    H114249   2.494   6.583   3.445
 4764TIP3    H214250   2.581   6.464   3.410
 4765TIP3   OH214251  -0.003   5.486   4.312
 4765TIP3    H114252   0.085   5.522   4.309
 4765TIP3    H214253   0.010   5.391   4.316
 4766TIP3   OH214254   6.354   0.149   4.016
 4766TIP3    H114255   6.291   0.159   4.088
 4766TIP3    H214256   6.413   0.223   4.027
 4767TIP3   OH214257   1.080   2.968   0.122
 4767TIP3    H114258   0.994   2.973   0.164
 4767TIP3    H214259   1.068   2.909   0.048
 4768TIP3   OH214260   6.614   0.585   1.953
 4768TIP3    H114261   6.641   0.591   2.044
 4768TIP3    H214262   6.536   0.530   1.954
 4769TIP3   OH214263   2.285   2.081   1.998
 4769TIP3    H114264   2.345   2.102   2.069
 4769TIP3    H214265   2.336   2.093   1.918
 4770TIP3   OH214266   6.402   6.788   0.205
 4770TIP3    H114267   6.443   6.817   0.287
 4770TIP3    H214268   6.334   6.727   0.233
 4771TIP3   OH214269   6.464   1.473   1.917
 4771TIP3    H114270   6.503   1.406   1.973
 4771TIP3    H214271   6.495   1.452   1.829
 4772TIP3   OH214272   0.110   4.409   2.053
 4772TIP3    H114273   0.093   4.318   2.077
 4772TIP3    H214274   0.134   4.451   2.135
 4773TIP3   OH214275   2.999   0.490   4.955
 4773TIP3    H114276   3.045   0.479   5.038
 4773TIP3    H214277   2.970   0.581   4.956
 4774TIP3   OH214278   0.559   7.279   5.162
 4774TIP3    H114279   0.519   7.343   5.221
 4774TIP3    H214280   0.532   7.194   5.197
 4775TIP3   OH214281   5.752   4.804   5.050
 4775TIP3    H114282   5.838   4.822   5.011
 4775TIP3    H214283   5.738   4.710   5.035
 4776TIP3   OH214284   4.634   4.007   0.102
 4776TIP3    H114285   4.560   4.038   0.049
 4776TIP3    H214286   4.661   4.083   0.152
 4777TIP3   OH214287   5.959   2.855   1.505
 4777TIP3    H114288   6.011   2.934   1.518
 4777TIP3    H214289   6.014   2.798   1.450
 4778TIP3   OH214290   3.115   1.356   1.247
 4778TIP3    H114291   3.021   1.366   1.240
 4778TIP3    H214292   3.127   1.272   1.291
 4779TIP3   OH214293   3.123   3.203   1.879
 4779TIP3    H114294   3.101   3.164   1.794
 4779TIP3    H214295   3.039   3.210   1.924
 4780TIP3   OH214296   6.472   3.544   2.833
 4780TIP3    H114297   6.494   3.452   2.825
 4780TIP3    H214298   6.434   3.567   2.748
 4781TIP3   OH214299   1.059   5.281   5.604
 4781TIP3    H114300   0.970   5.300   5.574
 4781TIP3    H214301   1.085   5.359   5.653
 4782TIP3   OH214302   7.856   6.104   2.837
 4782TIP3    H114303   7.847   6.149   2.921
 4782TIP3    H214304   7.782   6.135   2.785
 4783TIP3   OH214305   5.352   3.677   4.371
 4783TIP3    H114306   5.279   3.738   4.363
 4783TIP3    H214307   5.429   3.727   4.344
 4784TIP3   OH214308   6.561   1.631   5.313
 4784TIP3    H114309   6.586   1.681   5.236
 4784TIP3    H214310   6.471   1.658   5.331
 4785TIP3   OH214311   6.580   2.769   4.779
 4785TIP3    H114312   6.546   2.714   4.849
 4785TIP3    H214313   6.576   2.858   4.815
 4786TIP3   OH214314   0.465   5.609   4.125
 4786TIP3    H114315   0.453   5.592   4.218
 4786TIP3    H214316   0.479   5.703   4.119
 4787TIP3   OH214317   4.755   5.721   0.508
 4787TIP3    H114318   4.797   5.706   0.593
 4787TIP3    H214319   4.767   5.814   0.491
 4788TIP3   OH214320   7.705   7.678   6.363
 4788TIP3    H114321   7.742   7.599   6.402
 4788TIP3    H214322   7.625   7.695   6.412
 4789TIP3   OH214323   7.093   2.422   2.946
 4789TIP3    H114324   7.109   2.348   3.004
 4789TIP3    H214325   7.001   2.445   2.961
 4790TIP3   OH214326   7.673   4.592   0.424
 4790TIP3    H114327   7.704   4.612   0.335
 4790TIP3    H214328   7.720   4.655   0.480
 4791TIP3   OH214329   0.716   4.301   1.087
 4791TIP3    H114330   0.654   4.229   1.100
 4791TIP3    H214331   0.789   4.279   1.145
 4792TIP3   OH214332   4.255   7.394   0.447
 4792TIP3    H114333   4.255   7.489   0.460
 4792TIP3    H214334   4.255   7.357   0.535
 4793TIP3   OH214335   2.877   7.559   2.779
 4793TIP3    H114336   2.959   7.539   2.734
 4793TIP3    H214337   2.810   7.544   2.713
 4794TIP3   OH214338   3.619   0.711   1.938
 4794TIP3    H114339   3.604   0.620   1.912
 4794TIP3    H214340   3.628   0.758   1.856
 4795TIP3   OH214341   0.407   1.841   0.860
 4795TIP3    H114342   0.372   1.883   0.938
 4795TIP3    H214343   0.467   1.774   0.893
 4796TIP3   OH214344   0.409   3.880   6.773
 4796TIP3    H114345   0.445   3.810   6.718
 4796TIP3    H214346   0.338   3.839   6.821
 4797TIP3   OH214347   2.172   4.261   1.067
 4797TIP3    H114348   2.237   4.291   1.131
 4797TIP3    H214349   2.095   4.314   1.084
 4798TIP3   OH214350   5.944   0.530   6.155
 4798TIP3    H114351   5.874   0.580   6.113
 4798TIP3    H214352   6.021   0.549   6.103
 4799TIP3   OH214353   2.680   7.791   6.725
 4799TIP3    H114354   2.706   7.863   6.668
 4799TIP3    H214355   2.755   7.732   6.725
 4800TIP3   OH214356   5.169   0.133   2.195
 4800TIP3    H114357   5.170   0.041   2.169
 4800TIP3    H214358   5.078   0.151   2.219
 4801TIP3   OH214359   4.333   3.290   6.042
 4801TIP3    H114360   4.323   3.320   5.952
 4801TIP3    H214361   4.327   3.195   6.038
 4802TIP3   OH214362   6.756   6.526   6.151
 4802TIP3    H114363   6.692   6.474   6.102
 4802TIP3    H214364   6.793   6.585   6.085
 4803TIP3   OH214365   4.318   6.672   2.346
 4803TIP3    H114366   4.362   6.757   2.347
 4803TIP3    H214367   4.350   6.629   2.267
 4804TIP3   OH214368   5.372   0.690   2.363
 4804TIP3    H114369   5.436   0.755   2.395
 4804TIP3    H214370   5.344   0.644   2.442
 4805TIP3   OH214371   1.633   5.684   2.118
 4805TIP3    H114372   1.578   5.698   2.040
 4805TIP3    H214373   1.716   5.653   2.083
 4806TIP3   OH214374   3.500   1.931   0.478
 4806TIP3    H114375   3.462   1.872   0.544
 4806TIP3    H214376   3.494   2.018   0.518
 4807TIP3   OH214377   5.908   4.465   4.869
 4807TIP3    H114378   5.850   4.525   4.822
 4807TIP3    H214379   5.881   4.471   4.960
 4808TIP3   OH214380   0.613   6.951   5.098
 4808TIP3    H114381   0.647   6.884   5.158
 4808TIP3    H214382   0.658   6.934   5.015
 4809TIP3   OH214383   3.740   2.284   0.847
 4809TIP3    H114384   3.793   2.355   0.883
 4809TIP3    H214385   3.789   2.204   0.869
 4810TIP3   OH214386   4.717   1.622   3.216
 4810TIP3    H114387   4.636   1.577   3.191
 4810TIP3    H214388   4.760   1.641   3.133
 4811TIP3   OH214389   0.569   0.255   0.443
 4811TIP3    H114390   0.476   0.277   0.448
 4811TIP3    H214391   0.605   0.317   0.380
 4812TIP3   OH214392   4.132   5.176   4.523
 4812TIP3    H114393   4.061   5.126   4.561
 4812TIP3    H214394   4.205   5.165   4.584
 4813TIP3   OH214395   7.425   3.000   2.009
 4813TIP3    H114396   7.475   3.070   2.051
 4813TIP3    H214397   7.353   3.045   1.965
 4814TIP3   OH214398   7.217   2.534   6.328
 4814TIP3    H114399   7.231   2.480   6.407
 4814TIP3    H214400   7.121   2.542   6.322
 4815TIP3   OH214401   4.886   5.335   4.303
 4815TIP3    H114402   4.939   5.373   4.373
 4815TIP3    H214403   4.888   5.401   4.233
 4816TIP3   OH214404   3.545   3.726   5.764
 4816TIP3    H114405   3.499   3.784   5.703
 4816TIP3    H214406   3.490   3.725   5.842
 4817TIP3   OH214407   3.191   3.101   4.730
 4817TIP3    H114408   3.235   3.147   4.802
 4817TIP3    H214409   3.224   3.011   4.736
 4818TIP3   OH214410   4.389   6.863   6.553
 4818TIP3    H114411   4.341   6.782   6.570
 4818TIP3    H214412   4.464   6.860   6.613
 4819TIP3   OH214413   6.361   1.894   1.071
 4819TIP3    H114414   6.377   1.981   1.033
 4819TIP3    H214415   6.340   1.911   1.162
 4820TIP3   OH214416   7.179   2.208   0.148
 4820TIP3    H114417   7.163   2.258   0.227
 4820TIP3    H214418   7.115   2.241   0.085
 4821TIP3   OH214419   7.647   1.296   4.356
 4821TIP3    H114420   7.598   1.215   4.344
 4821TIP3    H214421   7.586   1.365   4.328
 4822TIP3   OH214422   8.154   1.503   1.213
 4822TIP3    H114423   8.244   1.483   1.240
 4822TIP3    H214424   8.109   1.419   1.216
 4823TIP3   OH214425   0.569   3.066   3.138
 4823TIP3    H114426   0.595   3.109   3.056
 4823TIP3    H214427   0.645   3.013   3.162
 4824TIP3   OH214428   1.080   4.686   3.063
 4824TIP3    H114429   1.078   4.720   2.974
 4824TIP3    H214430   1.026   4.607   3.059
 4825TIP3   OH214431   1.392   6.942   0.759
 4825TIP3    H114432   1.365   6.919   0.847
 4825TIP3    H214433   1.480   6.907   0.750
 4826TIP3   OH214434   2.725   2.526   2.084
 4826TIP3    H114435   2.657   2.509   2.149
 4826TIP3    H214436   2.771   2.603   2.118
 4827TIP3   OH214437   3.256   5.238   2.634
 4827TIP3    H114438   3.324   5.236   2.567
 4827TIP3    H214439   3.300   5.208   2.714
 4828TIP3   OH214440   5.756   4.234   5.339
 4828TIP3    H114441   5.851   4.235   5.351
 4828TIP3    H214442   5.726   4.158   5.389
 4829TIP3   OH214443   8.046   0.319   1.749
 4829TIP3    H114444   8.013   0.259   1.817
 4829TIP3    H214445   8.103   0.379   1.797
 4830TIP3   OH214446   4.593   3.026   4.185
 4830TIP3    H114447   4.538   3.008   4.261
 4830TIP3    H214448   4.664   3.081   4.218
 4831TIP3   OH214449   4.541   2.938   3.900
 4831TIP3    H114450   4.492   2.986   3.834
 4831TIP3    H214451   4.515   2.978   3.983
 4832TIP3   OH214452   3.656   1.935   2.064
 4832TIP3    H114453   3.610   1.997   2.120
 4832TIP3    H214454   3.587   1.897   2.009
 4833TIP3   OH214455   5.750   0.533   5.647
 4833TIP3    H114456   5.786   0.574   5.725
 4833TIP3    H214457   5.809   0.460   5.628
 4834TIP3   OH214458   8.307   0.456   2.127
 4834TIP3    H114459   8.322   0.546   2.157
 4834TIP3    H214460   8.217   0.437   2.153
 4835TIP3   OH214461   5.668   2.126   6.720
 4835TIP3    H114462   5.735   2.064   6.751
 4835TIP3    H214463   5.708   2.165   6.642
 4836TIP3   OH214464   4.088   1.155   6.500
 4836TIP3    H114465   3.996   1.175   6.487
 4836TIP3    H214466   4.132   1.240   6.496
 4837TIP3   OH214467   0.984   0.555   3.458
 4837TIP3    H114468   1.067   0.596   3.483
 4837TIP3    H214469   1.007   0.465   3.435
 4838TIP3   OH214470   7.881   1.537   3.845
 4838TIP3    H114471   7.836   1.481   3.782
 4838TIP3    H214472   7.835   1.621   3.839
 4839TIP3   OH214473   7.099   6.268   3.714
 4839TIP3    H114474   7.189   6.300   3.714
 4839TIP3    H214475   7.072   6.271   3.806
 4840TIP3   OH214476   5.291   0.305   5.277
 4840TIP3    H114477   5.251   0.334   5.359
 4840TIP3    H214478   5.300   0.210   5.287
 4841TIP3   OH214479   1.939   1.582   5.584
 4841TIP3    H114480   1.906   1.633   5.510
 4841TIP3    H214481   1.962   1.647   5.650
 4842TIP3   OH214482   3.294   4.920   2.801
 4842TIP3    H114483   3.321   5.011   2.812
 4842TIP3    H214484   3.272   4.890   2.889
 4843TIP3   OH214485   4.890   1.946   2.805
 4843TIP3    H114486   4.933   1.938   2.891
 4843TIP3    H214487   4.950   1.999   2.753
 4844TIP3   OH214488   1.839   7.382   0.108
 4844TIP3    H114489   1.784   7.325   0.162
 4844TIP3    H214490   1.862   7.327   0.033
 4845TIP3   OH214491   7.495   6.316   4.081
 4845TIP3    H114492   7.515   6.350   3.994
 4845TIP3    H214493   7.446   6.386   4.124
 4846TIP3   OH214494   0.428   1.749   3.301
 4846TIP3    H114495   0.427   1.655   3.318
 4846TIP3    H214496   0.336   1.775   3.304
 4847TIP3   OH214497   7.480   4.908   0.861
 4847TIP3    H114498   7.441   4.821   0.865
 4847TIP3    H214499   7.412   4.963   0.823
 4848TIP3   OH214500   5.675   1.252   2.034
 4848TIP3    H114501   5.715   1.296   1.959
 4848TIP3    H214502   5.633   1.175   1.998
 4849TIP3   OH214503   1.285   0.098   3.597
 4849TIP3    H114504   1.324   0.179   3.566
 4849TIP3    H214505   1.194   0.119   3.615
 4850TIP3   OH214506   7.263   1.001   2.166
 4850TIP3    H114507   7.297   0.993   2.255
 4850TIP3    H214508   7.329   1.052   2.119
 4851TIP3   OH214509   2.900   6.355   2.730
 4851TIP3    H114510   2.827   6.416   2.726
 4851TIP3    H214511   2.957   6.389   2.799
 4852TIP3   OH214512   6.206   2.473   2.263
 4852TIP3    H114513   6.178   2.387   2.296
 4852TIP3    H214514   6.134   2.501   2.206
 4853TIP3   OH214515   3.596   3.810   4.974
 4853TIP3    H114516   3.607   3.715   4.970
 4853TIP3    H214517   3.511   3.827   4.933
 4854TIP3   OH214518   1.430   0.482   3.993
 4854TIP3    H114519   1.473   0.511   4.074
 4854TIP3    H214520   1.341   0.516   4.001
 4855TIP3   OH214521   2.287   4.820   6.718
 4855TIP3    H114522   2.212   4.828   6.659
 4855TIP3    H214523   2.249   4.823   6.805
 4856TIP3   OH214524   5.505   3.449   1.156
 4856TIP3    H114525   5.583   3.504   1.150
 4856TIP3    H214526   5.537   3.367   1.194
 4857TIP3   OH214527   3.853   6.183   1.667
 4857TIP3    H114528   3.901   6.166   1.586
 4857TIP3    H214529   3.813   6.269   1.653
 4858TIP3   OH214530   2.102   0.728   2.517
 4858TIP3    H114531   2.040   0.753   2.585
 4858TIP3    H214532   2.166   0.673   2.561
 4859TIP3   OH214533   0.231   0.651   0.820
 4859TIP3    H114534   0.324   0.640   0.800
 4859TIP3    H214535   0.190   0.570   0.788
 4860TIP3   OH214536   0.965   5.530   2.011
 4860TIP3    H114537   1.029   5.592   2.045
 4860TIP3    H214538   0.891   5.585   1.983
 4861TIP3   OH214539   5.295   7.205   3.389
 4861TIP3    H114540   5.325   7.249   3.310
 4861TIP3    H214541   5.365   7.220   3.453
 4862TIP3   OH214542   7.100   3.968   5.271
 4862TIP3    H114543   7.097   4.064   5.277
 4862TIP3    H214544   7.171   3.943   5.330
 4863TIP3   OH214545   1.629   7.163   5.649
 4863TIP3    H114546   1.723   7.148   5.657
 4863TIP3    H214547   1.608   7.222   5.721
 4864TIP3   OH214548   2.007   6.994   5.210
 4864TIP3    H114549   1.972   7.081   5.189
 4864TIP3    H214550   1.949   6.961   5.278
 4865TIP3   OH214551   6.627   0.546   0.474
 4865TIP3    H114552   6.671   0.588   0.548
 4865TIP3    H214553   6.675   0.464   0.461
 4866TIP3   OH214554   7.262   4.673   3.584
 4866TIP3    H114555   7.343   4.704   3.542
 4866TIP3    H214556   7.287   4.657   3.675
 4867TIP3   OH214557   3.699   2.197   0.170
 4867TIP3    H114558   3.687   2.281   0.214
 4867TIP3    H214559   3.614   2.154   0.176
 4868TIP3   OH214560   0.177   1.553   2.016
 4868TIP3    H114561   0.202   1.540   1.924
 4868TIP3    H214562   0.173   1.648   2.026
 4869TIP3   OH214563   3.281   3.199   2.169
 4869TIP3    H114564   3.211   3.175   2.231
 4869TIP3    H214565   3.255   3.285   2.136
 4870TIP3   OH214566   3.236   0.820   3.055
 4870TIP3    H114567   3.143   0.839   3.041
 4870TIP3    H214568   3.264   0.775   2.975
 4871TIP3   OH214569   8.129   0.283   4.605
 4871TIP3    H114570   8.139   0.290   4.700
 4871TIP3    H214571   8.040   0.314   4.588
 4872TIP3   OH214572   7.697   2.759   4.884
 4872TIP3    H114573   7.749   2.793   4.811
 4872TIP3    H214574   7.761   2.745   4.954
 4873TIP3   OH214575   4.488   0.222   5.960
 4873TIP3    H114576   4.439   0.208   5.879
 4873TIP3    H214577   4.512   0.134   5.989
 4874TIP3   OH214578   5.167   2.381   4.527
 4874TIP3    H114579   5.206   2.415   4.608
 4874TIP3    H214580   5.128   2.458   4.485
 4875TIP3   OH214581   8.290   4.309   4.233
 4875TIP3    H114582   8.272   4.233   4.178
 4875TIP3    H214583   8.317   4.378   4.172
 4876TIP3   OH214584   2.892   0.993   0.882
 4876TIP3    H114585   2.865   1.000   0.974
 4876TIP3    H214586   2.818   1.031   0.833
 4877TIP3   OH214587   0.681   0.280   3.378
 4877TIP3    H114588   0.718   0.289   3.291
 4877TIP3    H214589   0.718   0.199   3.413
 4878TIP3   OH214590   2.167   7.605   6.745
 4878TIP3    H114591   2.132   7.644   6.826
 4878TIP3    H214592   2.218   7.530   6.776
 4879TIP3   OH214593   3.897   0.612   2.790
 4879TIP3    H114594   3.991   0.620   2.774
 4879TIP3    H214595   3.882   0.658   2.872
 4880TIP3   OH214596   7.178   4.592   4.581
 4880TIP3    H114597   7.109   4.643   4.538
 4880TIP3    H214598   7.259   4.640   4.562
 4881TIP3   OH214599   7.333   4.506   3.856
 4881TIP3    H114600   7.277   4.509   3.934
 4881TIP3    H214601   7.372   4.418   3.858
 4882TIP3   OH214602   7.046   6.368   0.353
 4882TIP3    H114603   7.057   6.344   0.261
 4882TIP3    H214604   6.955   6.347   0.373
 4883TIP3   OH214605   2.434   4.840   1.976
 4883TIP3    H114606   2.475   4.920   2.009
 4883TIP3    H214607   2.371   4.817   2.044
 4884TIP3   OH214608   7.068   2.091   2.560
 4884TIP3    H114609   7.056   2.147   2.483
 4884TIP3    H214610   7.120   2.017   2.528
 4885TIP3   OH214611   0.489   6.757   6.263
 4885TIP3    H114612   0.443   6.774   6.181
 4885TIP3    H214613   0.433   6.795   6.331
 4886TIP3   OH214614   0.056   2.794   3.943
 4886TIP3    H114615   0.144   2.775   3.911
 4886TIP3    H214616   0.069   2.819   4.035
 4887TIP3   OH214617   6.883   6.676   0.613
 4887TIP3    H114618   6.943   6.702   0.543
 4887TIP3    H214619   6.805   6.642   0.567
 4888TIP3   OH214620   4.357   2.958   1.756
 4888TIP3    H114621   4.312   2.978   1.838
 4888TIP3    H214622   4.287   2.927   1.698
 4889TIP3   OH214623   6.554   0.910   1.370
 4889TIP3    H114624   6.577   0.944   1.457
 4889TIP3    H214625   6.638   0.882   1.333
 4890TIP3   OH214626   5.879   2.762   2.317
 4890TIP3    H114627   5.912   2.838   2.364
 4890TIP3    H214628   5.827   2.799   2.245
 4891TIP3   OH214629   1.541   0.476   1.933
 4891TIP3    H114630   1.574   0.399   1.886
 4891TIP3    H214631   1.561   0.459   2.025
 4892TIP3   OH214632   0.496   1.581   4.690
 4892TIP3    H114633   0.520   1.641   4.761
 4892TIP3    H214634   0.491   1.495   4.731
 4893TIP3   OH214635   6.224   2.638   5.151
 4893TIP3    H114636   6.175   2.625   5.070
 4893TIP3    H214637   6.191   2.721   5.186
 4894TIP3   OH214638   7.614   1.852   2.332
 4894TIP3    H114639   7.532   1.826   2.291
 4894TIP3    H214640   7.590   1.925   2.389
 4895TIP3   OH214641   3.170   4.739   5.914
 4895TIP3    H114642   3.075   4.728   5.915
 4895TIP3    H214643   3.185   4.823   5.957
 4896TIP3   OH214644   0.930   6.099   0.622
 4896TIP3    H114645   0.992   6.154   0.670
 4896TIP3    H214646   0.969   6.012   0.623
 4897TIP3   OH214647   8.163   7.104   1.318
 4897TIP3    H114648   8.169   7.149   1.403
 4897TIP3    H214649   8.186   7.013   1.338
 4898TIP3   OH214650   5.071   4.625   5.321
 4898TIP3    H114651   5.133   4.692   5.351
 4898TIP3    H214652   4.992   4.675   5.299
 4899TIP3   OH214653   1.741   2.877   2.440
 4899TIP3    H114654   1.793   2.919   2.508
 4899TIP3    H214655   1.791   2.799   2.415
 4900TIP3   OH214656   7.531   3.916   3.527
 4900TIP3    H114657   7.600   3.949   3.585
 4900TIP3    H214658   7.552   3.954   3.442
 4901TIP3   OH214659   5.816   2.167   1.574
 4901TIP3    H114660   5.844   2.084   1.612
 4901TIP3    H214661   5.851   2.166   1.485
 4902TIP3   OH214662   2.169   1.239   3.771
 4902TIP3    H114663   2.161   1.175   3.701
 4902TIP3    H214664   2.170   1.324   3.727
 4903TIP3   OH214665   1.753   6.205   1.083
 4903TIP3    H114666   1.690   6.277   1.088
 4903TIP3    H214667   1.738   6.165   0.997
 4904TIP3   OH214668   4.310   6.606   2.881
 4904TIP3    H114669   4.260   6.674   2.836
 4904TIP3    H214670   4.373   6.576   2.816
 4905TIP3   OH214671   6.979   3.820   4.793
 4905TIP3    H114672   6.957   3.906   4.829
 4905TIP3    H214673   6.973   3.761   4.869
 4906TIP3   OH214674   5.380   7.678   5.476
 4906TIP3    H114675   5.384   7.627   5.557
 4906TIP3    H214676   5.471   7.691   5.451
 4907TIP3   OH214677   3.291   0.775   3.347
 4907TIP3    H114678   3.338   0.693   3.366
 4907TIP3    H214679   3.300   0.786   3.252
 4908TIP3   OH214680   5.383   6.975   2.715
 4908TIP3    H114681   5.442   6.909   2.752
 4908TIP3    H214682   5.318   6.924   2.666
 4909TIP3   OH214683   4.170   7.748   5.665
 4909TIP3    H114684   4.251   7.795   5.644
 4909TIP3    H214685   4.198   7.658   5.680
 4910TIP3   OH214686   7.584   7.470   1.460
 4910TIP3    H114687   7.557   7.383   1.430
 4910TIP3    H214688   7.644   7.452   1.533
 4911TIP3   OH214689   1.150   6.091   4.558
 4911TIP3    H114690   1.161   6.180   4.590
 4911TIP3    H214691   1.198   6.089   4.475
 4912TIP3   OH214692   3.910   5.368   1.970
 4912TIP3    H114693   3.888   5.281   2.004
 4912TIP3    H214694   3.999   5.384   2.000
 4913TIP3   OH214695   1.020   7.564   4.144
 4913TIP3    H114696   1.075   7.600   4.214
 4913TIP3    H214697   1.081   7.516   4.089
 4914TIP3   OH214698   0.979   6.649   2.224
 4914TIP3    H114699   0.939   6.702   2.292
 4914TIP3    H214700   0.922   6.659   2.148
 4915TIP3   OH214701   5.883   5.249   5.337
 4915TIP3    H114702   5.944   5.322   5.352
 4915TIP3    H214703   5.927   5.195   5.271
 4916TIP3   OH214704   5.585   5.218   3.661
 4916TIP3    H114705   5.504   5.268   3.667
 4916TIP3    H214706   5.637   5.246   3.736
 4917TIP3   OH214707   6.298   7.151   5.345
 4917TIP3    H114708   6.379   7.198   5.323
 4917TIP3    H214709   6.239   7.220   5.377
 4918TIP3   OH214710   6.376   0.592   2.581
 4918TIP3    H114711   6.289   0.609   2.618
 4918TIP3    H214712   6.364   0.517   2.523
 4919TIP3   OH214713   8.087   4.382   1.394
 4919TIP3    H114714   8.113   4.447   1.460
 4919TIP3    H214715   8.051   4.309   1.445
 4920TIP3   OH214716   6.945   7.244   1.335
 4920TIP3    H114717   6.944   7.160   1.382
 4920TIP3    H214718   6.915   7.222   1.247
 4921TIP3   OH214719   6.694   1.678   3.373
 4921TIP3    H114720   6.670   1.765   3.405
 4921TIP3    H214721   6.680   1.682   3.279
 4922TIP3   OH214722   5.461   0.483   4.288
 4922TIP3    H114723   5.368   0.492   4.310
 4922TIP3    H214724   5.468   0.395   4.249
 4923TIP3   OH214725   7.276   0.477   5.100
 4923TIP3    H114726   7.281   0.396   5.151
 4923TIP3    H214727   7.306   0.453   5.012
 4924TIP3   OH214728   6.765   6.746   2.472
 4924TIP3    H114729   6.726   6.661   2.451
 4924TIP3    H214730   6.820   6.767   2.397
 4925TIP3   OH214731   4.775   5.512   5.534
 4925TIP3    H114732   4.811   5.468   5.457
 4925TIP3    H214733   4.845   5.508   5.599
 4926TIP3   OH214734   5.940   6.712   1.151
 4926TIP3    H114735   6.017   6.768   1.142
 4926TIP3    H214736   5.911   6.696   1.062
 4927TIP3   OH214737   1.795   0.309   6.571
 4927TIP3    H114738   1.731   0.363   6.524
 4927TIP3    H214739   1.748   0.279   6.649
 4928TIP3   OH214740   0.295   3.143   2.606
 4928TIP3    H114741   0.343   3.063   2.586
 4928TIP3    H214742   0.343   3.181   2.680
 4929TIP3   OH214743   3.843   7.646   6.242
 4929TIP3    H114744   3.858   7.740   6.252
 4929TIP3    H214745   3.796   7.620   6.321
 4930TIP3   OH214746   1.903   7.241   5.634
 4930TIP3    H114747   1.868   7.315   5.585
 4930TIP3    H214748   1.959   7.281   5.701
 4931TIP3   OH214749   5.613   5.986   4.486
 4931TIP3    H114750   5.645   6.075   4.496
 4931TIP3    H214751   5.588   5.959   4.574
 4932TIP3   OH214752   5.166   3.543   0.776
 4932TIP3    H114753   5.185   3.453   0.749
 4932TIP3    H214754   5.222   3.557   0.853
 4933TIP3   OH214755   0.024   2.612   4.918
 4933TIP3    H114756   0.006   2.541   4.856
 4933TIP3    H214757   0.052   2.685   4.862
 4934TIP3   OH214758   0.937   3.098   3.690
 4934TIP3    H114759   0.856   3.055   3.716
 4934TIP3    H214760   0.911   3.157   3.619
 4935TIP3   OH214761   0.651   3.424   3.722
 4935TIP3    H114762   0.692   3.344   3.756
 4935TIP3    H214763   0.559   3.417   3.748
 4936TIP3   OH214764   6.248   5.241   1.194
 4936TIP3    H114765   6.296   5.222   1.113
 4936TIP3    H214766   6.222   5.333   1.186
 4937TIP3   OH214767   5.311   1.538   3.775
 4937TIP3    H114768   5.318   1.443   3.779
 4937TIP3    H214769   5.397   1.568   3.745
 4938TIP3   OH214770   4.340   7.210   5.920
 4938TIP3    H114771   4.285   7.213   5.998
 4938TIP3    H214772   4.430   7.212   5.954
 4939TIP3   OH214773   3.169   6.196   4.723
 4939TIP3    H114774   3.139   6.263   4.662
 4939TIP3    H214775   3.261   6.218   4.739
 4940TIP3   OH214776   4.756   5.451   1.405
 4940TIP3    H114777   4.745   5.380   1.468
 4940TIP3    H214778   4.680   5.444   1.347
 4941TIP3   OH214779   0.728   1.038   2.495
 4941TIP3    H114780   0.767   0.958   2.529
 4941TIP3    H214781   0.797   1.104   2.503
 4942TIP3   OH214782   0.654   6.566   3.339
 4942TIP3    H114783   0.749   6.556   3.345
 4942TIP3    H214784   0.637   6.578   3.246
 4943TIP3   OH214785   3.876   4.037   2.460
 4943TIP3    H114786   3.941   4.000   2.520
 4943TIP3    H214787   3.798   4.049   2.514
 4944TIP3   OH214788   0.952   5.165   1.708
 4944TIP3    H114789   0.864   5.181   1.675
 4944TIP3    H214790   0.944   5.174   1.803
 4945TIP3   OH214791   5.311   7.328   1.071
 4945TIP3    H114792   5.270   7.345   0.986
 4945TIP3    H214793   5.320   7.415   1.111
 4946TIP3   OH214794   0.499   4.238   0.095
 4946TIP3    H114795   0.576   4.203   0.139
 4946TIP3    H214796   0.425   4.199   0.142
 4947TIP3   OH214797   1.418   3.987   3.772
 4947TIP3    H114798   1.432   4.081   3.776
 4947TIP3    H214799   1.333   3.976   3.729
 4948TIP3   OH214800   0.467   6.498   5.146
 4948TIP3    H114801   0.427   6.583   5.125
 4948TIP3    H214802   0.458   6.447   5.066
 4949TIP3   OH214803   1.264   6.909   0.532
 4949TIP3    H114804   1.302   6.923   0.619
 4949TIP3    H214805   1.171   6.895   0.549
 4950TIP3   OH214806   1.281   3.457   2.111
 4950TIP3    H114807   1.265   3.364   2.127
 4950TIP3    H214808   1.278   3.497   2.197
 4951TIP3   OH214809   3.447   0.265   4.435
 4951TIP3    H114810   3.400   0.258   4.518
 4951TIP3    H214811   3.521   0.323   4.454
 4952TIP3   OH214812   2.016   6.589   2.570
 4952TIP3    H114813   1.982   6.677   2.586
 4952TIP3    H214814   1.950   6.546   2.516
 4953TIP3   OH214815   4.776   2.915   5.801
 4953TIP3    H114816   4.704   2.852   5.804
 4953TIP3    H214817   4.761   2.973   5.876
 4954TIP3   OH214818   1.959   3.879   4.418
 4954TIP3    H114819   1.894   3.928   4.368
 4954TIP3    H214820   1.942   3.903   4.509
 4955TIP3   OH214821   6.572   6.542   2.096
 4955TIP3    H114822   6.559   6.635   2.113
 4955TIP3    H214823   6.667   6.529   2.104
 4956TIP3   OH214824   7.995   2.154   2.707
 4956TIP3    H114825   7.962   2.064   2.697
 4956TIP3    H214826   8.048   2.169   2.629
 4957TIP3   OH214827   0.853   4.599   5.146
 4957TIP3    H114828   0.893   4.635   5.226
 4957TIP3    H214829   0.839   4.675   5.090
 4958TIP3   OH214830   7.809   3.368   5.408
 4958TIP3    H114831   7.792   3.408   5.493
 4958TIP3    H214832   7.722   3.345   5.375
 4959TIP3   OH214833   6.128   6.894   6.638
 4959TIP3    H114834   6.149   6.835   6.710
 4959TIP3    H214835   6.175   6.859   6.563
 4960TIP3   OH214836   3.402   7.719   5.219
 4960TIP3    H114837   3.361   7.641   5.257
 4960TIP3    H214838   3.492   7.693   5.202
 4961TIP3   OH214839   6.411   5.132   2.011
 4961TIP3    H114840   6.353   5.150   1.937
 4961TIP3    H214841   6.470   5.063   1.979
 4962TIP3   OH214842   2.110   6.853   0.609
 4962TIP3    H114843   2.047   6.905   0.660
 4962TIP3    H214844   2.188   6.849   0.664
 4963TIP3   OH214845   5.786   0.347   1.342
 4963TIP3    H114846   5.707   0.295   1.358
 4963TIP3    H214847   5.818   0.317   1.257
 4964TIP3   OH214848   4.940   2.246   0.198
 4964TIP3    H114849   4.989   2.260   0.279
 4964TIP3    H214850   4.868   2.188   0.223
 4965TIP3   OH214851   7.066   0.753   4.964
 4965TIP3    H114852   7.161   0.760   4.960
 4965TIP3    H214853   7.043   0.687   4.899
 4966TIP3   OH214854   7.102   4.718   2.578
 4966TIP3    H114855   7.119   4.681   2.491
 4966TIP3    H214856   7.032   4.782   2.564
 4967TIP3   OH214857   6.558   2.954   6.749
 4967TIP3    H114858   6.563   2.898   6.672
 4967TIP3    H214859   6.636   2.933   6.800
 4968TIP3   OH214860   4.553   7.689   3.387
 4968TIP3    H114861   4.565   7.595   3.372
 4968TIP3    H214862   4.634   7.729   3.357
 4969TIP3   OH214863   7.206   4.205   4.181
 4969TIP3    H114864   7.148   4.270   4.142
 4969TIP3    H214865   7.260   4.255   4.243
 4970TIP3   OH214866   0.324   2.317   5.029
 4970TIP3    H114867   0.287   2.399   5.062
 4970TIP3    H214868   0.408   2.342   4.993
 4971TIP3   OH214869   1.998   7.354   5.360
 4971TIP3    H114870   2.027   7.441   5.335
 4971TIP3    H214871   2.079   7.302   5.368
 4972TIP3   OH214872   0.385   4.227   1.241
 4972TIP3    H114873   0.450   4.271   1.185
 4972TIP3    H214874   0.435   4.158   1.285
 4973TIP3   OH214875   5.990   0.505   2.851
 4973TIP3    H114876   5.988   0.473   2.941
 4973TIP3    H214877   5.945   0.437   2.801
 4974TIP3   OH214878   1.707   4.702   2.812
 4974TIP3    H114879   1.737   4.611   2.803
 4974TIP3    H214880   1.787   4.754   2.803
 4975TIP3   OH214881   7.824   4.749   0.576
 4975TIP3    H114882   7.884   4.797   0.519
 4975TIP3    H214883   7.760   4.814   0.605
 4976TIP3   OH214884   4.073   0.091   1.699
 4976TIP3    H114885   4.110   0.141   1.771
 4976TIP3    H214886   3.978   0.098   1.711
 4977TIP3   OH214887   6.253   6.033   2.166
 4977TIP3    H114888   6.280   6.069   2.250
 4977TIP3    H214889   6.334   6.022   2.117
 4978TIP3   OH214890   3.900   3.351   3.267
 4978TIP3    H114891   3.902   3.371   3.174
 4978TIP3    H214892   3.893   3.436   3.310
 4979TIP3   OH214893   1.792   7.670   5.224
 4979TIP3    H114894   1.737   7.592   5.234
 4979TIP3    H214895   1.881   7.639   5.240
 4980TIP3   OH214896   3.490   0.591   3.357
 4980TIP3    H114897   3.524   0.522   3.414
 4980TIP3    H214898   3.530   0.573   3.271
 4981TIP3   OH214899   5.959   5.472   2.270
 4981TIP3    H114900   5.993   5.383   2.274
 4981TIP3    H214901   5.956   5.501   2.361
 4982TIP3   OH214902   0.702   7.448   4.712
 4982TIP3    H114903   0.737   7.431   4.624
 4982TIP3    H214904   0.728   7.371   4.763
 4983TIP3   OH214905   7.716   4.840   2.718
 4983TIP3    H114906   7.647   4.776   2.701
 4983TIP3    H214907   7.674   4.908   2.771
 4984TIP3   OH214908   0.029   6.448   5.878
 4984TIP3    H114909   0.099   6.511   5.895
 4984TIP3    H214910   0.020   6.400   5.960
 4985TIP3   OH214911   2.712   4.488   6.301
 4985TIP3    H114912   2.705   4.393   6.303
 4985TIP3    H214913   2.646   4.519   6.364
 4986TIP3   OH214914   2.504   2.083   0.436
 4986TIP3    H114915   2.583   2.137   0.435
 4986TIP3    H214916   2.520   2.018   0.504
 4987TIP3   OH214917   3.787   5.566   1.793
 4987TIP3    H114918   3.833   5.600   1.717
 4987TIP3    H214919   3.852   5.512   1.839
 4988TIP3   OH214920   7.389   1.769   1.522
 4988TIP3    H114921   7.409   1.713   1.597
 4988TIP3    H214922   7.378   1.708   1.449
 4989TIP3   OH214923   5.673   7.069   2.241
 4989TIP3    H114924   5.719   7.038   2.163
 4989TIP3    H214925   5.674   6.994   2.301
 4990TIP3   OH214926   1.066   1.734   0.930
 4990TIP3    H114927   1.074   1.828   0.910
 4990TIP3    H214928   1.152   1.708   0.962
 4991TIP3   OH214929   1.495   0.439   6.140
 4991TIP3    H114930   1.486   0.534   6.142
 4991TIP3    H214931   1.582   0.423   6.104
 4992TIP3   OH214932   5.706   7.302   1.963
 4992TIP3    H114933   5.669   7.238   2.024
 4992TIP3    H214934   5.718   7.381   2.016
 4993TIP3   OH214935   4.209   3.655   4.356
 4993TIP3    H114936   4.198   3.644   4.262
 4993TIP3    H214937   4.254   3.740   4.365
 4994TIP3   OH214938   7.138   3.736   3.509
 4994TIP3    H114939   7.191   3.658   3.492
 4994TIP3    H214940   7.194   3.792   3.563
 4995TIP3   OH214941   7.663   2.527   1.667
 4995TIP3    H114942   7.667   2.441   1.710
 4995TIP3    H214943   7.662   2.589   1.739
 4996TIP3   OH214944   7.402   4.236   4.865
 4996TIP3    H114945   7.341   4.163   4.882
 4996TIP3    H214946   7.473   4.196   4.815
 4997TIP3   OH214947   6.367   0.339   2.850
 4997TIP3    H114948   6.436   0.356   2.786
 4997TIP3    H214949   6.371   0.413   2.910
 4998TIP3   OH214950   3.352   2.320   2.942
 4998TIP3    H114951   3.411   2.325   2.867
 4998TIP3    H214952   3.408   2.290   3.014
 4999TIP3   OH214953   3.976   6.966   3.007
 4999TIP3    H114954   3.931   6.997   3.086
 4999TIP3    H214955   4.005   7.047   2.963
 5000TIP3   OH214956   4.883   4.038   3.685
 5000TIP3    H114957   4.901   4.127   3.716
 5000TIP3    H214958   4.961   4.014   3.636
 5001TIP3   OH214959   3.304   5.029   5.070
 5001TIP3    H114960   3.380   5.005   5.124
 5001TIP3    H214961   3.300   5.125   5.076
 5002TIP3   OH214962   5.459   1.407   2.640
 5002TIP3    H114963   5.460   1.488   2.588
 5002TIP3    H214964   5.500   1.342   2.584
 5003TIP3   OH214965   3.900   3.419   1.655
 5003TIP3    H114966   3.964   3.466   1.709
 5003TIP3    H214967   3.932   3.329   1.655
 5004TIP3   OH214968   1.035   4.359   4.260
 5004TIP3    H114969   1.006   4.270   4.242
 5004TIP3    H214970   1.101   4.377   4.194
 5005TIP3   OH214971   3.321   7.505   3.000
 5005TIP3    H114972   3.306   7.494   3.094
 5005TIP3    H214973   3.247   7.462   2.958
 5006TIP3   OH214974   7.609   7.025   1.119
 5006TIP3    H114975   7.676   7.042   1.184
 5006TIP3    H214976   7.571   7.111   1.099
 5007TIP3   OH214977   4.691   3.732   1.027
 5007TIP3    H114978   4.772   3.687   1.050
 5007TIP3    H214979   4.623   3.686   1.076
 5008TIP3   OH214980   1.809   1.237   2.758
 5008TIP3    H114981   1.813   1.312   2.816
 5008TIP3    H214982   1.715   1.224   2.742
 5009TIP3   OH214983   1.036   4.381   1.717
 5009TIP3    H114984   1.063   4.296   1.683
 5009TIP3    H214985   1.059   4.379   1.810
 5010TIP3   OH214986   0.262   6.945   0.227
 5010TIP3    H114987   0.261   7.016   0.163
 5010TIP3    H214988   0.267   6.865   0.174
 5011TIP3   OH214989   8.021   1.191   2.826
 5011TIP3    H114990   7.973   1.164   2.749
 5011TIP3    H214991   8.113   1.184   2.801
 5012TIP3   OH214992   3.201   1.577   3.624
 5012TIP3    H114993   3.261   1.557   3.696
 5012TIP3    H214994   3.121   1.607   3.666
 5013TIP3   OH214995   8.279   5.184   3.590
 5013TIP3    H114996   8.270   5.209   3.682
 5013TIP3    H214997   8.200   5.218   3.548
 5014TIP3   OH214998   8.128   2.853   1.212
 5014TIP3    H114999   8.079   2.867   1.293
 5014TIP3    H215000   8.091   2.915   1.150
 5015TIP3   OH215001   3.468   3.605   3.382
 5015TIP3    H115002   3.418   3.527   3.357
 5015TIP3    H215003   3.498   3.642   3.299
 5016TIP3   OH215004   3.607   1.726   1.722
 5016TIP3    H115005   3.599   1.637   1.755
 5016TIP3    H215006   3.568   1.723   1.634
 5017TIP3   OH215007   7.391   2.351   4.760
 5017TIP3    H115008   7.322   2.386   4.703
 5017TIP3    H215009   7.450   2.425   4.775
 5018TIP3   OH215010   3.258   5.959   5.750
 5018TIP3    H115011   3.266   5.889   5.814
 5018TIP3    H215012   3.312   5.931   5.677
 5019TIP3   OH215013   2.895   2.607   4.698
 5019TIP3    H115014   2.961   2.592   4.631
 5019TIP3    H215015   2.919   2.692   4.736
 5020TIP3   OH215016   5.837   1.918   4.657
 5020TIP3    H115017   5.817   1.854   4.589
 5020TIP3    H215018   5.926   1.947   4.637
 5021TIP3   OH215019   0.421   1.410   2.180
 5021TIP3    H115020   0.504   1.439   2.218
 5021TIP3    H215021   0.383   1.489   2.142
 5022TIP3   OH215022   0.464   6.303   3.705
 5022TIP3    H115023   0.497   6.353   3.630
 5022TIP3    H215024   0.508   6.340   3.781
 5023TIP3   OH215025   6.513   5.194   4.094
 5023TIP3    H115026   6.488   5.148   4.013
 5023TIP3    H215027   6.531   5.284   4.066
 5024TIP3   OH215028   6.053   0.291   5.893
 5024TIP3    H115029   6.093   0.302   5.979
 5024TIP3    H215030   6.082   0.367   5.843
 5025TIP3   OH215031   3.357   5.648   5.485
 5025TIP3    H115032   3.355   5.739   5.455
 5025TIP3    H215033   3.268   5.615   5.468
 5026TIP3   OH215034   4.094   0.270   0.532
 5026TIP3    H115035   4.111   0.205   0.601
 5026TIP3    H215036   4.164   0.257   0.469
 5027TIP3   OH215037   5.450   2.739   1.671
 5027TIP3    H115038   5.542   2.716   1.666
 5027TIP3    H215039   5.407   2.681   1.608
 5028TIP3   OH215040   3.016   5.290   0.378
 5028TIP3    H115041   3.005   5.210   0.431
 5028TIP3    H215042   3.074   5.263   0.307
 5029TIP3   OH215043   5.038   4.092   4.552
 5029TIP3    H115044   5.116   4.102   4.607
 5029TIP3    H215045   4.971   4.144   4.596
 5030TIP3   OH215046   5.637   4.840   2.555
 5030TIP3    H115047   5.545   4.827   2.531
 5030TIP3    H215048   5.684   4.771   2.508
 5031TIP3   OH215049   1.706   6.707   4.391
 5031TIP3    H115050   1.714   6.724   4.297
 5031TIP3    H215051   1.784   6.656   4.413
 5032TIP3   OH215052   3.163   6.285   0.686
 5032TIP3    H115053   3.177   6.227   0.611
 5032TIP3    H215054   3.229   6.354   0.675
 5033TIP3   OH215055   2.529   2.997   6.748
 5033TIP3    H115056   2.575   2.951   6.678
 5033TIP3    H215057   2.438   3.000   6.718
 5034TIP3   OH215058   6.398   5.757   1.541
 5034TIP3    H115059   6.388   5.705   1.460
 5034TIP3    H215060   6.442   5.837   1.512
 5035TIP3   OH215061   3.886   6.419   3.494
 5035TIP3    H115062   3.889   6.339   3.441
 5035TIP3    H215063   3.912   6.389   3.582
 5036TIP3   OH215064   4.566   2.753   5.818
 5036TIP3    H115065   4.498   2.702   5.862
 5036TIP3    H215066   4.525   2.785   5.738
 5037TIP3   OH215067   4.716   5.948   1.010
 5037TIP3    H115068   4.652   5.880   1.030
 5037TIP3    H215069   4.731   5.993   1.093
 5038TIP3   OH215070   3.054   2.136   1.354
 5038TIP3    H115071   3.012   2.210   1.312
 5038TIP3    H215072   2.983   2.087   1.395
 5039TIP3   OH215073   0.351   7.508   0.966
 5039TIP3    H115074   0.377   7.568   0.896
 5039TIP3    H215075   0.264   7.479   0.942
 5040TIP3   OH215076   6.867   7.226   2.639
 5040TIP3    H115077   6.941   7.210   2.698
 5040TIP3    H215078   6.904   7.279   2.569
 5041TIP3   OH215079   7.564   5.866   0.455
 5041TIP3    H115080   7.575   5.816   0.373
 5041TIP3    H215081   7.506   5.812   0.508
 5042TIP3   OH215082   2.642   2.831   3.495
 5042TIP3    H115083   2.680   2.761   3.442
 5042TIP3    H215084   2.566   2.791   3.538
 5043TIP3   OH215085   4.213   0.150   3.948
 5043TIP3    H115086   4.152   0.201   4.001
 5043TIP3    H215087   4.246   0.082   4.006
 5044TIP3   OH215088   1.420   6.768   1.642
 5044TIP3    H115089   1.463   6.752   1.726
 5044TIP3    H215090   1.343   6.710   1.644
 5045TIP3   OH215091   1.537   5.171   2.255
 5045TIP3    H115092   1.490   5.252   2.271
 5045TIP3    H215093   1.468   5.105   2.242
 5046TIP3   OH215094   4.565   6.125   3.079
 5046TIP3    H115095   4.602   6.185   3.145
 5046TIP3    H215096   4.528   6.054   3.130
 5047TIP3   OH215097   7.958   0.049   5.075
 5047TIP3    H115098   7.897   0.023   5.143
 5047TIP3    H215099   7.957  -0.024   5.013
 5048TIP3   OH215100   1.789   6.274   2.278
 5048TIP3    H115101   1.821   6.202   2.224
 5048TIP3    H215102   1.772   6.235   2.363
 5049TIP3   OH215103   7.786   3.896   0.967
 5049TIP3    H115104   7.823   3.808   0.963
 5049TIP3    H215105   7.759   3.906   1.058
 5050TIP3   OH215106   6.408   3.999   1.801
 5050TIP3    H115107   6.377   4.062   1.736
 5050TIP3    H215108   6.499   4.024   1.817
 5051TIP3   OH215109   3.709   6.218   0.078
 5051TIP3    H115110   3.675   6.234  -0.010
 5051TIP3    H215111   3.738   6.127   0.076
 5052TIP3   OH215112   8.252   3.279   1.235
 5052TIP3    H115113   8.194   3.298   1.308
 5052TIP3    H215114   8.325   3.340   1.246
 5053TIP3   OH215115   8.041   6.121   1.361
 5053TIP3    H115116   8.108   6.142   1.426
 5053TIP3    H215117   8.088   6.080   1.289
 5054TIP3   OH215118   1.085   5.365   5.103
 5054TIP3    H115119   1.167   5.396   5.067
 5054TIP3    H215120   1.068   5.422   5.179
 5055TIP3   OH215121   2.074   2.503   4.157
 5055TIP3    H115122   2.026   2.481   4.237
 5055TIP3    H215123   2.146   2.558   4.186
 5056TIP3   OH215124   7.202   3.577   6.380
 5056TIP3    H115125   7.123   3.631   6.381
 5056TIP3    H215126   7.171   3.490   6.353
 5057TIP3   OH215127   3.037   5.447   2.303
 5057TIP3    H115128   2.963   5.499   2.335
 5057TIP3    H215129   3.063   5.394   2.378
 5058TIP3   OH215130   5.675   4.811   6.132
 5058TIP3    H115131   5.585   4.825   6.104
 5058TIP3    H215132   5.724   4.801   6.050
 5059TIP3   OH215133   7.963   0.099   3.672
 5059TIP3    H115134   7.897   0.030   3.681
 5059TIP3    H215135   8.036   0.069   3.726
 5060TIP3   OH215136   1.041   3.383   6.022
 5060TIP3    H115137   1.064   3.322   5.951
 5060TIP3    H215138   0.946   3.377   6.028
 5061TIP3   OH215139   2.644   2.577   6.376
 5061TIP3    H115140   2.732   2.573   6.339
 5061TIP3    H215141   2.626   2.487   6.404
 5062TIP3   OH215142   4.751   1.223   3.868
 5062TIP3    H115143   4.771   1.141   3.824
 5062TIP3    H215144   4.663   1.246   3.839
 5063TIP3   OH215145   3.249   7.810   3.256
 5063TIP3    H115146   3.231   7.864   3.333
 5063TIP3    H215147   3.167   7.761   3.241
 5064TIP3   OH215148   6.112   0.802   1.187
 5064TIP3    H115149   6.186   0.784   1.245
 5064TIP3    H215150   6.130   0.750   1.108
 5065TIP3   OH215151   3.789   3.970   4.130
 5065TIP3    H115152   3.794   3.954   4.036
 5065TIP3    H215153   3.855   3.912   4.168
 5066TIP3   OH215154   6.204   0.536   6.035
 5066TIP3    H115155   6.258   0.573   5.965
 5066TIP3    H215156   6.267   0.499   6.097
 5067TIP3   OH215157   2.365   2.333   3.671
 5067TIP3    H115158   2.456   2.362   3.680
 5067TIP3    H215159   2.362   2.250   3.717
 5068TIP3   OH215160   0.573   4.219   3.906
 5068TIP3    H115161   0.554   4.126   3.913
 5068TIP3    H215162   0.641   4.236   3.970
 5069TIP3   OH215163   0.700   6.731   5.818
 5069TIP3    H115164   0.709   6.721   5.913
 5069TIP3    H215165   0.682   6.643   5.785
 5070TIP3   OH215166   0.337   4.243   4.616
 5070TIP3    H115167   0.277   4.234   4.542
 5070TIP3    H215168   0.281   4.262   4.691
 5071TIP3   OH215169   8.024   3.095   2.254
 5071TIP3    H115170   8.069   3.160   2.308
 5071TIP3    H215171   7.936   3.092   2.290
 5072TIP3   OH215172   6.934   7.181   3.557
 5072TIP3    H115173   7.015   7.206   3.514
 5072TIP3    H215174   6.877   7.258   3.550
 5073TIP3   OH215175   0.036   6.511   2.360
 5073TIP3    H115176   0.103   6.579   2.360
 5073TIP3    H215177  -0.018   6.531   2.283
 5074TIP3   OH215178   5.200   4.902   0.501
 5074TIP3    H115179   5.174   4.994   0.505
 5074TIP3    H215180   5.276   4.895   0.558
 5075TIP3   OH215181   7.529   4.352   5.093
 5075TIP3    H115182   7.508   4.309   5.011
 5075TIP3    H215183   7.618   4.384   5.082
 5076TIP3   OH215184   0.449   1.266   5.389
 5076TIP3    H115185   0.523   1.241   5.444
 5076TIP3    H215186   0.429   1.186   5.339
 5077TIP3   OH215187   4.770   3.791   4.334
 5077TIP3    H115188   4.822   3.798   4.414
 5077TIP3    H215189   4.692   3.743   4.361
 5078TIP3   OH215190   0.767   3.707   4.366
 5078TIP3    H115191   0.831   3.735   4.301
 5078TIP3    H215192   0.705   3.780   4.372
 5079TIP3   OH215193   3.339   5.591   1.086
 5079TIP3    H115194   3.313   5.682   1.072
 5079TIP3    H215195   3.276   5.540   1.035
 5080TIP3   OH215196   5.399   4.361   1.582
 5080TIP3    H115197   5.474   4.305   1.564
 5080TIP3    H215198   5.369   4.334   1.669
 5081TIP3   OH215199   1.003   4.047   2.341
 5081TIP3    H115200   0.936   3.984   2.368
 5081TIP3    H215201   1.002   4.044   2.245
 5082TIP3   OH215202   4.554   7.307   1.590
 5082TIP3    H115203   4.615   7.247   1.548
 5082TIP3    H215204   4.544   7.379   1.527
 5083TIP3   OH215205   5.080   5.481   0.967
 5083TIP3    H115206   5.010   5.479   1.032
 5083TIP3    H215207   5.100   5.574   0.956
 5084TIP3   OH215208   8.198   6.038   3.972
 5084TIP3    H115209   8.175   6.129   3.992
 5084TIP3    H215210   8.123   5.987   4.000
 5085TIP3   OH215211   4.805   0.882   0.255
 5085TIP3    H115212   4.835   0.815   0.194
 5085TIP3    H215213   4.710   0.885   0.244
 5086TIP3   OH215214   3.240   2.581   2.777
 5086TIP3    H115215   3.241   2.489   2.751
 5086TIP3    H215216   3.298   2.625   2.715
 5087TIP3   OH215217   3.061   0.657   2.303
 5087TIP3    H115218   3.003   0.658   2.227
 5087TIP3    H215219   3.104   0.571   2.300
 5088TIP3   OH215220   7.677   5.566   2.674
 5088TIP3    H115221   7.694   5.493   2.614
 5088TIP3    H215222   7.764   5.597   2.698
 5089TIP3   OH215223   4.349   7.769   5.085
 5089TIP3    H115224   4.431   7.818   5.076
 5089TIP3    H215225   4.345   7.748   5.178
 5090TIP3   OH215226   1.623   6.971   1.757
 5090TIP3    H115227   1.638   6.910   1.685
 5090TIP3    H215228   1.709   7.009   1.776
 5091TIP3   OH215229   0.490   7.112   2.344
 5091TIP3    H115230   0.557   7.061   2.389
 5091TIP3    H215231   0.486   7.194   2.392
 5092TIP3   OH215232   2.172   5.367   6.767
 5092TIP3    H115233   2.140   5.315   6.693
 5092TIP3    H215234   2.234   5.310   6.811
 5093TIP3   OH215235   2.853   0.562   6.336
 5093TIP3    H115236   2.823   0.492   6.394
 5093TIP3    H215237   2.799   0.637   6.358
 5094TIP3   OH215238   7.258   3.567   1.331
 5094TIP3    H115239   7.345   3.600   1.352
 5094TIP3    H215240   7.199   3.641   1.350
 5095TIP3   OH215241   6.665   5.334   4.626
 5095TIP3    H115242   6.728   5.275   4.585
 5095TIP3    H215243   6.706   5.360   4.708
 5096TIP3   OH215244   6.775   4.868   6.265
 5096TIP3    H115245   6.714   4.933   6.301
 5096TIP3    H215246   6.824   4.836   6.341
 5097TIP3   OH215247   5.034   6.859   2.038
 5097TIP3    H115248   5.083   6.857   1.956
 5097TIP3    H215249   5.051   6.774   2.078
 5098TIP3   OH215250   0.441   7.060   2.749
 5098TIP3    H115251   0.364   7.022   2.705
 5098TIP3    H215252   0.405   7.132   2.801
 5099TIP3   OH215253   1.408   3.450   4.801
 5099TIP3    H115254   1.480   3.414   4.853
 5099TIP3    H215255   1.342   3.475   4.866
 5100TIP3   OH215256   0.741   7.632   6.231
 5100TIP3    H115257   0.768   7.547   6.266
 5100TIP3    H215258   0.822   7.684   6.230
 5101TIP3   OH215259   4.338   7.009   4.897
 5101TIP3    H115260   4.242   7.004   4.899
 5101TIP3    H215261   4.356   7.081   4.836
 5102TIP3   OH215262   4.449   7.378   6.574
 5102TIP3    H115263   4.378   7.393   6.637
 5102TIP3    H215264   4.426   7.433   6.499
 5103TIP3   OH215265   6.790   2.893   0.422
 5103TIP3    H115266   6.759   2.803   0.415
 5103TIP3    H215267   6.713   2.947   0.408
 5104TIP3   OH215268   2.681   6.076   2.329
 5104TIP3    H115269   2.683   6.170   2.348
 5104TIP3    H215270   2.767   6.057   2.293
 5105TIP3   OH215271   4.471   3.682   5.137
 5105TIP3    H115272   4.410   3.648   5.072
 5105TIP3    H215273   4.495   3.606   5.190
 5106TIP3   OH215274   3.822   0.871   2.911
 5106TIP3    H115275   3.833   0.957   2.951
 5106TIP3    H215276   3.890   0.817   2.951
 5107TIP3   OH215277   7.045   4.653   4.972
 5107TIP3    H115278   7.124   4.607   4.942
 5107TIP3    H215279   7.034   4.624   5.063
 5108TIP3   OH215280   1.982   5.679   0.209
 5108TIP3    H115281   1.888   5.697   0.202
 5108TIP3    H215282   2.021   5.765   0.227
 5109TIP3   OH215283   3.232   5.888   3.291
 5109TIP3    H115284   3.200   5.825   3.227
 5109TIP3    H215285   3.153   5.929   3.326
 5110TIP3   OH215286   7.149   6.692   2.109
 5110TIP3    H115287   7.188   6.769   2.151
 5110TIP3    H215288   7.224   6.636   2.088
 5111TIP3   OH215289   7.009   2.717   5.611
 5111TIP3    H115290   6.967   2.691   5.528
 5111TIP3    H215291   7.042   2.805   5.594
 5112TIP3   OH215292   1.429   1.782   0.317
 5112TIP3    H115293   1.455   1.777   0.225
 5112TIP3    H215294   1.504   1.746   0.365
 5113TIP3   OH215295   7.593   2.781   6.634
 5113TIP3    H115296   7.616   2.690   6.655
 5113TIP3    H215297   7.665   2.812   6.579
 5114TIP3   OH215298   3.417   3.872   2.444
 5114TIP3    H115299   3.463   3.889   2.526
 5114TIP3    H215300   3.460   3.929   2.380
 5115TIP3   OH215301   0.002   1.854   4.172
 5115TIP3    H115302   0.054   1.930   4.199
 5115TIP3    H215303   0.065   1.782   4.166
 5116TIP3   OH215304   5.477   6.363   2.058
 5116TIP3    H115305   5.467   6.270   2.078
 5116TIP3    H215306   5.571   6.374   2.042
 5117TIP3   OH215307   2.687   0.188   0.672
 5117TIP3    H115308   2.711   0.172   0.764
 5117TIP3    H215309   2.593   0.175   0.669
 5118TIP3   OH215310   1.111   1.648   2.111
 5118TIP3    H115311   1.147   1.688   2.032
 5118TIP3    H215312   1.055   1.715   2.149
 5119TIP3   OH215313   2.139   4.230   4.174
 5119TIP3    H115314   2.207   4.292   4.201
 5119TIP3    H215315   2.119   4.253   4.084
 5120TIP3   OH215316   0.454   7.065   0.406
 5120TIP3    H115317   0.403   7.137   0.444
 5120TIP3    H215318   0.396   7.027   0.339
 5121TIP3   OH215319   1.450   3.373   1.520
 5121TIP3    H115320   1.535   3.329   1.514
 5121TIP3    H215321   1.402   3.322   1.585
 5122TIP3   OH215322   4.158   4.945   0.348
 5122TIP3    H115323   4.115   4.950   0.262
 5122TIP3    H215324   4.240   4.900   0.331
 5123TIP3   OH215325   4.096   7.836   3.332
 5123TIP3    H115326   4.090   7.753   3.379
 5123TIP3    H215327   4.068   7.902   3.396
 5124TIP3   OH215328   6.953   2.076   1.643
 5124TIP3    H115329   6.876   2.045   1.596
 5124TIP3    H215330   6.921   2.146   1.700
 5125TIP3   OH215331   7.516   7.561   1.838
 5125TIP3    H115332   7.532   7.634   1.778
 5125TIP3    H215333   7.430   7.527   1.813
 5126TIP3   OH215334   0.648   6.716   5.433
 5126TIP3    H115335   0.670   6.635   5.479
 5126TIP3    H215336   0.731   6.762   5.423
 5127TIP3   OH215337   1.478   1.539   4.778
 5127TIP3    H115338   1.540   1.550   4.850
 5127TIP3    H215339   1.455   1.446   4.781
 5128TIP3   OH215340   0.454   7.473   0.566
 5128TIP3    H115341   0.456   7.454   0.472
 5128TIP3    H215342   0.453   7.569   0.571
 5129TIP3   OH215343   2.100   3.809   1.477
 5129TIP3    H115344   2.185   3.775   1.451
 5129TIP3    H215345   2.037   3.766   1.419
 5130TIP3   OH215346   2.343   2.179   5.769
 5130TIP3    H115347   2.400   2.210   5.698
 5130TIP3    H215348   2.255   2.186   5.734
 5131TIP3   OH215349   4.557   6.843   4.800
 5131TIP3    H115350   4.493   6.906   4.835
 5131TIP3    H215351   4.591   6.885   4.721
 5132TIP3   OH215352   5.929   3.286   2.569
 5132TIP3    H115353   5.902   3.264   2.658
 5132TIP3    H215354   5.906   3.378   2.558
 5133TIP3   OH215355   3.996   7.671   0.985
 5133TIP3    H115356   4.061   7.709   0.926
 5133TIP3    H215357   3.976   7.740   1.048
 5134TIP3   OH215358   3.531   3.577   6.133
 5134TIP3    H115359   3.561   3.657   6.090
 5134TIP3    H215360   3.588   3.567   6.209
 5135TIP3   OH215361   2.395   0.114   2.689
 5135TIP3    H115362   2.438   0.039   2.731
 5135TIP3    H215363   2.302   0.099   2.703
 5136TIP3   OH215364   7.057   4.262   0.017
 5136TIP3    H115365   7.056   4.349   0.056
 5136TIP3    H215366   6.977   4.220   0.049
 5137TIP3   OH215367   6.796   1.686   5.698
 5137TIP3    H115368   6.804   1.592   5.680
 5137TIP3    H215369   6.886   1.714   5.717
 5138TIP3   OH215370   5.926   5.114   1.049
 5138TIP3    H115371   5.951   5.176   1.118
 5138TIP3    H215372   5.834   5.095   1.065
 5139TIP3   OH215373   1.888   0.812   1.813
 5139TIP3    H115374   1.977   0.822   1.846
 5139TIP3    H215375   1.842   0.762   1.880
 5140TIP3   OH215376   7.542   4.210   0.473
 5140TIP3    H115377   7.593   4.260   0.410
 5140TIP3    H215378   7.591   4.216   0.555
 5141TIP3   OH215379   4.357   1.526   0.161
 5141TIP3    H115380   4.347   1.621   0.151
 5141TIP3    H215381   4.398   1.498   0.079
 5142TIP3   OH215382   5.129   4.645   0.577
 5142TIP3    H115383   5.184   4.723   0.586
 5142TIP3    H215384   5.048   4.667   0.624
 5143TIP3   OH215385   4.903   4.205   0.670
 5143TIP3    H115386   4.924   4.193   0.577
 5143TIP3    H215387   4.979   4.252   0.705
 5144TIP3   OH215388   2.384   0.653   3.968
 5144TIP3    H115389   2.452   0.585   3.963
 5144TIP3    H215390   2.426   0.724   4.017
 5145TIP3   OH215391   2.066   4.090   3.063
 5145TIP3    H115392   2.026   4.027   3.123
 5145TIP3    H215393   1.993   4.143   3.031
 5146TIP3   OH215394   6.412   7.822   2.477
 5146TIP3    H115395   6.352   7.896   2.485
 5146TIP3    H215396   6.405   7.776   2.561
 5147TIP3   OH215397   3.416   0.813   6.060
 5147TIP3    H115398   3.401   0.891   6.114
 5147TIP3    H215399   3.338   0.807   6.004
 5148TIP3   OH215400   7.052   6.080   6.136
 5148TIP3    H115401   7.054   5.986   6.152
 5148TIP3    H215402   7.023   6.118   6.219
 5149TIP3   OH215403   3.837   4.625   0.115
 5149TIP3    H115404   3.888   4.550   0.145
 5149TIP3    H215405   3.748   4.607   0.143
 5150TIP3   OH215406   3.508   1.470   2.551
 5150TIP3    H115407   3.527   1.517   2.632
 5150TIP3    H215408   3.582   1.410   2.540
 5151TIP3   OH215409   6.888   4.670   0.991
 5151TIP3    H115410   6.891   4.710   1.078
 5151TIP3    H215411   6.795   4.656   0.974
 5152TIP3   OH215412   5.564   4.407   5.205
 5152TIP3    H115413   5.492   4.437   5.261
 5152TIP3    H215414   5.619   4.354   5.263
 5153TIP3   OH215415   4.087   1.350   6.185
 5153TIP3    H115416   4.022   1.281   6.196
 5153TIP3    H215417   4.037   1.426   6.157
 5154TIP3   OH215418   6.846   3.398   0.147
 5154TIP3    H115419   6.808   3.359   0.226
 5154TIP3    H215420   6.867   3.322   0.091
 5155TIP3   OH215421   2.254   6.237   3.851
 5155TIP3    H115422   2.292   6.241   3.939
 5155TIP3    H215423   2.305   6.299   3.800
 5156TIP3   OH215424   2.274   1.884   1.140
 5156TIP3    H115425   2.334   1.958   1.147
 5156TIP3    H215426   2.315   1.826   1.076
 5157TIP3   OH215427   6.376   5.102   5.088
 5157TIP3    H115428   6.463   5.066   5.072
 5157TIP3    H215429   6.315   5.032   5.062
 5158TIP3   OH215430   0.278   2.713   1.227
 5158TIP3    H115431   0.204   2.653   1.223
 5158TIP3    H215432   0.282   2.752   1.139
 5159TIP3   OH215433   3.771   7.675   4.151
 5159TIP3    H115434   3.742   7.613   4.217
 5159TIP3    H215435   3.775   7.759   4.198
 5160TIP3   OH215436   7.622   5.605   5.945
 5160TIP3    H115437   7.619   5.689   5.990
 5160TIP3    H215438   7.535   5.595   5.905
 5161TIP3   OH215439   0.872   1.325   4.336
 5161TIP3    H115440   0.924   1.324   4.416
 5161TIP3    H215441   0.819   1.405   4.343
 5162TIP3   OH215442   3.864   1.614   4.601
 5162TIP3    H115443   3.872   1.709   4.595
 5162TIP3    H215444   3.769   1.598   4.596
 5163TIP3   OH215445   6.486   3.382   4.112
 5163TIP3    H115446   6.501   3.471   4.081
 5163TIP3    H215447   6.414   3.350   4.058
 5164TIP3   OH215448   0.938   4.631   5.834
 5164TIP3    H115449   0.884   4.701   5.799
 5164TIP3    H215450   1.024   4.671   5.848
 5165TIP3   OH215451   2.769   7.119   0.556
 5165TIP3    H115452   2.762   7.080   0.468
 5165TIP3    H215453   2.861   7.106   0.580
 5166TIP3   OH215454   2.645   5.511   1.775
 5166TIP3    H115455   2.695   5.480   1.699
 5166TIP3    H215456   2.700   5.578   1.814
 5167TIP3   OH215457   1.516   5.609   1.136
 5167TIP3    H115458   1.570   5.656   1.074
 5167TIP3    H215459   1.428   5.609   1.097
 5168TIP3   OH215460   3.671   5.403   6.499
 5168TIP3    H115461   3.740   5.463   6.471
 5168TIP3    H215462   3.598   5.459   6.523
 5169TIP3   OH215463   4.732   4.983   3.860
 5169TIP3    H115464   4.715   4.909   3.918
 5169TIP3    H215465   4.736   5.059   3.918
 5170TIP3   OH215466   7.329   0.654   1.494
 5170TIP3    H115467   7.318   0.565   1.528
 5170TIP3    H215468   7.412   0.652   1.447
 5171TIP3   OH215469   6.116   2.043   0.439
 5171TIP3    H115470   6.192   2.027   0.494
 5171TIP3    H215471   6.111   1.967   0.381
 5172TIP3   OH215472   0.440   4.878   1.352
 5172TIP3    H115473   0.461   4.792   1.387
 5172TIP3    H215474   0.520   4.906   1.307
 5173TIP3   OH215475   7.513   7.244   3.566
 5173TIP3    H115476   7.475   7.332   3.557
 5173TIP3    H215477   7.557   7.246   3.651
 5174TIP3   OH215478   5.269   5.794   6.569
 5174TIP3    H115479   5.277   5.700   6.553
 5174TIP3    H215480   5.191   5.803   6.624
 5175TIP3   OH215481   7.821   2.356   0.706
 5175TIP3    H115482   7.906   2.327   0.738
 5175TIP3    H215483   7.761   2.285   0.727
 5176TIP3   OH215484   7.112   2.226   6.053
 5176TIP3    H115485   7.028   2.201   6.092
 5176TIP3    H215486   7.159   2.144   6.041
 5177TIP3   OH215487   7.507   3.670   3.317
 5177TIP3    H115488   7.516   3.756   3.276
 5177TIP3    H215489   7.553   3.679   3.401
 5178TIP3   OH215490   1.832   5.208   3.639
 5178TIP3    H115491   1.894   5.266   3.684
 5178TIP3    H215492   1.750   5.218   3.687
 5179TIP3   OH215493   3.538   4.057   5.129
 5179TIP3    H115494   3.535   4.153   5.122
 5179TIP3    H215495   3.552   4.027   5.039
 5180TIP3   OH215496   6.621   2.496   5.410
 5180TIP3    H115497   6.648   2.483   5.320
 5180TIP3    H215498   6.574   2.579   5.410
 5181TIP3   OH215499   7.791   0.552   2.450
 5181TIP3    H115500   7.841   0.506   2.517
 5181TIP3    H215501   7.707   0.572   2.493
 5182TIP3   OH215502   5.929   0.331   5.111
 5182TIP3    H115503   5.941   0.238   5.132
 5182TIP3    H215504   5.979   0.377   5.178
 5183TIP3   OH215505   6.226   4.255   3.755
 5183TIP3    H115506   6.234   4.254   3.659
 5183TIP3    H215507   6.312   4.228   3.787
 5184TIP3   OH215508   0.093   2.562   3.425
 5184TIP3    H115509   0.094   2.657   3.436
 5184TIP3    H215510   0.185   2.537   3.423
 5185TIP3   OH215511   2.469   3.747   2.301
 5185TIP3    H115512   2.460   3.666   2.351
 5185TIP3    H215513   2.504   3.720   2.216
 5186TIP3   OH215514   5.845   6.183   0.541
 5186TIP3    H115515   5.879   6.213   0.626
 5186TIP3    H215516   5.780   6.116   0.564
 5187TIP3   OH215517   5.774   4.712   4.729
 5187TIP3    H115518   5.736   4.797   4.752
 5187TIP3    H215519   5.706   4.668   4.679
 5188TIP3   OH215520   5.674   2.114   3.160
 5188TIP3    H115521   5.697   2.122   3.068
 5188TIP3    H215522   5.719   2.035   3.190
 5189TIP3   OH215523   3.430   4.537   0.633
 5189TIP3    H115524   3.344   4.576   0.646
 5189TIP3    H215525   3.470   4.590   0.564
 5190TIP3   OH215526   6.242   6.173   2.930
 5190TIP3    H115527   6.268   6.081   2.935
 5190TIP3    H215528   6.279   6.212   3.010
 5191TIP3   OH215529   6.714   4.656   0.259
 5191TIP3    H115530   6.703   4.731   0.201
 5191TIP3    H215531   6.657   4.588   0.222
 5192TIP3   OH215532   7.942   5.324   0.910
 5192TIP3    H115533   7.968   5.415   0.920
 5192TIP3    H215534   7.995   5.277   0.975
 5193TIP3   OH215535   2.210   2.175   4.220
 5193TIP3    H115536   2.206   2.100   4.160
 5193TIP3    H215537   2.129   2.169   4.270
 5194TIP3   OH215538   5.457   0.759   4.920
 5194TIP3    H115539   5.406   0.825   4.967
 5194TIP3    H215540   5.523   0.809   4.873
 5195TIP3   OH215541   6.779   4.234   3.893
 5195TIP3    H115542   6.816   4.171   3.956
 5195TIP3    H215543   6.780   4.317   3.940
 5196TIP3   OH215544   7.296   6.472   4.461
 5196TIP3    H115545   7.286   6.549   4.518
 5196TIP3    H215546   7.364   6.420   4.503
 5197TIP3   OH215547   5.576   1.521   0.719
 5197TIP3    H115548   5.658   1.552   0.757
 5197TIP3    H215549   5.560   1.579   0.646
 5198TIP3   OH215550   5.888   0.280   2.749
 5198TIP3    H115551   5.851   0.219   2.685
 5198TIP3    H215552   5.982   0.274   2.736
 5199TIP3   OH215553   6.379   5.778   3.784
 5199TIP3    H115554   6.308   5.719   3.760
 5199TIP3    H215555   6.371   5.790   3.878
 5200TIP3   OH215556   5.738   4.844   4.438
 5200TIP3    H115557   5.818   4.799   4.465
 5200TIP3    H215558   5.709   4.891   4.516
 5201TIP3   OH215559   4.333   0.037   6.328
 5201TIP3    H115560   4.278   0.040   6.250
 5201TIP3    H215561   4.300   0.106   6.385
 5202TIP3   OH215562   4.709   4.681   2.072
 5202TIP3    H115563   4.621   4.647   2.058
 5202TIP3    H215564   4.711   4.764   2.025
 5203TIP3   OH215565   5.397   1.586   0.135
 5203TIP3    H115566   5.432   1.555   0.219
 5203TIP3    H215567   5.470   1.578   0.074
 5204TIP3   OH215568   4.413   6.683   2.002
 5204TIP3    H115569   4.492   6.737   2.010
 5204TIP3    H215570   4.365   6.721   1.928
 5205TIP3   OH215571   3.486   2.756   2.959
 5205TIP3    H115572   3.534   2.792   3.035
 5205TIP3    H215573   3.537   2.680   2.932
 5206TIP3   OH215574   5.162   5.509   3.477
 5206TIP3    H115575   5.186   5.426   3.436
 5206TIP3    H215576   5.192   5.500   3.568
 5207TIP3   OH215577   0.229   1.531   0.794
 5207TIP3    H115578   0.188   1.520   0.879
 5207TIP3    H215579   0.176   1.477   0.735
 5208TIP3   OH215580   1.326   5.044   5.799
 5208TIP3    H115581   1.314   5.052   5.704
 5208TIP3    H215582   1.387   4.971   5.808
 5209TIP3   OH215583   3.375   6.757   6.644
 5209TIP3    H115584   3.394   6.666   6.625
 5209TIP3    H215585   3.288   6.756   6.685
 5210TIP3   OH215586   5.550   2.523   4.566
 5210TIP3    H115587   5.474   2.566   4.527
 5210TIP3    H215588   5.546   2.433   4.535
 5211TIP3   OH215589   0.214   5.972   1.816
 5211TIP3    H115590   0.169   5.888   1.803
 5211TIP3    H215591   0.299   5.948   1.852
 5212TIP3   OH215592   6.405   5.509   5.135
 5212TIP3    H115593   6.316   5.543   5.147
 5212TIP3    H215594   6.400   5.456   5.055
 5213TIP3   OH215595   2.293   5.235   3.518
 5213TIP3    H115596   2.322   5.261   3.605
 5213TIP3    H215597   2.349   5.161   3.495
 5214TIP3   OH215598   5.605   4.555   1.573
 5214TIP3    H115599   5.655   4.566   1.654
 5214TIP3    H215600   5.543   4.485   1.592
 5215TIP3   OH215601   2.744   3.287   5.046
 5215TIP3    H115602   2.765   3.285   4.952
 5215TIP3    H215603   2.816   3.335   5.086
 5216TIP3   OH215604   6.370   7.016   0.382
 5216TIP3    H115605   6.388   7.026   0.289
 5216TIP3    H215606   6.292   7.070   0.397
 5217TIP3   OH215607   3.108   1.790   4.747
 5217TIP3    H115608   3.113   1.697   4.772
 5217TIP3    H215609   3.181   1.803   4.688
 5218TIP3   OH215610   2.192   6.493   4.698
 5218TIP3    H115611   2.244   6.422   4.736
 5218TIP3    H215612   2.128   6.448   4.644
 5219TIP3   OH215613   1.757   3.183   5.438
 5219TIP3    H115614   1.831   3.123   5.433
 5219TIP3    H215615   1.684   3.129   5.467
 5220TIP3   OH215616   0.506   5.435   2.290
 5220TIP3    H115617   0.491   5.501   2.222
 5220TIP3    H215618   0.601   5.428   2.295
 5221TIP3   OH215619   5.522   4.445   3.991
 5221TIP3    H115620   5.495   4.361   3.955
 5221TIP3    H215621   5.601   4.426   4.042
 5222TIP3   OH215622   0.349   5.105   1.990
 5222TIP3    H115623   0.328   5.150   2.072
 5222TIP3    H215624   0.417   5.042   2.015
 5223TIP3   OH215625   5.900   3.162   1.160
 5223TIP3    H115626   5.896   3.245   1.113
 5223TIP3    H215627   5.982   3.165   1.208
 5224TIP3   OH215628   0.675   4.818   0.468
 5224TIP3    H115629   0.699   4.789   0.380
 5224TIP3    H215630   0.671   4.737   0.520
 5225TIP3   OH215631   6.700   2.070   1.435
 5225TIP3    H115632   6.660   2.053   1.521
 5225TIP3    H215633   6.694   1.987   1.389
 5226TIP3   OH215634   2.971   2.867   3.474
 5226TIP3    H115635   2.945   2.953   3.440
 5226TIP3    H215636   2.947   2.806   3.404
 5227TIP3   OH215637   6.568   1.029   2.656
 5227TIP3    H115638   6.482   0.987   2.653
 5227TIP3    H215639   6.552   1.114   2.696
 5228TIP3   OH215640   7.819   2.300   2.190
 5228TIP3    H115641   7.857   2.362   2.253
 5228TIP3    H215642   7.730   2.332   2.175
 5229TIP3   OH215643   1.375   0.576   2.638
 5229TIP3    H115644   1.344   0.540   2.555
 5229TIP3    H215645   1.462   0.538   2.649
 5230TIP3   OH215646   3.759   5.066   6.374
 5230TIP3    H115647   3.812   5.128   6.423
 5230TIP3    H215648   3.819   4.995   6.352
 5231TIP3   OH215649   2.683   5.858   6.675
 5231TIP3    H115650   2.683   5.852   6.579
 5231TIP3    H215651   2.688   5.767   6.705
 5232TIP3   OH215652   2.584   6.434   4.277
 5232TIP3    H115653   2.631   6.382   4.342
 5232TIP3    H215654   2.521   6.484   4.328
 5233TIP3   OH215655   4.245   6.508  -0.011
 5233TIP3    H115656   4.276   6.427  -0.051
 5233TIP3    H215657   4.233   6.486   0.081
 5234TIP3   OH215658   7.038   7.175   3.947
 5234TIP3    H115659   6.977   7.135   4.010
 5234TIP3    H215660   7.032   7.119   3.870
 5235TIP3   OH215661   3.771   3.163   1.300
 5235TIP3    H115662   3.776   3.155   1.395
 5235TIP3    H215663   3.854   3.127   1.268
 5236TIP3   OH215664   1.938   1.130   5.630
 5236TIP3    H115665   1.994   1.082   5.569
 5236TIP3    H215666   1.849   1.113   5.600
 5237TIP3   OH215667   5.072   1.367   1.210
 5237TIP3    H115668   5.114   1.304   1.269
 5237TIP3    H215669   5.093   1.336   1.122
 5238TIP3   OH215670   1.368   2.108   4.242
 5238TIP3    H115671   1.378   2.175   4.174
 5238TIP3    H215672   1.321   2.152   4.313
 5239TIP3   OH215673   7.541   7.743   5.678
 5239TIP3    H115674   7.484   7.695   5.619
 5239TIP3    H215675   7.624   7.751   5.631
 5240TIP3   OH215676   5.050   2.634   2.087
 5240TIP3    H115677   5.134   2.662   2.050
 5240TIP3    H215678   4.984   2.665   2.025
 5241TIP3   OH215679   7.987   7.371   3.664
 5241TIP3    H115680   7.960   7.435   3.597
 5241TIP3    H215681   8.080   7.356   3.647
 5242TIP3   OH215682   0.845   6.326   0.954
 5242TIP3    H115683   0.863   6.232   0.958
 5242TIP3    H215684   0.804   6.346   1.038
 5243TIP3   OH215685   4.358   4.839   3.267
 5243TIP3    H115686   4.392   4.819   3.354
 5243TIP3    H215687   4.302   4.916   3.280
 5244TIP3   OH215688   3.282   0.668   0.939
 5244TIP3    H115689   3.197   0.712   0.937
 5244TIP3    H215690   3.309   0.663   0.847
 5245TIP3   OH215691   1.535   2.742   3.664
 5245TIP3    H115692   1.591   2.748   3.741
 5245TIP3    H215693   1.580   2.795   3.598
 5246TIP3   OH215694   1.822   4.888   5.612
 5246TIP3    H115695   1.833   4.794   5.595
 5246TIP3    H215696   1.739   4.910   5.571
 5247TIP3   OH215697   6.770   5.387   3.778
 5247TIP3    H115698   6.807   5.319   3.833
 5247TIP3    H215699   6.790   5.359   3.688
 5248TIP3   OH215700   5.742   7.715   0.069
 5248TIP3    H115701   5.798   7.792   0.082
 5248TIP3    H215702   5.755   7.691  -0.022
 5249TIP3   OH215703   2.847   1.071   1.154
 5249TIP3    H115704   2.802   1.145   1.195
 5249TIP3    H215705   2.867   1.012   1.226
 5250TIP3   OH215706   2.044   7.406   0.715
 5250TIP3    H115707   2.028   7.337   0.779
 5250TIP3    H215708   1.992   7.380   0.639
 5251TIP3   OH215709   6.659   5.878   2.957
 5251TIP3    H115710   6.678   5.954   2.903
 5251TIP3    H215711   6.710   5.892   3.037
 5252TIP3   OH215712   4.956   7.673   3.933
 5252TIP3    H115713   4.949   7.589   3.979
 5252TIP3    H215714   5.050   7.688   3.924
 5253TIP3   OH215715   0.675   3.359   5.242
 5253TIP3    H115716   0.680   3.288   5.307
 5253TIP3    H215717   0.762   3.400   5.244
 5254TIP3   OH215718   2.055   1.796   0.179
 5254TIP3    H115719   1.973   1.793   0.129
 5254TIP3    H215720   2.039   1.741   0.256
 5255TIP3   OH215721   3.220   3.145   5.001
 5255TIP3    H115722   3.231   3.230   5.042
 5255TIP3    H215723   3.303   3.100   5.017
 5256TIP3   OH215724   2.035   5.577   3.425
 5256TIP3    H115725   1.999   5.598   3.339
 5256TIP3    H215726   2.083   5.656   3.451
 5257TIP3   OH215727   0.219   2.773   5.697
 5257TIP3    H115728   0.204   2.692   5.745
 5257TIP3    H215729   0.167   2.838   5.744
 5258TIP3   OH215730   6.682   4.360   4.691
 5258TIP3    H115731   6.742   4.312   4.634
 5258TIP3    H215732   6.658   4.297   4.758
 5259TIP3   OH215733   1.768   0.557   3.771
 5259TIP3    H115734   1.726   0.480   3.811
 5259TIP3    H215735   1.858   0.555   3.804
 5260TIP3   OH215736   4.727   5.166   2.559
 5260TIP3    H115737   4.664   5.226   2.519
 5260TIP3    H215738   4.685   5.137   2.640
 5261TIP3   OH215739   1.425   0.215   3.986
 5261TIP3    H115740   1.417   0.310   3.977
 5261TIP3    H215741   1.487   0.203   4.058
 5262TIP3   OH215742   0.623   5.511   3.686
 5262TIP3    H115743   0.587   5.543   3.603
 5262TIP3    H215744   0.546   5.498   3.741
 5263TIP3   OH215745   5.010   3.912   4.168
 5263TIP3    H115746   4.948   3.856   4.215
 5263TIP3    H215747   4.980   3.910   4.077
 5264TIP3   OH215748   3.550   4.984   2.024
 5264TIP3    H115749   3.463   4.998   1.986
 5264TIP3    H215750   3.558   4.889   2.031
 5265TIP3   OH215751   3.222   5.031   6.215
 5265TIP3    H115752   3.195   5.025   6.123
 5265TIP3    H215753   3.145   5.066   6.259
 5266TIP3   OH215754   1.337   3.142   6.301
 5266TIP3    H115755   1.332   3.083   6.376
 5266TIP3    H215756   1.265   3.204   6.314
 5267TIP3   OH215757   2.615   0.265   2.797
 5267TIP3    H115758   2.543   0.237   2.853
 5267TIP3    H215759   2.604   0.215   2.716
 5268TIP3   OH215760   2.032   6.783   2.935
 5268TIP3    H115761   2.017   6.877   2.948
 5268TIP3    H215762   1.951   6.751   2.894
 5269TIP3   OH215763   2.979   1.482   0.730
 5269TIP3    H115764   2.982   1.562   0.679
 5269TIP3    H215765   2.976   1.511   0.821
 5270TIP3   OH215766   4.709   4.701   1.011
 5270TIP3    H115767   4.718   4.706   0.915
 5270TIP3    H215768   4.732   4.611   1.033
 5271TIP3   OH215769   7.521   1.776   3.248
 5271TIP3    H115770   7.523   1.870   3.229
 5271TIP3    H215771   7.510   1.735   3.162
 5272TIP3   OH215772   6.168   6.524   6.575
 5272TIP3    H115773   6.129   6.440   6.550
 5272TIP3    H215774   6.101   6.588   6.553
 5273TIP3   OH215775   4.889   3.648   1.256
 5273TIP3    H115776   4.910   3.584   1.188
 5273TIP3    H215777   4.907   3.733   1.216
 5274TIP3   OH215778   7.788   6.527   5.046
 5274TIP3    H115779   7.861   6.496   5.099
 5274TIP3    H215780   7.779   6.461   4.976
 5275TIP3   OH215781   2.346   0.698   3.209
 5275TIP3    H115782   2.434   0.697   3.247
 5275TIP3    H215783   2.289   0.663   3.278
 5276TIP3   OH215784   4.608   7.087   0.529
 5276TIP3    H115785   4.532   7.098   0.472
 5276TIP3    H215786   4.590   7.008   0.579
 5277TIP3   OH215787   1.545   4.887   0.466
 5277TIP3    H115788   1.561   4.831   0.542
 5277TIP3    H215789   1.467   4.850   0.425
 5278TIP3   OH215790   5.758   6.471   3.090
 5278TIP3    H115791   5.731   6.392   3.138
 5278TIP3    H215792   5.763   6.539   3.157
 5279TIP3   OH215793   2.343   5.809   2.971
 5279TIP3    H115794   2.370   5.896   3.002
 5279TIP3    H215795   2.380   5.802   2.883
 5280TIP3   OH215796   4.192   3.061   2.932
 5280TIP3    H115797   4.164   2.974   2.960
 5280TIP3    H215798   4.178   3.062   2.838
 5281TIP3   OH215799   1.861   4.624   5.496
 5281TIP3    H115800   1.948   4.585   5.484
 5281TIP3    H215801   1.825   4.630   5.407
 5282TIP3   OH215802   2.154   5.056   3.281
 5282TIP3    H115803   2.242   5.074   3.248
 5282TIP3    H215804   2.133   5.131   3.335
 5283TIP3   OH215805   2.065   2.022   1.775
 5283TIP3    H115806   2.116   2.099   1.800
 5283TIP3    H215807   2.099   1.952   1.830
 5284TIP3   OH215808   1.205   4.722   1.796
 5284TIP3    H115809   1.299   4.737   1.808
 5284TIP3    H215810   1.164   4.804   1.825
 5285TIP3   OH215811   0.011   2.610   0.390
 5285TIP3    H115812   0.041   2.544   0.453
 5285TIP3    H215813  -0.035   2.674   0.444
 5286TIP3   OH215814   6.853   5.711   2.811
 5286TIP3    H115815   6.901   5.710   2.893
 5286TIP3    H215816   6.791   5.783   2.820
 5287TIP3   OH215817   3.129   4.146   2.628
 5287TIP3    H115818   3.098   4.234   2.607
 5287TIP3    H215819   3.220   4.145   2.597
 5288TIP3   OH215820   7.650   7.091   1.556
 5288TIP3    H115821   7.742   7.069   1.568
 5288TIP3    H215822   7.618   7.107   1.645
 5289TIP3   OH215823   7.693   3.641   0.966
 5289TIP3    H115824   7.602   3.629   0.990
 5289TIP3    H215825   7.741   3.637   1.049
 5290TIP3   OH215826   7.788   4.322   3.076
 5290TIP3    H115827   7.736   4.322   2.995
 5290TIP3    H215828   7.758   4.400   3.123
 5291TIP3   OH215829   1.996   0.447   1.894
 5291TIP3    H115830   1.991   0.355   1.919
 5291TIP3    H215831   2.074   0.480   1.940
 5292TIP3   OH215832   6.603   5.025   4.638
 5292TIP3    H115833   6.515   5.058   4.618
 5292TIP3    H215834   6.628   5.071   4.718
 5293TIP3   OH215835   4.976   7.741   3.049
 5293TIP3    H115836   4.919   7.696   2.986
 5293TIP3    H215837   5.061   7.699   3.039
 5294TIP3   OH215838   1.549   7.431   5.564
 5294TIP3    H115839   1.518   7.516   5.594
 5294TIP3    H215840   1.552   7.377   5.643
 5295TIP3   OH215841   4.213   5.943   3.500
 5295TIP3    H115842   4.301   5.978   3.516
 5295TIP3    H215843   4.205   5.945   3.404
 5296TIP3   OH215844   1.556   0.183   4.234
 5296TIP3    H115845   1.632   0.136   4.197
 5296TIP3    H215846   1.494   0.113   4.256
 5297TIP3   OH215847   1.268   7.703   5.668
 5297TIP3    H115848   1.186   7.654   5.666
 5297TIP3    H215849   1.291   7.706   5.761
 5298TIP3   OH215850   5.529   0.535   3.813
 5298TIP3    H115851   5.466   0.469   3.785
 5298TIP3    H215852   5.544   0.589   3.735
 5299TIP3   OH215853   0.117   7.081   2.025
 5299TIP3    H115854   0.103   7.091   2.119
 5299TIP3    H215855   0.033   7.052   1.991
 5300TIP3   OH215856   7.743   1.346   3.718
 5300TIP3    H115857   7.691   1.336   3.639
 5300TIP3    H215858   7.679   1.359   3.788
 5301TIP3   OH215859   1.602   3.610   1.160
 5301TIP3    H115860   1.629   3.524   1.190
 5301TIP3    H215861   1.633   3.614   1.069
 5302TIP3   OH215862   0.121   3.181   0.897
 5302TIP3    H115863   0.149   3.127   0.823
 5302TIP3    H215864   0.140   3.271   0.871
 5303TIP3   OH215865   7.819   2.535   6.110
 5303TIP3    H115866   7.798   2.597   6.039
 5303TIP3    H215867   7.772   2.455   6.086
 5304TIP3   OH215868   5.862   7.554   5.364
 5304TIP3    H115869   5.818   7.525   5.284
 5304TIP3    H215870   5.808   7.626   5.396
 5305TIP3   OH215871   1.543   6.184   3.605
 5305TIP3    H115872   1.457   6.162   3.640
 5305TIP3    H215873   1.524   6.237   3.527
 5306TIP3   OH215874   6.610   0.401   2.785
 5306TIP3    H115875   6.600   0.494   2.766
 5306TIP3    H215876   6.645   0.399   2.874
 5307TIP3   OH215877   6.010   1.991   1.099
 5307TIP3    H115878   5.917   2.005   1.120
 5307TIP3    H215879   6.051   1.974   1.184
 5308TIP3   OH215880   8.139   6.020   2.776
 5308TIP3    H115881   8.166   6.069   2.699
 5308TIP3    H215882   8.046   6.041   2.786
 5309TIP3   OH215883   1.479   2.034   1.475
 5309TIP3    H115884   1.437   2.018   1.390
 5309TIP3    H215885   1.409   2.021   1.539
 5310TIP3   OH215886   3.061   1.807   1.765
 5310TIP3    H115887   3.069   1.807   1.670
 5310TIP3    H215888   2.974   1.842   1.782
 5311TIP3   OH215889   2.614   0.538   1.497
 5311TIP3    H115890   2.552   0.607   1.519
 5311TIP3    H215891   2.569   0.484   1.432
 5312TIP3   OH215892   2.798   6.315   0.642
 5312TIP3    H115893   2.832   6.378   0.579
 5312TIP3    H215894   2.827   6.347   0.728
 5313TIP3   OH215895   2.283   1.516   0.303
 5313TIP3    H115896   2.367   1.528   0.259
 5313TIP3    H215897   2.270   1.421   0.303
 5314TIP3   OH215898   0.377   3.520   4.220
 5314TIP3    H115899   0.336   3.508   4.134
 5314TIP3    H215900   0.468   3.494   4.207
 5315TIP3   OH215901   5.232   4.574   0.885
 5315TIP3    H115902   5.301   4.595   0.948
 5315TIP3    H215903   5.278   4.559   0.803
 5316TIP3   OH215904   7.526   2.512   1.167
 5316TIP3    H115905   7.564   2.478   1.247
 5316TIP3    H215906   7.452   2.565   1.196
 5317TIP3   OH215907   7.849   4.083   4.514
 5317TIP3    H115908   7.851   4.003   4.567
 5317TIP3    H215909   7.927   4.076   4.459
 5318TIP3   OH215910   8.207   6.065   4.791
 5318TIP3    H115911   8.289   6.059   4.741
 5318TIP3    H215912   8.146   6.010   4.742
 5319TIP3   OH215913   0.663   5.399   5.367
 5319TIP3    H115914   0.588   5.343   5.350
 5319TIP3    H215915   0.732   5.365   5.310
 5320TIP3   OH215916   0.168   3.310   0.199
 5320TIP3    H115917   0.109   3.272   0.264
 5320TIP3    H215918   0.239   3.245   0.191
 5321TIP3   OH215919   1.880   1.990   6.114
 5321TIP3    H115920   1.818   2.025   6.050
 5321TIP3    H215921   1.826   1.970   6.191
 5322TIP3   OH215922   2.636   2.835   6.557
 5322TIP3    H115923   2.727   2.833   6.588
 5322TIP3    H215924   2.631   2.763   6.494
 5323TIP3   OH215925   0.825   2.497   2.040
 5323TIP3    H115926   0.814   2.473   1.948
 5323TIP3    H215927   0.904   2.551   2.041
 5324TIP3   OH215928   1.352   6.699   3.230
 5324TIP3    H115929   1.427   6.641   3.227
 5324TIP3    H215930   1.296   6.664   3.299
 5325TIP3   OH215931   2.713   6.100   4.857
 5325TIP3    H115932   2.647   6.067   4.797
 5325TIP3    H215933   2.667   6.115   4.939
 5326TIP3   OH215934   6.235   3.296   1.853
 5326TIP3    H115935   6.165   3.240   1.887
 5326TIP3    H215936   6.202   3.327   1.768
 5327TIP3   OH215937   4.882   4.761   6.083
 5327TIP3    H115938   4.940   4.836   6.092
 5327TIP3    H215939   4.932   4.688   6.119
 5328TIP3   OH215940   6.933   3.660   4.234
 5328TIP3    H115941   6.990   3.667   4.158
 5328TIP3    H215942   6.875   3.736   4.228
 5329TIP3   OH215943   2.970   6.458   5.707
 5329TIP3    H115944   2.996   6.402   5.634
 5329TIP3    H215945   3.044   6.518   5.718
 5330TIP3   OH215946   4.174   1.013   4.322
 5330TIP3    H115947   4.160   1.003   4.416
 5330TIP3    H215948   4.144   1.102   4.303
 5331TIP3   OH215949   2.780   2.813   2.467
 5331TIP3    H115950   2.728   2.738   2.497
 5331TIP3    H215951   2.870   2.782   2.473
 5332TIP3   OH215952   3.535   4.030   2.271
 5332TIP3    H115953   3.590   3.971   2.220
 5332TIP3    H215954   3.460   4.048   2.214
 5333TIP3   OH215955   7.831   5.026   1.634
 5333TIP3    H115956   7.819   4.976   1.554
 5333TIP3    H215957   7.924   5.018   1.653
 5334TIP3   OH215958   8.156   3.828   4.786
 5334TIP3    H115959   8.234   3.808   4.734
 5334TIP3    H215960   8.188   3.834   4.876
 5335TIP3   OH215961   8.322   6.833   5.241
 5335TIP3    H115962   8.342   6.834   5.147
 5335TIP3    H215963   8.226   6.828   5.245
 5336TIP3   OH215964   3.759   4.252   6.750
 5336TIP3    H115965   3.819   4.281   6.681
 5336TIP3    H215966   3.736   4.332   6.797
 5337TIP3   OH215967   2.259   2.595   3.863
 5337TIP3    H115968   2.223   2.507   3.865
 5337TIP3    H215969   2.344   2.587   3.907
 5338TIP3   OH215970   0.748   5.305   5.818
 5338TIP3    H115971   0.776   5.365   5.887
 5338TIP3    H215972   0.652   5.309   5.820
 5339TIP3   OH215973   1.716   2.825   0.552
 5339TIP3    H115974   1.754   2.846   0.638
 5339TIP3    H215975   1.645   2.765   0.572
 5340TIP3   OH215976   4.271   4.168   6.446
 5340TIP3    H115977   4.360   4.151   6.477
 5340TIP3    H215978   4.278   4.163   6.350
 5341TIP3   OH215979   7.926   1.320   5.452
 5341TIP3    H115980   8.009   1.350   5.489
 5341TIP3    H215981   7.939   1.227   5.437
 5342TIP3   OH215982   6.094   2.130   0.837
 5342TIP3    H115983   6.036   2.120   0.913
 5342TIP3    H215984   6.175   2.165   0.873
 5343TIP3   OH215985   6.096   2.354   5.623
 5343TIP3    H115986   6.028   2.407   5.583
 5343TIP3    H215987   6.077   2.357   5.717
 5344TIP3   OH215988   8.295   1.313   2.896
 5344TIP3    H115989   8.301   1.225   2.859
 5344TIP3    H215990   8.289   1.371   2.819
 5345TIP3   OH215991   0.778   1.557   5.973
 5345TIP3    H115992   0.694   1.586   5.939
 5345TIP3    H215993   0.807   1.629   6.030
 5346TIP3   OH215994   5.404   2.728   3.247
 5346TIP3    H115995   5.372   2.718   3.337
 5346TIP3    H215996   5.435   2.641   3.223
 5347TIP3   OH215997   5.106   3.581   1.731
 5347TIP3    H115998   5.181   3.638   1.712
 5347TIP3    H215999   5.070   3.559   1.645
 5348TIP3   OH216000   8.195   2.796   6.672
 5348TIP3    H116001   8.191   2.700   6.666
 5348TIP3    H216002   8.132   2.819   6.740
 5349TIP3   OH216003   0.508   4.457   3.828
 5349TIP3    H116004   0.589   4.486   3.785
 5349TIP3    H216005   0.516   4.362   3.834
 5350TIP3   OH216006   4.509   1.411   3.804
 5350TIP3    H116007   4.459   1.330   3.812
 5350TIP3    H216008   4.473   1.468   3.872
 5351TIP3   OH216009   6.006   4.509   6.525
 5351TIP3    H116010   5.944   4.572   6.561
 5351TIP3    H216011   6.016   4.535   6.433
 5352TIP3   OH216012   4.651   5.858   0.766
 5352TIP3    H116013   4.616   5.935   0.721
 5352TIP3    H216014   4.663   5.887   0.857
 5353TIP3   OH216015   7.828   5.469   1.250
 5353TIP3    H116016   7.910   5.475   1.298
 5353TIP3    H216017   7.768   5.525   1.300
 5354TIP3   OH216018   8.202   2.522   6.648
 5354TIP3    H116019   8.252   2.479   6.718
 5354TIP3    H216020   8.116   2.540   6.688
 5355TIP3   OH216021   7.871   6.336   0.224
 5355TIP3    H116022   7.844   6.244   0.224
 5355TIP3    H216023   7.961   6.334   0.193
 5356TIP3   OH216024   2.545   6.857   2.744
 5356TIP3    H116025   2.609   6.928   2.747
 5356TIP3    H216026   2.575   6.795   2.811
 5357TIP3   OH216027   3.216   2.408   1.978
 5357TIP3    H116028   3.165   2.465   2.036
 5357TIP3    H216029   3.307   2.432   1.996
 5358TIP3   OH216030   3.871   4.514   0.964
 5358TIP3    H116031   3.964   4.521   0.943
 5358TIP3    H216032   3.867   4.510   1.059
 5359TIP3   OH216033   2.399   6.900   5.071
 5359TIP3    H116034   2.412   6.975   5.128
 5359TIP3    H216035   2.460   6.914   4.998
 5360TIP3   OH216036   6.062   1.629   4.717
 5360TIP3    H116037   6.126   1.689   4.679
 5360TIP3    H216038   6.028   1.675   4.793
 5361TIP3   OH216039   7.424   2.797   5.237
 5361TIP3    H116040   7.395   2.758   5.320
 5361TIP3    H216041   7.424   2.891   5.253
 5362TIP3   OH216042   6.715   1.138   5.264
 5362TIP3    H116043   6.711   1.058   5.210
 5362TIP3    H216044   6.630   1.140   5.308
 5363TIP3   OH216045   3.410   4.171   2.599
 5363TIP3    H116046   3.414   4.190   2.505
 5363TIP3    H216047   3.496   4.133   2.619
 5364TIP3   OH216048   5.450   4.715   1.946
 5364TIP3    H116049   5.443   4.696   2.040
 5364TIP3    H216050   5.393   4.650   1.904
 5365TIP3   OH216051   4.361   0.304   0.106
 5365TIP3    H116052   4.418   0.357   0.050
 5365TIP3    H216053   4.412   0.225   0.124
 5366TIP3   OH216054   7.013   6.177   2.789
 5366TIP3    H116055   7.017   6.271   2.770
 5366TIP3    H216056   6.932   6.147   2.749
 5367TIP3   OH216057   1.531   1.653   5.520
 5367TIP3    H116058   1.606   1.610   5.562
 5367TIP3    H216059   1.456   1.598   5.543
 5368TIP3   OH216060   0.751   0.079   0.616
 5368TIP3    H116061   0.691   0.139   0.572
 5368TIP3    H216062   0.786   0.130   0.689
 5369TIP3   OH216063   5.532   6.689   5.315
 5369TIP3    H116064   5.599   6.756   5.328
 5369TIP3    H216065   5.488   6.715   5.233
 5370TIP3   OH216066   3.729   4.819   5.108
 5370TIP3    H116067   3.773   4.770   5.039
 5370TIP3    H216068   3.751   4.910   5.090
 5371TIP3   OH216069   3.951   3.155   0.388
 5371TIP3    H116070   3.882   3.210   0.425
 5371TIP3    H216071   3.958   3.082   0.449
 5372TIP3   OH216072   6.085   4.337   4.688
 5372TIP3    H116073   6.026   4.379   4.626
 5372TIP3    H216074   6.066   4.378   4.772
 5373TIP3   OH216075   7.392   0.154   1.523
 5373TIP3    H116076   7.360   0.064   1.533
 5373TIP3    H216077   7.473   0.156   1.574
 5374TIP3   OH216078   1.705   5.031   6.380
 5374TIP3    H116079   1.766   5.098   6.348
 5374TIP3    H216080   1.656   5.004   6.303
 5375TIP3   OH216081   1.649   2.203   6.124
 5375TIP3    H116082   1.663   2.233   6.035
 5375TIP3    H216083   1.566   2.243   6.151
 5376TIP3   OH216084   6.909   7.567   5.245
 5376TIP3    H116085   6.899   7.535   5.156
 5376TIP3    H216086   6.996   7.536   5.272
 5377TIP3   OH216087   2.197   0.843   0.333
 5377TIP3    H116088   2.232   0.759   0.363
 5377TIP3    H216089   2.274   0.899   0.326
 5378TIP3   OH216090   7.059   4.673   3.884
 5378TIP3    H116091   7.042   4.611   3.813
 5378TIP3    H216092   6.976   4.680   3.931
 5379TIP3   OH216093   3.157   4.355   1.573
 5379TIP3    H116094   3.131   4.396   1.656
 5379TIP3    H216095   3.251   4.372   1.567
 5380TIP3   OH216096   1.689   1.876   1.500
 5380TIP3    H116097   1.694   1.845   1.591
 5380TIP3    H216098   1.602   1.913   1.492
 5381TIP3   OH216099   1.789   6.981   4.658
 5381TIP3    H116100   1.783   6.910   4.721
 5381TIP3    H216101   1.730   7.049   4.692
 5382TIP3   OH216102   0.314   6.565   1.165
 5382TIP3    H116103   0.262   6.529   1.093
 5382TIP3    H216104   0.276   6.525   1.243
 5383TIP3   OH216105   6.041   7.494   5.656
 5383TIP3    H116106   5.989   7.427   5.701
 5383TIP3    H216107   6.038   7.570   5.715
 5384TIP3   OH216108   0.557   0.504   2.197
 5384TIP3    H116109   0.472   0.544   2.179
 5384TIP3    H216110   0.618   0.578   2.199
 5385TIP3   OH216111   6.692   0.134   5.196
 5385TIP3    H116112   6.740   0.184   5.262
 5385TIP3    H216113   6.624   0.089   5.246
 5386TIP3   OH216114   5.483   4.829   1.194
 5386TIP3    H116115   5.469   4.829   1.289
 5386TIP3    H216116   5.564   4.877   1.182
 5387TIP3   OH216117   2.475   0.802   1.381
 5387TIP3    H116118   2.381   0.794   1.399
 5387TIP3    H216119   2.506   0.867   1.443
 5388TIP3   OH216120   1.260   3.216   5.264
 5388TIP3    H116121   1.288   3.307   5.276
 5388TIP3    H216122   1.305   3.188   5.184
 5389TIP3   OH216123   3.231   5.072   0.518
 5389TIP3    H116124   3.312   5.075   0.466
 5389TIP3    H216125   3.213   5.164   0.539
 5390TIP3   OH216126   8.075   7.285   6.483
 5390TIP3    H116127   8.012   7.337   6.433
 5390TIP3    H216128   8.079   7.201   6.437
 5391TIP3   OH216129   2.873   2.346   5.994
 5391TIP3    H116130   2.849   2.384   6.078
 5391TIP3    H216131   2.819   2.267   5.987
 5392TIP3   OH216132   7.472   2.097   4.312
 5392TIP3    H116133   7.542   2.162   4.304
 5392TIP3    H216134   7.514   2.014   4.294
 5393TIP3   OH216135   1.630   4.721   0.679
 5393TIP3    H116136   1.595   4.636   0.654
 5393TIP3    H216137   1.650   4.712   0.772
 5394TIP3   OH216138   7.514   3.958   0.369
 5394TIP3    H116139   7.540   4.050   0.364
 5394TIP3    H216140   7.487   3.946   0.460
 5395TIP3   OH216141   6.046   2.228   6.167
 5395TIP3    H116142   6.114   2.173   6.129
 5395TIP3    H216143   5.971   2.218   6.108
 5396TIP3   OH216144   5.756   0.177   6.218
 5396TIP3    H116145   5.716   0.244   6.273
 5396TIP3    H216146   5.848   0.200   6.216
 5397TIP3   OH216147   6.856   1.991   0.746
 5397TIP3    H116148   6.782   2.025   0.796
 5397TIP3    H216149   6.922   2.060   0.751
 5398TIP3   OH216150   5.999   5.915   2.905
 5398TIP3    H116151   6.092   5.892   2.912
 5398TIP3    H216152   5.960   5.881   2.985
 5399TIP3   OH216153   0.360   2.021   1.061
 5399TIP3    H116154   0.355   2.112   1.033
 5399TIP3    H216155   0.351   2.025   1.156
 5400TIP3   OH216156   3.885   0.472   4.247
 5400TIP3    H116157   3.877   0.567   4.234
 5400TIP3    H216158   3.857   0.458   4.338
 5401TIP3   OH216159   1.930   7.110   0.246
 5401TIP3    H116160   2.011   7.085   0.289
 5401TIP3    H216161   1.942   7.083   0.155
 5402TIP3   OH216162   3.179   0.027   6.513
 5402TIP3    H116163   3.150   0.013   6.423
 5402TIP3    H216164   3.180   0.122   6.524
 5403TIP3   OH216165   4.619   4.242   0.674
 5403TIP3    H116166   4.711   4.227   0.697
 5403TIP3    H216167   4.621   4.273   0.584
 5404TIP3   OH216168   8.178   7.478   4.714
 5404TIP3    H116169   8.237   7.552   4.725
 5404TIP3    H216170   8.235   7.403   4.698
 5405TIP3   OH216171   6.610   5.932   5.509
 5405TIP3    H116172   6.680   5.997   5.498
 5405TIP3    H216173   6.629   5.891   5.593
 5406TIP3   OH216174   1.042   0.194   4.294
 5406TIP3    H116175   0.975   0.179   4.361
 5406TIP3    H216176   1.037   0.288   4.275
 5407TIP3   OH216177   7.623   0.706   0.306
 5407TIP3    H116178   7.533   0.729   0.331
 5407TIP3    H216179   7.621   0.702   0.211
 5408TIP3   OH216180   8.191   4.274   2.305
 5408TIP3    H116181   8.261   4.220   2.268
 5408TIP3    H216182   8.114   4.218   2.303
 5409TIP3   OH216183   4.968   7.537   2.007
 5409TIP3    H116184   5.054   7.564   2.039
 5409TIP3    H216185   4.921   7.619   1.991
 5410TIP3   OH216186   0.472   7.330   5.609
 5410TIP3    H116187   0.440   7.418   5.588
 5410TIP3    H216188   0.394   7.279   5.628
 5411TIP3   OH216189   5.684   7.400   4.395
 5411TIP3    H116190   5.704   7.434   4.308
 5411TIP3    H216191   5.721   7.312   4.395
 5412TIP3   OH216192   1.348   2.375   4.955
 5412TIP3    H116193   1.367   2.282   4.965
 5412TIP3    H216194   1.304   2.399   5.037
 5413TIP3   OH216195   0.300   0.584   1.117
 5413TIP3    H116196   0.218   0.560   1.160
 5413TIP3    H216197   0.281   0.580   1.023
 5414TIP3   OH216198   6.943   2.671   2.741
 5414TIP3    H116199   6.864   2.630   2.777
 5414TIP3    H216200   7.004   2.672   2.814
 5415TIP3   OH216201   7.797   4.930   1.375
 5415TIP3    H116202   7.795   5.025   1.363
 5415TIP3    H216203   7.889   4.906   1.365
 5416TIP3   OH216204   4.265   5.175   5.927
 5416TIP3    H116205   4.333   5.226   5.971
 5416TIP3    H216206   4.230   5.234   5.860
 5417TIP3   OH216207   4.702   2.451   5.024
 5417TIP3    H116208   4.695   2.500   5.106
 5417TIP3    H216209   4.681   2.515   4.956
 5418TIP3   OH216210   6.509   3.620   3.576
 5418TIP3    H116211   6.598   3.585   3.582
 5418TIP3    H216212   6.478   3.592   3.490
 5419TIP3   OH216213   3.651   1.237   4.151
 5419TIP3    H116214   3.743   1.252   4.129
 5419TIP3    H216215   3.653   1.180   4.228
 5420TIP3   OH216216   3.115   0.189   1.674
 5420TIP3    H116217   3.050   0.119   1.673
 5420TIP3    H216218   3.118   0.217   1.766
 5421TIP3   OH216219   0.717   7.134   0.457
 5421TIP3    H116220   0.671   7.124   0.374
 5421TIP3    H216221   0.658   7.096   0.522
 5422TIP3   OH216222   7.109   3.639   5.303
 5422TIP3    H116223   7.184   3.637   5.243
 5422TIP3    H216224   7.111   3.727   5.341
 5423TIP3   OH216225   2.750   0.362   2.255
 5423TIP3    H116226   2.713   0.366   2.343
 5423TIP3    H216227   2.800   0.280   2.254
 5424TIP3   OH216228   0.306   4.071   0.250
 5424TIP3    H116229   0.323   4.028   0.166
 5424TIP3    H216230   0.315   4.002   0.315
 5425TIP3   OH216231   1.027   3.405   3.726
 5425TIP3    H116232   1.049   3.490   3.762
 5425TIP3    H216233   1.111   3.365   3.705
 5426TIP3   OH216234   6.145   3.341   3.520
 5426TIP3    H116235   6.129   3.318   3.611
 5426TIP3    H216236   6.147   3.437   3.519
 5427TIP3   OH216237   5.560   1.052   4.195
 5427TIP3    H116238   5.651   1.075   4.175
 5427TIP3    H216239   5.511   1.132   4.173
 5428TIP3   OH216240   2.535   2.998   0.731
 5428TIP3    H116241   2.535   2.941   0.655
 5428TIP3    H216242   2.448   3.038   0.731
 5429TIP3   OH216243   7.187   3.161   3.233
 5429TIP3    H116244   7.258   3.151   3.296
 5429TIP3    H216245   7.107   3.154   3.286
 5430TIP3   OH216246   6.904   4.343   2.846
 5430TIP3    H116247   6.934   4.362   2.757
 5430TIP3    H216248   6.824   4.292   2.833
 5431TIP3   OH216249   5.713   5.873   0.113
 5431TIP3    H116250   5.691   5.875   0.019
 5431TIP3    H216251   5.653   5.937   0.152
 5432TIP3   OH216252   0.166   6.689   0.671
 5432TIP3    H116253   0.143   6.693   0.579
 5432TIP3    H216254   0.085   6.666   0.716
 5433TIP3   OH216255   2.410   0.606   4.538
 5433TIP3    H116256   2.475   0.594   4.607
 5433TIP3    H216257   2.395   0.517   4.505
 5434TIP3   OH216258   5.189   4.398   0.476
 5434TIP3    H116259   5.246   4.350   0.537
 5434TIP3    H216260   5.152   4.469   0.529
 5435TIP3   OH216261   5.322   7.735   0.914
 5435TIP3    H116262   5.342   7.812   0.861
 5435TIP3    H216263   5.226   7.736   0.921
 5436TIP3   OH216264   6.746   5.742   4.532
 5436TIP3    H116265   6.661   5.697   4.531
 5436TIP3    H216266   6.775   5.734   4.622
 5437TIP3   OH216267   4.781   4.838   4.238
 5437TIP3    H116268   4.769   4.932   4.226
 5437TIP3    H216269   4.743   4.798   4.160
 5438TIP3   OH216270   8.058   2.140   0.525
 5438TIP3    H116271   7.973   2.136   0.481
 5438TIP3    H216272   8.088   2.049   0.526
 5439TIP3   OH216273   6.709   1.558   2.542
 5439TIP3    H116274   6.624   1.528   2.574
 5439TIP3    H216275   6.688   1.631   2.483
 5440TIP3   OH216276   2.056   6.263   5.834
 5440TIP3    H116277   2.093   6.219   5.757
 5440TIP3    H216278   2.048   6.193   5.899
 5441TIP3   OH216279   1.505   1.958   4.680
 5441TIP3    H116280   1.446   1.902   4.731
 5441TIP3    H216281   1.462   2.043   4.678
 5442TIP3   OH216282   7.490   3.439   4.372
 5442TIP3    H116283   7.526   3.384   4.441
 5442TIP3    H216284   7.499   3.387   4.292
 5443TIP3   OH216285   1.707   2.617   5.622
 5443TIP3    H116286   1.688   2.674   5.547
 5443TIP3    H216287   1.705   2.528   5.586
 5444TIP3   OH216288   7.685   2.668   1.910
 5444TIP3    H116289   7.646   2.702   1.990
 5444TIP3    H216290   7.779   2.661   1.929
 5445TIP3   OH216291   6.819   4.006   6.119
 5445TIP3    H116292   6.764   4.080   6.096
 5445TIP3    H216293   6.817   3.949   6.043
 5446TIP3   OH216294   4.281   6.271   5.590
 5446TIP3    H116295   4.353   6.209   5.605
 5446TIP3    H216296   4.216   6.220   5.542
 5447TIP3   OH216297   0.094   0.424   2.587
 5447TIP3    H116298   0.074   0.387   2.502
 5447TIP3    H216299   0.112   0.349   2.644
 5448TIP3   OH216300   1.017   1.279   4.618
 5448TIP3    H116301   0.938   1.268   4.671
 5448TIP3    H216302   1.012   1.370   4.586
 5449TIP3   OH216303   4.193   6.408   0.243
 5449TIP3    H116304   4.179   6.466   0.318
 5449TIP3    H216305   4.134   6.334   0.259
 5450TIP3   OH216306   1.354   5.100   1.844
 5450TIP3    H116307   1.324   5.154   1.917
 5450TIP3    H216308   1.440   5.067   1.873
 5451TIP3   OH216309   7.342   2.045   3.683
 5451TIP3    H116310   7.404   2.062   3.612
 5451TIP3    H216311   7.395   2.044   3.763
 5452TIP3   OH216312   8.268   4.793   6.804
 5452TIP3    H116313   8.275   4.827   6.715
 5452TIP3    H216314   8.176   4.806   6.828
 5453TIP3   OH216315   4.213   4.827   3.759
 5453TIP3    H116316   4.213   4.732   3.773
 5453TIP3    H216317   4.132   4.844   3.711
 5454TIP3   OH216318   0.491   6.623   3.902
 5454TIP3    H116319   0.408   6.664   3.877
 5454TIP3    H216320   0.523   6.677   3.975
 5455TIP3   OH216321   3.130   3.473   3.382
 5455TIP3    H116322   3.195   3.487   3.314
 5455TIP3    H216323   3.081   3.555   3.386
 5456TIP3   OH216324   4.085   0.176   3.179
 5456TIP3    H116325   4.099   0.249   3.240
 5456TIP3    H216326   4.166   0.125   3.184
 5457TIP3   OH216327   7.022   6.997   0.285
 5457TIP3    H116328   7.056   7.053   0.215
 5457TIP3    H216329   7.038   6.908   0.253
 5458TIP3   OH216330   6.643   4.018   6.606
 5458TIP3    H116331   6.733   4.017   6.638
 5458TIP3    H216332   6.633   4.104   6.564
 5459TIP3   OH216333   1.526   2.575   2.106
 5459TIP3    H116334   1.501   2.658   2.146
 5459TIP3    H216335   1.577   2.600   2.029
 5460TIP3   OH216336   4.478   6.591   5.593
 5460TIP3    H116337   4.401   6.647   5.605
 5460TIP3    H216338   4.471   6.559   5.503
 5461TIP3   OH216339   4.464   5.117   4.891
 5461TIP3    H116340   4.479   5.211   4.882
 5461TIP3    H216341   4.412   5.110   4.971
 5462TIP3   OH216342   4.887   2.683   1.313
 5462TIP3    H116343   4.917   2.656   1.399
 5462TIP3    H216344   4.927   2.621   1.252
 5463TIP3   OH216345   4.759   4.355   5.667
 5463TIP3    H116346   4.842   4.383   5.629
 5463TIP3    H216347   4.723   4.294   5.603
 5464TIP3   OH216348   4.361   4.770   4.140
 5464TIP3    H116349   4.380   4.767   4.234
 5464TIP3    H216350   4.438   4.731   4.099
 5465TIP3   OH216351   1.236   7.796   0.267
 5465TIP3    H116352   1.195   7.883   0.268
 5465TIP3    H216353   1.321   7.811   0.227
 5466TIP3   OH216354   7.171   2.939   4.673
 5466TIP3    H116355   7.108   2.924   4.603
 5466TIP3    H216356   7.189   3.033   4.670
 5467TIP3   OH216357   1.239   4.350   0.960
 5467TIP3    H116358   1.301   4.404   1.009
 5467TIP3    H216359   1.197   4.296   1.027
 5468TIP3   OH216360   1.728   3.385   2.189
 5468TIP3    H116361   1.749   3.344   2.273
 5468TIP3    H216362   1.747   3.478   2.203
 5469TIP3   OH216363   3.777   5.934   0.852
 5469TIP3    H116364   3.848   5.986   0.814
 5469TIP3    H216365   3.822   5.865   0.902
 5470TIP3   OH216366   7.240   2.347   3.860
 5470TIP3    H116367   7.235   2.434   3.822
 5470TIP3    H216368   7.294   2.297   3.799
 5471TIP3   OH216369   6.375   4.801   0.976
 5471TIP3    H116370   6.287   4.818   1.010
 5471TIP3    H216371   6.430   4.869   1.015
 5472TIP3   OH216372   2.471   1.102   2.510
 5472TIP3    H116373   2.416   1.026   2.490
 5472TIP3    H216374   2.441   1.133   2.595
 5473TIP3   OH216375   3.886   3.126   2.767
 5473TIP3    H116376   3.977   3.108   2.744
 5473TIP3    H216377   3.874   3.219   2.747
 5474TIP3   OH216378   2.125   6.527   5.897
 5474TIP3    H116379   2.098   6.539   5.988
 5474TIP3    H216380   2.093   6.440   5.873
 5475TIP3   OH216381   0.787   3.713   0.676
 5475TIP3    H116382   0.760   3.729   0.586
 5475TIP3    H216383   0.866   3.767   0.687
 5476TIP3   OH216384   4.649   5.964   2.174
 5476TIP3    H116385   4.660   5.897   2.107
 5476TIP3    H216386   4.644   5.915   2.256
 5477TIP3   OH216387   6.102   3.219   3.766
 5477TIP3    H116388   6.047   3.225   3.844
 5477TIP3    H216389   6.099   3.126   3.743
 5478TIP3   OH216390   6.926   7.829   5.757
 5478TIP3    H116391   6.900   7.743   5.788
 5478TIP3    H216392   7.017   7.839   5.785
 5479TIP3   OH216393   7.196   0.705   5.218
 5479TIP3    H116394   7.220   0.627   5.168
 5479TIP3    H216395   7.110   0.730   5.183
 5480TIP3   OH216396   2.342   1.203   4.735
 5480TIP3    H116397   2.317   1.112   4.721
 5480TIP3    H216398   2.332   1.216   4.829
 5481TIP3   OH216399   7.712   7.303   5.598
 5481TIP3    H116400   7.742   7.342   5.516
 5481TIP3    H216401   7.788   7.307   5.656
 5482TIP3   OH216402   3.844   2.395   1.586
 5482TIP3    H116403   3.878   2.468   1.638
 5482TIP3    H216404   3.920   2.363   1.537
 5483TIP3   OH216405   4.196   7.486   0.731
 5483TIP3    H116406   4.124   7.493   0.669
 5483TIP3    H216407   4.258   7.554   0.703
 5484TIP3   OH216408   5.846   4.811   6.755
 5484TIP3    H116409   5.896   4.890   6.737
 5484TIP3    H216410   5.833   4.770   6.670
 5485TIP3   OH216411   3.171   5.456   2.728
 5485TIP3    H116412   3.204   5.376   2.687
 5485TIP3    H216413   3.223   5.526   2.690
 5486TIP3   OH216414   4.727   1.267   0.508
 5486TIP3    H116415   4.634   1.246   0.509
 5486TIP3    H216416   4.770   1.183   0.492
 5487TIP3   OH216417   8.236   3.353  -0.002
 5487TIP3    H116418   8.242   3.438   0.043
 5487TIP3    H216419   8.324   3.338  -0.037
 5488TIP3   OH216420   2.247   0.252   4.457
 5488TIP3    H116421   2.295   0.311   4.398
 5488TIP3    H216422   2.243   0.298   4.540
 5489TIP3   OH216423   0.336   2.274   5.729
 5489TIP3    H116424   0.407   2.218   5.698
 5489TIP3    H216425   0.328   2.254   5.822
 5490TIP3   OH216426   2.331   5.129   0.483
 5490TIP3    H116427   2.239   5.133   0.457
 5490TIP3    H216428   2.346   5.037   0.505
 5491TIP3   OH216429   0.199   7.004   1.418
 5491TIP3    H116430   0.294   7.008   1.429
 5491TIP3    H216431   0.168   7.088   1.452
 5492TIP3   OH216432   3.839   4.237   0.850
 5492TIP3    H116433   3.912   4.277   0.897
 5492TIP3    H216434   3.779   4.310   0.832
 5493TIP3   OH216435   3.622   2.820   0.476
 5493TIP3    H116436   3.694   2.757   0.466
 5493TIP3    H216437   3.578   2.793   0.556
 5494TIP3   OH216438   5.828   7.722   3.498
 5494TIP3    H116439   5.787   7.662   3.560
 5494TIP3    H216440   5.755   7.771   3.460
 5495TIP3   OH216441   1.440   2.943   0.633
 5495TIP3    H116442   1.369   3.002   0.607
 5495TIP3    H216443   1.508   2.957   0.568
 5496TIP3   OH216444   5.872   1.487   4.823
 5496TIP3    H116445   5.927   1.432   4.879
 5496TIP3    H216446   5.933   1.527   4.761
 5497TIP3   OH216447   2.385   4.579   2.800
 5497TIP3    H116448   2.457   4.561   2.860
 5497TIP3    H216449   2.405   4.526   2.723
 5498TIP3   OH216450   7.750   4.075   5.665
 5498TIP3    H116451   7.788   3.988   5.674
 5498TIP3    H216452   7.811   4.123   5.609
 5499TIP3   OH216453   2.993   1.760   1.114
 5499TIP3    H116454   3.088   1.761   1.099
 5499TIP3    H216455   2.955   1.781   1.029
 5500TIP3   OH216456   4.271   4.837   6.435
 5500TIP3    H116457   4.311   4.754   6.410
 5500TIP3    H216458   4.305   4.900   6.372
 5501TIP3   OH216459   0.381   4.341   2.864
 5501TIP3    H116460   0.355   4.422   2.908
 5501TIP3    H216461   0.441   4.299   2.925
 5502TIP3   OH216462   8.178   0.738   3.297
 5502TIP3    H116463   8.129   0.691   3.363
 5502TIP3    H216464   8.235   0.672   3.257
 5503TIP3   OH216465   2.696   3.389   5.760
 5503TIP3    H116466   2.665   3.314   5.710
 5503TIP3    H216467   2.790   3.376   5.768
 5504TIP3   OH216468   8.052   4.920   4.682
 5504TIP3    H116469   8.070   4.846   4.740
 5504TIP3    H216470   8.094   4.896   4.599
 5505TIP3   OH216471   8.093   1.658   2.341
 5505TIP3    H116472   8.176   1.641   2.384
 5505TIP3    H216473   8.112   1.654   2.247
 5506TIP3   OH216474   8.127   2.412   1.240
 5506TIP3    H116475   8.058   2.477   1.251
 5506TIP3    H216476   8.153   2.419   1.148
 5507TIP3   OH216477   3.237   0.673   1.654
 5507TIP3    H116478   3.214   0.705   1.741
 5507TIP3    H216479   3.205   0.582   1.653
 5508TIP3   OH216480   7.733   6.213   6.717
 5508TIP3    H116481   7.724   6.303   6.688
 5508TIP3    H216482   7.747   6.219   6.812
 5509TIP3   OH216483   0.425   5.890   2.676
 5509TIP3    H116484   0.411   5.891   2.582
 5509TIP3    H216485   0.406   5.980   2.704
 5510TIP3   OH216486   5.467   1.384   5.344
 5510TIP3    H116487   5.470   1.438   5.423
 5510TIP3    H216488   5.444   1.445   5.274
 5511TIP3   OH216489   2.078   0.558   5.644
 5511TIP3    H116490   2.014   0.524   5.581
 5511TIP3    H216491   2.027   0.575   5.724
 5512TIP3   OH216492   0.030   7.597   4.294
 5512TIP3    H116493   0.059   7.511   4.263
 5512TIP3    H216494  -0.054   7.580   4.337
 5513TIP3   OH216495   1.395   7.007   2.153
 5513TIP3    H116496   1.415   7.056   2.073
 5513TIP3    H216497   1.328   6.944   2.126
 5514TIP3   OH216498   4.463   6.508   5.332
 5514TIP3    H116499   4.468   6.414   5.315
 5514TIP3    H216500   4.493   6.549   5.251
 5515TIP3   OH216501   0.789   4.000   5.684
 5515TIP3    H116502   0.755   4.013   5.773
 5515TIP3    H216503   0.727   3.940   5.644
 5516TIP3   OH216504   3.860   5.672   4.969
 5516TIP3    H116505   3.945   5.660   5.010
 5516TIP3    H216506   3.870   5.749   4.914
 5517TIP3   OH216507   0.921   5.947   4.510
 5517TIP3    H116508   1.002   5.997   4.500
 5517TIP3    H216509   0.951   5.857   4.524
 5518TIP3   OH216510   6.293   1.997   0.718
 5518TIP3    H116511   6.237   2.023   0.791
 5518TIP3    H216512   6.250   1.920   0.681
 5519TIP3   OH216513   6.658   4.547   5.048
 5519TIP3    H116514   6.722   4.592   5.104
 5519TIP3    H216515   6.658   4.596   4.966
 5520TIP3   OH216516   2.163   0.961   0.705
 5520TIP3    H116517   2.177   0.893   0.772
 5520TIP3    H216518   2.117   0.916   0.634
 5521TIP3   OH216519   1.871   1.340   6.291
 5521TIP3    H116520   1.813   1.265   6.304
 5521TIP3    H216521   1.867   1.389   6.374
 5522TIP3   OH216522   2.850   2.563   1.822
 5522TIP3    H116523   2.887   2.529   1.903
 5522TIP3    H216524   2.764   2.595   1.846
 5523TIP3   OH216525   1.668   0.545   0.519
 5523TIP3    H116526   1.692   0.637   0.526
 5523TIP3    H216527   1.621   0.526   0.601
 5524TIP3   OH216528   1.413   0.724   4.585
 5524TIP3    H116529   1.488   0.665   4.577
 5524TIP3    H216530   1.368   0.694   4.664
 5525TIP3   OH216531   7.475   6.009   0.877
 5525TIP3    H116532   7.414   6.071   0.918
 5525TIP3    H216533   7.425   5.928   0.871
 5526TIP3   OH216534   4.721   3.227   5.611
 5526TIP3    H116535   4.692   3.259   5.697
 5526TIP3    H216536   4.640   3.204   5.566
 5527TIP3   OH216537   0.418   4.707   3.259
 5527TIP3    H116538   0.454   4.620   3.242
 5527TIP3    H216539   0.483   4.768   3.223
 5528TIP3   OH216540   6.841   0.431   6.083
 5528TIP3    H116541   6.913   0.368   6.090
 5528TIP3    H216542   6.838   0.474   6.169
 5529TIP3   OH216543   1.106   2.485   4.247
 5529TIP3    H116544   1.187   2.465   4.293
 5529TIP3    H216545   1.057   2.539   4.309
 5530TIP3   OH216546   8.248   0.540   0.460
 5530TIP3    H116547   8.342   0.530   0.477
 5530TIP3    H216548   8.230   0.632   0.478
 5531TIP3   OH216549   3.497   5.877   0.921
 5531TIP3    H116550   3.495   5.897   0.827
 5531TIP3    H216551   3.582   5.909   0.951
 5532TIP3   OH216552   6.593   2.636   0.513
 5532TIP3    H116553   6.539   2.705   0.475
 5532TIP3    H216554   6.619   2.669   0.598
 5533TIP3   OH216555   5.964   5.658   1.339
 5533TIP3    H116556   6.018   5.597   1.289
 5533TIP3    H216557   6.027   5.719   1.378
 5534TIP3   OH216558   4.468   4.376   5.285
 5534TIP3    H116559   4.384   4.357   5.243
 5534TIP3    H216560   4.525   4.404   5.214
 5535TIP3   OH216561   2.332   4.286   1.559
 5535TIP3    H116562   2.408   4.329   1.599
 5535TIP3    H216563   2.292   4.238   1.631
 5536TIP3   OH216564   2.422   2.274   4.060
 5536TIP3    H116565   2.375   2.202   4.103
 5536TIP3    H216566   2.450   2.237   3.976
 5537TIP3   OH216567   7.123   6.911   5.412
 5537TIP3    H116568   7.216   6.892   5.398
 5537TIP3    H216569   7.091   6.839   5.466
 5538TIP3   OH216570   1.565   4.289   0.086
 5538TIP3    H116571   1.582   4.336   0.004
 5538TIP3    H216572   1.470   4.294   0.097
 5539TIP3   OH216573   0.989   6.762   2.824
 5539TIP3    H116574   0.904   6.775   2.867
 5539TIP3    H216575   1.044   6.722   2.891
 5540TIP3   OH216576   1.738   6.036   0.517
 5540TIP3    H116577   1.660   6.090   0.507
 5540TIP3    H216578   1.795   6.063   0.445
 5541TIP3   OH216579   8.323   2.739   4.653
 5541TIP3    H116580   8.229   2.755   4.640
 5541TIP3    H216581   8.365   2.819   4.620
 5542TIP3   OH216582   3.434   2.107   5.849
 5542TIP3    H116583   3.479   2.064   5.922
 5542TIP3    H216584   3.385   2.178   5.890
 5543TIP3   OH216585   3.783   7.685   4.735
 5543TIP3    H116586   3.773   7.590   4.730
 5543TIP3    H216587   3.791   7.704   4.828
 5544TIP3   OH216588   5.765   6.713   6.009
 5544TIP3    H116589   5.725   6.742   6.091
 5544TIP3    H216590   5.849   6.759   6.006
 5545TIP3   OH216591   1.534   4.067   1.093
 5545TIP3    H116592   1.525   3.987   1.041
 5545TIP3    H216593   1.528   4.138   1.029
 5546TIP3   OH216594   3.376   3.792   5.983
 5546TIP3    H116595   3.400   3.881   6.007
 5546TIP3    H216596   3.326   3.759   6.057
 5547TIP3   OH216597   5.315   0.568   3.416
 5547TIP3    H116598   5.357   0.605   3.339
 5547TIP3    H216599   5.381   0.509   3.453
 5548TIP3   OH216600   1.764   2.057   4.592
 5548TIP3    H116601   1.766   2.107   4.674
 5548TIP3    H216602   1.836   2.093   4.540
 5549TIP3   OH216603   6.222   3.329   3.151
 5549TIP3    H116604   6.143   3.375   3.178
 5549TIP3    H216605   6.214   3.242   3.190
 5550TIP3   OH216606   5.489   0.177   4.988
 5550TIP3    H116607   5.524   0.190   5.076
 5550TIP3    H216608   5.417   0.116   5.001
 5551TIP3   OH216609   3.338   5.145   4.821
 5551TIP3    H116610   3.283   5.222   4.807
 5551TIP3    H216611   3.281   5.082   4.866
 5552TIP3   OH216612   4.163   6.610   0.436
 5552TIP3    H116613   4.133   6.686   0.388
 5552TIP3    H216614   4.122   6.618   0.522
 5553TIP3   OH216615   4.035   5.802   0.923
 5553TIP3    H116616   4.122   5.796   0.883
 5553TIP3    H216617   4.021   5.716   0.964
 5554TIP3   OH216618   4.088   7.590   4.808
 5554TIP3    H116619   4.065   7.600   4.715
 5554TIP3    H216620   4.009   7.554   4.848
 5555TIP3   OH216621   8.089   7.433   1.964
 5555TIP3    H116622   8.036   7.382   2.023
 5555TIP3    H216623   8.084   7.523   1.998
 5556TIP3   OH216624   7.317   6.391   2.766
 5556TIP3    H116625   7.329   6.401   2.861
 5556TIP3    H216626   7.249   6.454   2.744
 5557TIP3   OH216627   3.364   1.161   5.887
 5557TIP3    H116628   3.432   1.139   5.824
 5557TIP3    H216629   3.398   1.130   5.971
 5558TIP3   OH216630   5.123   4.491   5.851
 5558TIP3    H116631   5.130   4.568   5.795
 5558TIP3    H216632   5.051   4.511   5.911
 5559TIP3   OH216633   4.945   2.961   3.698
 5559TIP3    H116634   5.007   3.020   3.654
 5559TIP3    H216635   4.948   2.881   3.647
 5560TIP3   OH216636   2.003   6.119   1.987
 5560TIP3    H116637   1.910   6.099   1.974
 5560TIP3    H216638   2.049   6.057   1.931
 5561TIP3   OH216639   5.410   4.174   1.788
 5561TIP3    H116640   5.438   4.098   1.839
 5561TIP3    H216641   5.414   4.247   1.849
 5562TIP3   OH216642   2.506   4.356   0.378
 5562TIP3    H116643   2.436   4.292   0.389
 5562TIP3    H216644   2.461   4.435   0.346
 5563TIP3   OH216645   4.002   5.315   1.057
 5563TIP3    H116646   3.962   5.327   1.144
 5563TIP3    H216647   3.991   5.222   1.038
 5564TIP3   OH216648   8.214   4.951   4.032
 5564TIP3    H116649   8.293   4.958   4.086
 5564TIP3    H216650   8.142   4.964   4.094
 5565TIP3   OH216651   0.122   3.629   1.834
 5565TIP3    H116652   0.080   3.554   1.792
 5565TIP3    H216653   0.069   3.646   1.912
 5566TIP3   OH216654   7.059   5.573   6.320
 5566TIP3    H116655   7.113   5.569   6.399
 5566TIP3    H216656   6.993   5.640   6.339
 5567TIP3   OH216657   0.301   2.499   0.908
 5567TIP3    H116658   0.315   2.425   0.968
 5567TIP3    H216659   0.223   2.475   0.858
 5568TIP3   OH216660   4.304   0.602   6.574
 5568TIP3    H116661   4.391   0.592   6.611
 5568TIP3    H216662   4.248   0.623   6.648
 5569TIP3   OH216663   7.835   0.994   5.967
 5569TIP3    H116664   7.809   1.030   5.881
 5569TIP3    H216665   7.765   1.023   6.026
 5570TIP3   OH216666   1.133   4.270   3.133
 5570TIP3    H116667   1.100   4.193   3.087
 5570TIP3    H216668   1.097   4.344   3.085
 5571TIP3   OH216669   2.783   2.823   0.354
 5571TIP3    H116670   2.748   2.832   0.266
 5571TIP3    H216671   2.846   2.752   0.349
 5572TIP3   OH216672   7.312   5.900   2.424
 5572TIP3    H116673   7.361   5.968   2.378
 5572TIP3    H216674   7.379   5.844   2.464
 5573TIP3   OH216675   3.408   3.614   0.988
 5573TIP3    H116676   3.473   3.678   0.959
 5573TIP3    H216677   3.326   3.643   0.949
 5574TIP3   OH216678   2.350   2.153   4.894
 5574TIP3    H116679   2.438   2.133   4.927
 5574TIP3    H216680   2.337   2.091   4.822
 5575TIP3   OH216681   0.379   5.015   3.383
 5575TIP3    H116682   0.362   5.047   3.472
 5575TIP3    H216683   0.382   5.094   3.329
 5576TIP3   OH216684   3.856   0.123   6.032
 5576TIP3    H116685   3.931   0.064   6.040
 5576TIP3    H216686   3.894   0.210   6.022
 5577TIP3   OH216687   1.910   7.457   1.075
 5577TIP3    H116688   1.957   7.540   1.078
 5577TIP3    H216689   1.822   7.480   1.046
 5578TIP3   OH216690   2.556   0.294   2.054
 5578TIP3    H116691   2.627   0.330   2.108
 5578TIP3    H216692   2.476   0.317   2.102
 5579TIP3   OH216693   5.066   5.472   3.860
 5579TIP3    H116694   5.021   5.414   3.798
 5579TIP3    H216695   5.007   5.547   3.868
 5580TIP3   OH216696   7.432   7.524   6.275
 5580TIP3    H116697   7.473   7.559   6.196
 5580TIP3    H216698   7.442   7.593   6.341
 5581TIP3   OH216699   7.393   3.695   6.197
 5581TIP3    H116700   7.419   3.614   6.154
 5581TIP3    H216701   7.304   3.678   6.228
 5582TIP3   OH216702   0.444   1.075   4.070
 5582TIP3    H116703   0.524   1.122   4.092
 5582TIP3    H216704   0.462   0.984   4.095
 5583TIP3   OH216705   2.284   4.525   0.329
 5583TIP3    H116706   2.264   4.616   0.307
 5583TIP3    H216707   2.228   4.505   0.403
 5584TIP3   OH216708   6.837   1.862   0.486
 5584TIP3    H116709   6.800   1.780   0.520
 5584TIP3    H216710   6.868   1.908   0.564
 5585TIP3   OH216711   4.321   3.138   1.508
 5585TIP3    H116712   4.240   3.089   1.493
 5585TIP3    H216713   4.339   3.181   1.425
 5586TIP3   OH216714   7.248   1.219   2.695
 5586TIP3    H116715   7.219   1.282   2.629
 5586TIP3    H216716   7.288   1.148   2.645
 5587TIP3   OH216717   3.724   0.242   5.603
 5587TIP3    H116718   3.657   0.178   5.583
 5587TIP3    H216719   3.805   0.206   5.566
 5588TIP3   OH216720   2.492   4.047   4.861
 5588TIP3    H116721   2.419   4.071   4.805
 5588TIP3    H216722   2.502   4.122   4.920
 5589TIP3   OH216723   8.239   4.126   6.448
 5589TIP3    H116724   8.306   4.177   6.401
 5589TIP3    H216725   8.234   4.168   6.534
 5590TIP3   OH216726   5.215   0.062   3.361
 5590TIP3    H116727   5.122   0.086   3.370
 5590TIP3    H216728   5.214  -0.034   3.356
 5591TIP3   OH216729   8.252   1.827   4.482
 5591TIP3    H116730   8.178   1.882   4.454
 5591TIP3    H216731   8.325   1.857   4.428
 5592TIP3   OH216732   0.399   3.751   4.527
 5592TIP3    H116733   0.391   3.693   4.603
 5592TIP3    H216734   0.310   3.755   4.491
 5593TIP3   OH216735   3.724   3.500   2.121
 5593TIP3    H116736   3.647   3.469   2.169
 5593TIP3    H216737   3.705   3.592   2.102
 5594TIP3   OH216738   1.009   0.872   5.533
 5594TIP3    H116739   0.987   0.818   5.457
 5594TIP3    H216740   0.978   0.959   5.510
 5595TIP3   OH216741   0.619   7.499   6.013
 5595TIP3    H116742   0.572   7.573   5.975
 5595TIP3    H216743   0.654   7.532   6.096
 5596TIP3   OH216744   8.002   7.851   2.339
 5596TIP3    H116745   8.005   7.801   2.420
 5596TIP3    H216746   8.081   7.824   2.292
 5597TIP3   OH216747   5.193   0.043   4.823
 5597TIP3    H116748   5.273   0.038   4.770
 5597TIP3    H216749   5.125   0.070   4.762
 5598TIP3   OH216750   1.338   6.300   5.408
 5598TIP3    H116751   1.256   6.312   5.456
 5598TIP3    H216752   1.402   6.279   5.476
 5599TIP3   OH216753   2.807   4.339   5.186
 5599TIP3    H116754   2.886   4.380   5.221
 5599TIP3    H216755   2.827   4.245   5.186
 5600TIP3   OH216756   4.405   5.131   3.800
 5600TIP3    H116757   4.341   5.070   3.836
 5600TIP3    H216758   4.381   5.139   3.707
 5601TIP3   OH216759   3.699   0.754   3.560
 5601TIP3    H116760   3.662   0.734   3.474
 5601TIP3    H216761   3.784   0.710   3.560
 5602TIP3   OH216762   4.733   5.821   3.053
 5602TIP3    H116763   4.740   5.890   2.987
 5602TIP3    H216764   4.806   5.837   3.113
 5603TIP3   OH216765   1.719   5.372   6.038
 5603TIP3    H116766   1.742   5.285   6.004
 5603TIP3    H216767   1.650   5.354   6.103
 5604TIP3   OH216768   2.856   2.249   2.054
 5604TIP3    H116769   2.912   2.260   1.977
 5604TIP3    H216770   2.871   2.328   2.105
 5605TIP3   OH216771   0.325   6.641   2.006
 5605TIP3    H116772   0.386   6.636   1.932
 5605TIP3    H216773   0.246   6.596   1.975
 5606TIP3   OH216774   4.934   2.237   4.546
 5606TIP3    H116775   5.008   2.288   4.512
 5606TIP3    H216776   4.862   2.257   4.487
 5607TIP3   OH216777   4.649   5.488   4.462
 5607TIP3    H116778   4.697   5.540   4.526
 5607TIP3    H216779   4.707   5.414   4.443
 5608TIP3   OH216780   0.348   2.089   0.132
 5608TIP3    H116781   0.359   2.117   0.223
 5608TIP3    H216782   0.436   2.063   0.104
 5609TIP3   OH216783   4.552   0.040   4.030
 5609TIP3    H116784   4.559  -0.002   3.944
 5609TIP3    H216785   4.472   0.004   4.068
 5610TIP3   OH216786   5.668   7.544   3.628
 5610TIP3    H116787   5.655   7.527   3.535
 5610TIP3    H216788   5.594   7.502   3.671
 5611TIP3   OH216789   3.609   3.544   0.227
 5611TIP3    H116790   3.636   3.573   0.314
 5611TIP3    H216791   3.655   3.461   0.214
 5612TIP3   OH216792   7.013   5.354   1.699
 5612TIP3    H116793   6.949   5.383   1.764
 5612TIP3    H216794   7.037   5.265   1.728
 5613TIP3   OH216795   3.090   4.948   2.267
 5613TIP3    H116796   2.999   4.918   2.266
 5613TIP3    H216797   3.123   4.921   2.353
 5614TIP3   OH216798   4.633   5.266   0.594
 5614TIP3    H116799   4.698   5.319   0.640
 5614TIP3    H216800   4.658   5.272   0.502
 5615TIP3   OH216801   1.250   3.022   6.543
 5615TIP3    H116802   1.277   2.971   6.620
 5615TIP3    H216803   1.155   3.012   6.541
 5616TIP3   OH216804   1.151   7.788   1.294
 5616TIP3    H116805   1.073   7.765   1.243
 5616TIP3    H216806   1.153   7.883   1.294
 5617TIP3   OH216807   5.000   3.146   0.319
 5617TIP3    H116808   4.952   3.167   0.239
 5617TIP3    H216809   4.932   3.136   0.386
 5618TIP3   OH216810   6.509   0.956   0.920
 5618TIP3    H116811   6.573   0.972   0.851
 5618TIP3    H216812   6.428   0.994   0.886
 5619TIP3   OH216813   6.485   6.258   3.572
 5619TIP3    H116814   6.564   6.208   3.550
 5619TIP3    H216815   6.435   6.199   3.628
 5620TIP3   OH216816   6.851   3.848   5.908
 5620TIP3    H116817   6.864   3.869   5.815
 5620TIP3    H216818   6.923   3.787   5.928
 5621TIP3   OH216819   2.791   3.941   6.367
 5621TIP3    H116820   2.736   3.866   6.391
 5621TIP3    H216821   2.845   3.908   6.295
 5622TIP3   OH216822   6.610   6.596   3.457
 5622TIP3    H116823   6.647   6.544   3.385
 5622TIP3    H216824   6.639   6.686   3.439
 5623TIP3   OH216825   7.046   0.146   0.624
 5623TIP3    H116826   7.110   0.155   0.553
 5623TIP3    H216827   6.966   0.184   0.589
 5624TIP3   OH216828   0.381   5.317   4.124
 5624TIP3    H116829   0.470   5.281   4.120
 5624TIP3    H216830   0.343   5.295   4.039
 5625TIP3   OH216831   7.844   3.346   0.965
 5625TIP3    H116832   7.780   3.340   1.036
 5625TIP3    H216833   7.854   3.256   0.935
 5626TIP3   OH216834   2.401   3.137   2.058
 5626TIP3    H116835   2.323   3.152   2.005
 5626TIP3    H216836   2.416   3.042   2.052
 5627TIP3   OH216837   1.429   7.649   4.464
 5627TIP3    H116838   1.466   7.596   4.393
 5627TIP3    H216839   1.486   7.630   4.539
 5628TIP3   OH216840   1.796   4.339   2.178
 5628TIP3    H116841   1.839   4.424   2.176
 5628TIP3    H216842   1.866   4.277   2.199
 5629TIP3   OH216843   5.378   0.596   5.351
 5629TIP3    H116844   5.285   0.601   5.329
 5629TIP3    H216845   5.418   0.551   5.277
 5630TIP3   OH216846   3.863   7.703   5.001
 5630TIP3    H116847   3.798   7.697   5.071
 5630TIP3    H216848   3.946   7.685   5.044
 5631TIP3   OH216849   5.746   2.773   2.656
 5631TIP3    H116850   5.682   2.716   2.700
 5631TIP3    H216851   5.725   2.764   2.563
 5632TIP3   OH216852   4.154   7.422   3.187
 5632TIP3    H116853   4.241   7.404   3.151
 5632TIP3    H216854   4.100   7.441   3.111
 5633TIP3   OH216855   0.933   7.525   3.743
 5633TIP3    H116856   0.862   7.486   3.794
 5633TIP3    H216857   0.908   7.617   3.733
 5634TIP3   OH216858   5.640   6.356   1.659
 5634TIP3    H116859   5.596   6.432   1.698
 5634TIP3    H216860   5.575   6.286   1.661
 5635TIP3   OH216861   8.330   2.041   5.076
 5635TIP3    H116862   8.334   2.111   5.142
 5635TIP3    H216863   8.244   2.002   5.088
 5636TIP3   OH216864   6.721   4.734   6.013
 5636TIP3    H116865   6.693   4.781   6.092
 5636TIP3    H216866   6.789   4.674   6.045
 5637TIP3   OH216867   5.514   7.656   0.257
 5637TIP3    H116868   5.529   7.697   0.342
 5637TIP3    H216869   5.592   7.679   0.205
 5638TIP3   OH216870   6.326   1.976   6.357
 5638TIP3    H116871   6.412   2.015   6.375
 5638TIP3    H216872   6.290   2.030   6.287
 5639TIP3   OH216873   2.948   7.261   6.656
 5639TIP3    H116874   3.029   7.284   6.702
 5639TIP3    H216875   2.955   7.304   6.571
 5640TIP3   OH216876   4.784   4.531   4.548
 5640TIP3    H116877   4.837   4.585   4.489
 5640TIP3    H216878   4.743   4.465   4.491
 5641TIP3   OH216879   6.772   6.225   1.428
 5641TIP3    H116880   6.827   6.148   1.419
 5641TIP3    H216881   6.780   6.250   1.520
 5642TIP3   OH216882   4.417   0.333   3.946
 5642TIP3    H116883   4.345   0.273   3.927
 5642TIP3    H216884   4.445   0.310   4.034
 5643TIP3   OH216885   5.056   0.678   5.388
 5643TIP3    H116886   4.993   0.612   5.418
 5643TIP3    H216887   5.006   0.730   5.325
 5644TIP3   OH216888   3.932   5.316   3.111
 5644TIP3    H116889   3.973   5.352   3.190
 5644TIP3    H216890   3.841   5.346   3.114
 5645TIP3   OH216891   7.196   2.049   1.987
 5645TIP3    H116892   7.217   2.078   2.075
 5645TIP3    H216893   7.101   2.044   1.985
 5646TIP3   OH216894   5.203   7.692   0.486
 5646TIP3    H116895   5.244   7.636   0.552
 5646TIP3    H216896   5.244   7.777   0.499
 5647TIP3   OH216897   2.055   0.425   6.042
 5647TIP3    H116898   2.052   0.510   5.999
 5647TIP3    H216899   2.133   0.429   6.097
 5648TIP3   OH216900   1.079   5.978   4.795
 5648TIP3    H116901   1.065   5.900   4.741
 5648TIP3    H216902   1.101   6.046   4.732
 5649TIP3   OH216903   3.860   5.374   4.956
 5649TIP3    H116904   3.802   5.342   4.886
 5649TIP3    H216905   3.844   5.469   4.958
 5650TIP3   OH216906   8.290   7.303   1.176
 5650TIP3    H116907   8.271   7.288   1.084
 5650TIP3    H216908   8.250   7.228   1.222
 5651TIP3   OH216909   4.315   4.996   2.029
 5651TIP3    H116910   4.251   4.943   1.981
 5651TIP3    H216911   4.345   5.060   1.965
 5652TIP3   OH216912   7.844   2.317   2.561
 5652TIP3    H116913   7.809   2.387   2.617
 5652TIP3    H216914   7.897   2.264   2.620
 5653TIP3   OH216915   2.033   5.058   2.394
 5653TIP3    H116916   1.944   5.091   2.383
 5653TIP3    H216917   2.088   5.122   2.347
 5654TIP3   OH216918   7.998   1.893   5.468
 5654TIP3    H116919   8.067   1.837   5.432
 5654TIP3    H216920   8.026   1.911   5.558
 5655TIP3   OH216921   7.231   2.003   4.126
 5655TIP3    H116922   7.314   2.026   4.083
 5655TIP3    H216923   7.253   1.928   4.182
 5656TIP3   OH216924   7.515   7.164   2.169
 5656TIP3    H116925   7.420   7.169   2.160
 5656TIP3    H216926   7.545   7.122   2.088
 5657TIP3   OH216927   2.870   3.107   3.370
 5657TIP3    H116928   2.839   3.188   3.330
 5657TIP3    H216929   2.872   3.126   3.464
 5658TIP3   OH216930   3.392   7.807   0.524
 5658TIP3    H116931   3.338   7.767   0.456
 5658TIP3    H216932   3.330   7.847   0.584
 5659TIP3   OH216933   4.000   2.585   4.196
 5659TIP3    H116934   3.944   2.654   4.231
 5659TIP3    H216935   3.985   2.588   4.101
 5660TIP3   OH216936   0.024   3.636   6.151
 5660TIP3    H116937  -0.026   3.672   6.077
 5660TIP3    H216938   0.003   3.542   6.151
 5661TIP3   OH216939   6.744   0.741   6.153
 5661TIP3    H116940   6.781   0.755   6.066
 5661TIP3    H216941   6.784   0.808   6.207
 5662TIP3   OH216942   1.103   1.053   0.491
 5662TIP3    H116943   1.189   1.012   0.482
 5662TIP3    H216944   1.046   1.003   0.432
 5663TIP3   OH216945   6.275   3.810   5.581
 5663TIP3    H116946   6.348   3.867   5.555
 5663TIP3    H216947   6.313   3.752   5.647
 5664TIP3   OH216948   0.585   3.448   2.747
 5664TIP3    H116949   0.614   3.524   2.697
 5664TIP3    H216950   0.567   3.481   2.835
 5665TIP3   OH216951   4.579   3.385   4.893
 5665TIP3    H116952   4.645   3.405   4.826
 5665TIP3    H216953   4.497   3.418   4.857
 5666TIP3   OH216954   2.257   7.732   5.240
 5666TIP3    H116955   2.329   7.775   5.286
 5666TIP3    H216956   2.281   7.737   5.148
 5667TIP3   OH216957   0.101   2.887   4.204
 5667TIP3    H116958   0.027   2.899   4.263
 5667TIP3    H216959   0.173   2.862   4.261
 5668TIP3   OH216960   2.021   4.803   6.248
 5668TIP3    H116961   1.972   4.742   6.303
 5668TIP3    H216962   1.955   4.842   6.191
 5669TIP3   OH216963   4.562   0.398   0.356
 5669TIP3    H116964   4.580   0.456   0.282
 5669TIP3    H216965   4.608   0.438   0.430
 5670TIP3   OH216966   7.575   5.031   6.401
 5670TIP3    H116967   7.642   4.992   6.345
 5670TIP3    H216968   7.625   5.082   6.465
 5671TIP3   OH216969   4.016   3.862   1.743
 5671TIP3    H116970   3.995   3.938   1.795
 5671TIP3    H216971   4.108   3.874   1.718
 5672TIP3   OH216972   5.341   1.691   1.140
 5672TIP3    H116973   5.246   1.701   1.137
 5672TIP3    H216974   5.359   1.612   1.089
 5673TIP3   OH216975   5.088   0.409   0.822
 5673TIP3    H116976   5.089   0.327   0.871
 5673TIP3    H216977   5.178   0.440   0.825
 5674TIP3   OH216978   2.198   3.425   1.008
 5674TIP3    H116979   2.242   3.340   1.007
 5674TIP3    H216980   2.130   3.418   0.941
 5675TIP3   OH216981   1.795   6.511   6.051
 5675TIP3    H116982   1.763   6.421   6.047
 5675TIP3    H216983   1.886   6.503   6.079
 5676TIP3   OH216984   7.166   6.942   2.964
 5676TIP3    H116985   7.186   6.921   3.055
 5676TIP3    H216986   7.199   6.867   2.914
 5677TIP3   OH216987   4.933   4.281   5.266
 5677TIP3    H116988   5.026   4.261   5.279
 5677TIP3    H216989   4.927   4.376   5.279
 5678TIP3   OH216990   4.816   2.268   3.763
 5678TIP3    H116991   4.865   2.212   3.703
 5678TIP3    H216992   4.724   2.255   3.740
 5679TIP3   OH216993   0.067   6.747   1.831
 5679TIP3    H116994   0.076   6.836   1.797
 5679TIP3    H216995   0.092   6.690   1.757
 5680TIP3   OH216996   2.644   6.837   4.179
 5680TIP3    H116997   2.655   6.931   4.194
 5680TIP3    H216998   2.594   6.807   4.255
 5681TIP3   OH216999   6.821   6.722   1.239
 5681TIP3    H117000   6.911   6.742   1.263
 5681TIP3    H217001   6.790   6.662   1.307
 5682TIP3   OH217002   5.347   3.977   5.342
 5682TIP3    H117003   5.313   3.893   5.370
 5682TIP3    H217004   5.440   3.961   5.323
 5683TIP3   OH217005   2.708   1.616   5.171
 5683TIP3    H117006   2.752   1.649   5.093
 5683TIP3    H217007   2.777   1.607   5.237
 5684TIP3   OH217008   3.454   0.262   1.786
 5684TIP3    H117009   3.423   0.176   1.758
 5684TIP3    H217010   3.426   0.322   1.717
 5685TIP3   OH217011   6.931   5.917   0.176
 5685TIP3    H117012   6.840   5.893   0.158
 5685TIP3    H217013   6.979   5.891   0.098
 5686TIP3   OH217014   1.097   3.305   6.271
 5686TIP3    H117015   1.096   3.341   6.182
 5686TIP3    H217016   1.007   3.311   6.301
 5687TIP3   OH217017   1.462   7.577   4.173
 5687TIP3    H117018   1.391   7.522   4.140
 5687TIP3    H217019   1.525   7.514   4.210
 5688TIP3   OH217020   3.648   1.030   5.294
 5688TIP3    H117021   3.576   1.008   5.352
 5688TIP3    H217022   3.640   0.968   5.221
 5689TIP3   OH217023   4.806   7.488   4.611
 5689TIP3    H117024   4.850   7.565   4.647
 5689TIP3    H217025   4.716   7.517   4.594
 5690TIP3   OH217026   5.672   0.262   3.890
 5690TIP3    H117027   5.680   0.318   3.812
 5690TIP3    H217028   5.583   0.228   3.885
 5691TIP3   OH217029   2.111   3.485   6.081
 5691TIP3    H117030   2.102   3.516   6.172
 5691TIP3    H217031   2.137   3.394   6.090
 5692TIP3   OH217032   3.680   1.733   2.309
 5692TIP3    H117033   3.691   1.774   2.223
 5692TIP3    H217034   3.671   1.807   2.369
 5693TIP3   OH217035   0.458   6.226   1.852
 5693TIP3    H117036   0.436   6.191   1.939
 5693TIP3    H217037   0.384   6.201   1.797
 5694TIP3   OH217038   6.433   2.955   4.062
 5694TIP3    H117039   6.494   2.945   3.990
 5694TIP3    H217040   6.355   2.906   4.035
 5695TIP3   OH217041   5.180   2.345   5.132
 5695TIP3    H117042   5.188   2.431   5.091
 5695TIP3    H217043   5.241   2.348   5.206
 5696TIP3   OH217044   5.938   6.937   5.720
 5696TIP3    H117045   5.887   6.856   5.724
 5696TIP3    H217046   6.027   6.910   5.742
 5697TIP3   OH217047   3.904   1.413   3.028
 5697TIP3    H117048   3.912   1.502   3.063
 5697TIP3    H217049   3.901   1.357   3.106
 5698TIP3   OH217050   5.541   0.270   1.141
 5698TIP3    H117051   5.510   0.330   1.209
 5698TIP3    H217052   5.568   0.328   1.070
 5699TIP3   OH217053   0.211   7.602   4.942
 5699TIP3    H117054   0.180   7.557   5.021
 5699TIP3    H217055   0.276   7.543   4.905
 5700TIP3   OH217056   5.964   5.166   0.494
 5700TIP3    H117057   5.983   5.163   0.587
 5700TIP3    H217058   6.040   5.126   0.452
 5701TIP3   OH217059   6.746   5.418   4.881
 5701TIP3    H117060   6.840   5.434   4.873
 5701TIP3    H217061   6.736   5.384   4.970
 5702TIP3   OH217062   5.899   4.802   5.384
 5702TIP3    H117063   5.905   4.708   5.403
 5702TIP3    H217064   5.807   4.816   5.363
 5703TIP3   OH217065   5.651   3.139   1.962
 5703TIP3    H117066   5.652   3.209   1.897
 5703TIP3    H217067   5.653   3.058   1.911
 5704TIP3   OH217068   0.477   5.990   1.176
 5704TIP3    H117069   0.453   5.949   1.260
 5704TIP3    H217070   0.409   5.960   1.115
 5705TIP3   OH217071   4.856   4.366   4.115
 5705TIP3    H117072   4.770   4.395   4.145
 5705TIP3    H217073   4.902   4.339   4.195
 5706TIP3   OH217074   7.944   1.930   0.208
 5706TIP3    H117075   8.000   1.854   0.228
 5706TIP3    H217076   7.882   1.898   0.142
 5707TIP3   OH217077   1.887   2.277   0.275
 5707TIP3    H117078   1.839   2.312   0.200
 5707TIP3    H217079   1.921   2.193   0.245
 5708TIP3   OH217080   3.979   2.892   1.157
 5708TIP3    H117081   3.888   2.903   1.186
 5708TIP3    H217082   3.976   2.904   1.062
 5709TIP3   OH217083   2.199   4.731   4.055
 5709TIP3    H117084   2.250   4.801   4.014
 5709TIP3    H217085   2.179   4.764   4.142
 5710TIP3   OH217086   2.491   6.324   0.841
 5710TIP3    H117087   2.533   6.288   0.762
 5710TIP3    H217088   2.552   6.302   0.912
 5711TIP3   OH217089   1.515   5.991   5.938
 5711TIP3    H117090   1.445   5.939   5.899
 5711TIP3    H217091   1.552   6.040   5.865
 5712TIP3   OH217092   8.096   1.155   3.261
 5712TIP3    H117093   8.120   1.121   3.348
 5712TIP3    H217094   8.044   1.233   3.279
 5713TIP3   OH217095   0.177   1.403   5.443
 5713TIP3    H117096   0.187   1.466   5.372
 5713TIP3    H217097   0.234   1.330   5.420
 5714TIP3   OH217098   7.614   7.299   2.395
 5714TIP3    H117099   7.550   7.358   2.433
 5714TIP3    H217100   7.576   7.273   2.311
 5715TIP3   OH217101   0.335   0.837   5.603
 5715TIP3    H117102   0.379   0.827   5.687
 5715TIP3    H217103   0.282   0.916   5.613
 5716TIP3   OH217104   0.658   4.719   6.337
 5716TIP3    H117105   0.668   4.812   6.320
 5716TIP3    H217106   0.567   4.709   6.366
 5717TIP3   OH217107   7.655   6.910   3.756
 5717TIP3    H117108   7.728   6.967   3.730
 5717TIP3    H217109   7.592   6.917   3.684
 5718TIP3   OH217110   4.595   0.451   2.703
 5718TIP3    H117111   4.595   0.356   2.718
 5718TIP3    H217112   4.660   0.464   2.634
 5719TIP3   OH217113   3.329   2.911   2.826
 5719TIP3    H117114   3.365   2.851   2.891
 5719TIP3    H217115   3.381   2.896   2.747
 5720TIP3   OH217116   4.601   2.650   4.857
 5720TIP3    H117117   4.582   2.669   4.765
 5720TIP3    H217118   4.583   2.733   4.902
 5721TIP3   OH217119   5.548   3.607   5.306
 5721TIP3    H117120   5.544   3.673   5.237
 5721TIP3    H217121   5.534   3.524   5.260
 5722TIP3   OH217122   6.427   1.739   1.943
 5722TIP3    H117123   6.435   1.644   1.950
 5722TIP3    H217124   6.507   1.766   1.898
 5723TIP3   OH217125   3.849   2.488   0.979
 5723TIP3    H117126   3.837   2.576   0.942
 5723TIP3    H217127   3.788   2.485   1.052
 5724TIP3   OH217128   5.196   5.984   2.952
 5724TIP3    H117129   5.224   5.893   2.955
 5724TIP3    H217130   5.269   6.033   2.990
 5725TIP3   OH217131   4.991   6.652   6.351
 5725TIP3    H117132   5.055   6.584   6.330
 5725TIP3    H217133   4.915   6.604   6.382
 5726TIP3   OH217134   7.903   0.300   6.440
 5726TIP3    H117135   7.975   0.244   6.469
 5726TIP3    H217136   7.947   0.379   6.406
 5727TIP3   OH217137   7.583   3.198   5.690
 5727TIP3    H117138   7.601   3.113   5.649
 5727TIP3    H217139   7.495   3.222   5.659
 5728TIP3   OH217140   3.320   7.376   1.053
 5728TIP3    H117141   3.256   7.441   1.024
 5728TIP3    H217142   3.277   7.331   1.126
 5729TIP3   OH217143   8.108   6.390   3.029
 5729TIP3    H117144   8.091   6.342   2.948
 5729TIP3    H217145   8.095   6.482   3.006
 5730TIP3   OH217146   7.458   3.235   4.182
 5730TIP3    H117147   7.384   3.200   4.132
 5730TIP3    H217148   7.502   3.295   4.122
 5731TIP3   OH217149   0.895   4.551   6.448
 5731TIP3    H117150   0.937   4.635   6.434
 5731TIP3    H217151   0.824   4.549   6.383
 5732TIP3   OH217152   8.082   0.917   6.489
 5732TIP3    H117153   8.086   0.989   6.553
 5732TIP3    H217154   8.086   0.961   6.404
 5733TIP3   OH217155   2.095   7.742   6.498
 5733TIP3    H117156   2.086   7.660   6.547
 5733TIP3    H217157   2.103   7.714   6.407
 5734TIP3   OH217158   3.233   7.750   2.795
 5734TIP3    H117159   3.316   7.728   2.752
 5734TIP3    H217160   3.258   7.782   2.881
 5735TIP3   OH217161   0.677   5.403   0.501
 5735TIP3    H117162   0.661   5.484   0.454
 5735TIP3    H217163   0.648   5.334   0.442
 5736TIP3   OH217164   4.413   6.103   2.143
 5736TIP3    H117165   4.431   6.191   2.109
 5736TIP3    H217166   4.497   6.057   2.138
 5737TIP3   OH217167   1.489   6.840   4.867
 5737TIP3    H117168   1.576   6.835   4.829
 5737TIP3    H217169   1.503   6.832   4.962
 5738TIP3   OH217170   8.086   4.318   3.072
 5738TIP3    H117171   8.006   4.369   3.082
 5738TIP3    H217172   8.078   4.248   3.136
 5739TIP3   OH217173   3.265   6.121   4.263
 5739TIP3    H117174   3.174   6.090   4.263
 5739TIP3    H217175   3.275   6.166   4.180
 5740TIP3   OH217176   4.698   6.553   1.068
 5740TIP3    H117177   4.769   6.583   1.125
 5740TIP3    H217178   4.696   6.458   1.079
 5741TIP3   OH217179   5.830   1.195   5.557
 5741TIP3    H117180   5.811   1.246   5.636
 5741TIP3    H217181   5.895   1.131   5.585
 5742TIP3   OH217182   4.147   4.814   4.420
 5742TIP3    H117183   4.242   4.812   4.409
 5742TIP3    H217184   4.134   4.833   4.514
 5743TIP3   OH217185   2.615   3.480   1.677
 5743TIP3    H117186   2.617   3.394   1.719
 5743TIP3    H217187   2.682   3.531   1.723
 5744TIP3   OH217188   5.354   0.062   5.699
 5744TIP3    H117189   5.273   0.099   5.733
 5744TIP3    H217190   5.401   0.136   5.661
 5745TIP3   OH217191   3.121   7.203   6.190
 5745TIP3    H117192   3.214   7.209   6.166
 5745TIP3    H217193   3.075   7.235   6.113
 5746TIP3   OH217194   0.031   1.620   0.407
 5746TIP3    H117195   0.019   1.629   0.312
 5746TIP3    H217196   0.118   1.583   0.417
 5747TIP3   OH217197   3.343   3.235   2.514
 5747TIP3    H117198   3.262   3.286   2.502
 5747TIP3    H217199   3.407   3.279   2.459
 5748TIP3   OH217200   5.822   5.934   4.279
 5748TIP3    H117201   5.835   5.919   4.373
 5748TIP3    H217202   5.823   6.029   4.270
 5749TIP3   OH217203   6.017   0.897   4.427
 5749TIP3    H117204   6.050   0.808   4.416
 5749TIP3    H217205   5.931   0.886   4.467
 5750TIP3   OH217206   2.184   0.034   5.031
 5750TIP3    H117207   2.136   0.070   4.957
 5750TIP3    H217208   2.117   0.018   5.098
 5751TIP3   OH217209   3.509   4.431   1.591
 5751TIP3    H117210   3.543   4.510   1.632
 5751TIP3    H217211   3.528   4.361   1.653
 5752TIP3   OH217212   7.044   1.017   4.846
 5752TIP3    H117213   7.085   1.071   4.913
 5752TIP3    H217214   7.024   0.934   4.890
 5753TIP3   OH217215   5.836   2.763   3.224
 5753TIP3    H117216   5.805   2.756   3.133
 5753TIP3    H217217   5.779   2.704   3.273
 5754TIP3   OH217218   4.072   7.108   0.463
 5754TIP3    H117219   3.988   7.083   0.500
 5754TIP3    H217220   4.061   7.200   0.438
 5755TIP3   OH217221   2.805   2.119   3.659
 5755TIP3    H117222   2.834   2.033   3.689
 5755TIP3    H217223   2.812   2.115   3.563
 5756TIP3   OH217224   3.160   3.965   0.537
 5756TIP3    H117225   3.241   4.001   0.574
 5756TIP3    H217226   3.162   3.992   0.445
 5757TIP3   OH217227   5.618   6.844   2.398
 5757TIP3    H117228   5.608   6.784   2.472
 5757TIP3    H217229   5.528   6.865   2.371
 5758TIP3   OH217230   1.383  -0.027   3.839
 5758TIP3    H117231   1.355   0.008   3.755
 5758TIP3    H217232   1.406   0.050   3.891
 5759TIP3   OH217233   6.393   0.053   0.732
 5759TIP3    H117234   6.450   0.095   0.666
 5759TIP3    H217235   6.344  -0.012   0.682
 5760TIP3   OH217236   7.740   2.733   3.683
 5760TIP3    H117237   7.796   2.708   3.756
 5760TIP3    H217238   7.658   2.762   3.724
 5761TIP3   OH217239   3.606   1.658   3.686
 5761TIP3    H117240   3.543   1.709   3.737
 5761TIP3    H217241   3.608   1.572   3.728
 5762TIP3   OH217242   3.117   6.464   5.985
 5762TIP3    H117243   3.153   6.542   5.943
 5762TIP3    H217244   3.044   6.439   5.928
 5763TIP3   OH217245   7.351   5.550   4.626
 5763TIP3    H117246   7.436   5.507   4.623
 5763TIP3    H217247   7.343   5.595   4.542
 5764TIP3   OH217248   3.886   0.523   5.463
 5764TIP3    H117249   3.837   0.500   5.384
 5764TIP3    H217250   3.977   0.500   5.442
 5765TIP3   OH217251   1.600   5.225   0.442
 5765TIP3    H117252   1.570   5.315   0.458
 5765TIP3    H217253   1.533   5.170   0.482
 5766TIP3   OH217254   0.531   4.405   1.480
 5766TIP3    H117255   0.532   4.441   1.391
 5766TIP3    H217256   0.607   4.347   1.483
 5767TIP3   OH217257   0.426   0.487   3.282
 5767TIP3    H117258   0.383   0.560   3.327
 5767TIP3    H217259   0.461   0.433   3.352
 5768TIP3   OH217260   7.718   0.730   3.502
 5768TIP3    H117261   7.674   0.799   3.451
 5768TIP3    H217262   7.662   0.653   3.490
 5769TIP3   OH217263   8.119   4.188   1.196
 5769TIP3    H117264   8.144   4.212   1.285
 5769TIP3    H217265   8.136   4.268   1.145
 5770TIP3   OH217266   1.677   2.802   5.427
 5770TIP3    H117267   1.768   2.799   5.397
 5770TIP3    H217268   1.625   2.793   5.347
 5771TIP3   OH217269   7.498   7.681   5.944
 5771TIP3    H117270   7.504   7.721   5.857
 5771TIP3    H217271   7.466   7.750   6.001
 5772TIP3   OH217272   6.886   5.070   4.725
 5772TIP3    H117273   6.805   5.077   4.776
 5772TIP3    H217274   6.954   5.106   4.783
 5773TIP3   OH217275   1.313   0.580   1.689
 5773TIP3    H117276   1.398   0.535   1.692
 5773TIP3    H217277   1.276   0.555   1.604
 5774TIP3   OH217278   0.441   1.946   1.325
 5774TIP3    H117279   0.406   1.859   1.345
 5774TIP3    H217280   0.535   1.938   1.341
 5775TIP3   OH217281   7.297   6.796   0.133
 5775TIP3    H117282   7.303   6.892   0.126
 5775TIP3    H217283   7.295   6.765   0.043
 5776TIP3   OH217284   2.637   1.842   2.571
 5776TIP3    H117285   2.664   1.822   2.482
 5776TIP3    H217286   2.708   1.896   2.606
 5777TIP3   OH217287   5.933   0.540   2.352
 5777TIP3    H117288   5.980   0.461   2.325
 5777TIP3    H217289   5.876   0.510   2.423
 5778TIP3   OH217290   0.820   2.843   2.477
 5778TIP3    H117291   0.897   2.885   2.439
 5778TIP3    H217292   0.767   2.818   2.401
 5779TIP3   OH217293   5.991   6.167   5.230
 5779TIP3    H117294   5.996   6.146   5.324
 5779TIP3    H217295   5.919   6.230   5.223
 5780TIP3   OH217296   3.778   5.159   0.433
 5780TIP3    H117297   3.866   5.170   0.468
 5780TIP3    H217298   3.720   5.167   0.509
 5781TIP3   OH217299   2.240   1.268   2.686
 5781TIP3    H117300   2.181   1.201   2.719
 5781TIP3    H217301   2.248   1.331   2.758
 5782TIP3   OH217302   3.308   3.483   2.116
 5782TIP3    H117303   3.265   3.549   2.172
 5782TIP3    H217304   3.391   3.465   2.161
 5783TIP3   OH217305   3.892   4.002   0.102
 5783TIP3    H117306   3.824   3.988   0.036
 5783TIP3    H217307   3.921   3.913   0.125
 5784TIP3   OH217308   4.308   4.500   0.271
 5784TIP3    H117309   4.343   4.421   0.313
 5784TIP3    H217310   4.214   4.485   0.267
 5785TIP3   OH217311   0.834   0.228   2.760
 5785TIP3    H117312   0.814   0.135   2.755
 5785TIP3    H217313   0.767   0.263   2.819
 5786TIP3   OH217314   3.041   3.120   2.878
 5786TIP3    H117315   3.022   3.081   2.964
 5786TIP3    H217316   3.134   3.144   2.883
 5787TIP3   OH217317   1.432   2.387   0.770
 5787TIP3    H117318   1.406   2.403   0.860
 5787TIP3    H217319   1.402   2.298   0.751
 5788TIP3   OH217320   6.468   5.632   6.651
 5788TIP3    H117321   6.480   5.604   6.742
 5788TIP3    H217322   6.445   5.725   6.657
 5789TIP3   OH217323   6.816   1.507   1.134
 5789TIP3    H117324   6.833   1.593   1.171
 5789TIP3    H217325   6.786   1.454   1.208
 5790TIP3   OH217326   3.658   0.494   5.601
 5790TIP3    H117327   3.706   0.412   5.615
 5790TIP3    H217328   3.717   0.548   5.548
 5791TIP3   OH217329   2.388   4.585   1.681
 5791TIP3    H117330   2.342   4.598   1.598
 5791TIP3    H217331   2.414   4.673   1.708
 5792TIP3   OH217332   0.610   2.108   3.409
 5792TIP3    H117333   0.608   2.046   3.336
 5792TIP3    H217334   0.686   2.164   3.391
 5793TIP3   OH217335   0.313   4.373   6.516
 5793TIP3    H117336   0.389   4.325   6.549
 5793TIP3    H217337   0.261   4.308   6.469
 5794TIP3   OH217338   1.864   6.214   6.147
 5794TIP3    H117339   1.778   6.180   6.169
 5794TIP3    H217340   1.925   6.144   6.171
 5795TIP3   OH217341   0.291   0.463   3.654
 5795TIP3    H117342   0.259   0.495   3.739
 5795TIP3    H217343   0.386   0.464   3.663
 5796TIP3   OH217344   5.564   3.926   6.413
 5796TIP3    H117345   5.648   3.889   6.387
 5796TIP3    H217346   5.500   3.882   6.357
 5797TIP3   OH217347   3.819   1.144   5.644
 5797TIP3    H117348   3.855   1.121   5.730
 5797TIP3    H217349   3.888   1.121   5.583
 5798TIP3   OH217350   4.739   7.230   4.670
 5798TIP3    H117351   4.719   7.256   4.760
 5798TIP3    H217352   4.788   7.304   4.634
 5799TIP3   OH217353   5.388   5.157   5.735
 5799TIP3    H117354   5.323   5.204   5.787
 5799TIP3    H217355   5.467   5.156   5.789
 5800TIP3   OH217356   4.822   0.344   1.867
 5800TIP3    H117357   4.881   0.268   1.864
 5800TIP3    H217358   4.853   0.402   1.799
 5801TIP3   OH217359   3.435   3.339   5.372
 5801TIP3    H117360   3.406   3.391   5.447
 5801TIP3    H217361   3.363   3.345   5.309
 5802TIP3   OH217362   6.424   7.585   6.027
 5802TIP3    H117363   6.391   7.538   5.950
 5802TIP3    H217364   6.447   7.516   6.089
 5803TIP3   OH217365   7.377   6.837   0.490
 5803TIP3    H117366   7.415   6.885   0.564
 5803TIP3    H217367   7.407   6.883   0.412
 5804TIP3   OH217368   7.895   4.607   5.621
 5804TIP3    H117369   7.917   4.632   5.710
 5804TIP3    H217370   7.821   4.663   5.597
 5805TIP3   OH217371   6.611   4.191   2.500
 5805TIP3    H117372   6.547   4.120   2.508
 5805TIP3    H217373   6.685   4.151   2.455
 5806TIP3   OH217374   7.981   6.750   1.220
 5806TIP3    H117375   8.046   6.682   1.202
 5806TIP3    H217376   7.917   6.707   1.277
 5807TIP3   OH217377   3.641   3.528   4.604
 5807TIP3    H117378   3.579   3.513   4.532
 5807TIP3    H217379   3.707   3.460   4.594
 5808TIP3   OH217380   4.815   2.589   3.412
 5808TIP3    H117381   4.735   2.560   3.455
 5808TIP3    H217382   4.839   2.517   3.354
 5809TIP3   OH217383   1.448   3.726   5.418
 5809TIP3    H117384   1.539   3.736   5.389
 5809TIP3    H217385   1.413   3.658   5.361
 5810TIP3   OH217386   5.497   0.667   3.247
 5810TIP3    H117387   5.531   0.756   3.236
 5810TIP3    H217388   5.570   0.618   3.286
 5811TIP3   OH217389   3.562   1.549   6.040
 5811TIP3    H117390   3.481   1.507   6.012
 5811TIP3    H217391   3.538   1.596   6.120
 5812TIP3   OH217392   5.282   1.486   0.677
 5812TIP3    H117393   5.377   1.479   0.668
 5812TIP3    H217394   5.249   1.476   0.588
 5813TIP3   OH217395   2.236   3.509   2.571
 5813TIP3    H117396   2.145   3.527   2.545
 5813TIP3    H217397   2.271   3.595   2.595
 5814TIP3   OH217398   5.813   3.721   5.372
 5814TIP3    H117399   5.844   3.701   5.283
 5814TIP3    H217400   5.729   3.676   5.378
 5815TIP3   OH217401   4.229   3.015   0.980
 5815TIP3    H117402   4.243   2.993   1.073
 5815TIP3    H217403   4.317   3.015   0.942
 5816TIP3   OH217404   2.191   6.240   2.960
 5816TIP3    H117405   2.142   6.322   2.969
 5816TIP3    H217406   2.125   6.176   2.934
 5817TIP3   OH217407   5.561   0.418   2.304
 5817TIP3    H117408   5.562   0.480   2.231
 5817TIP3    H217409   5.470   0.413   2.331
 5818TIP3   OH217410   3.376   3.888   5.268
 5818TIP3    H117411   3.452   3.942   5.248
 5818TIP3    H217412   3.383   3.814   5.208
 5819TIP3   OH217413   8.268   1.159   6.451
 5819TIP3    H117414   8.284   1.065   6.451
 5819TIP3    H217415   8.256   1.182   6.359
 5820TIP3   OH217416   0.429   7.336   6.113
 5820TIP3    H117417   0.457   7.297   6.196
 5820TIP3    H217418   0.509   7.366   6.072
 5821TIP3   OH217419   7.982   0.272   1.112
 5821TIP3    H117420   7.925   0.329   1.059
 5821TIP3    H217421   8.020   0.331   1.178
 5822TIP3   OH217422   4.516   5.815   0.171
 5822TIP3    H117423   4.537   5.888   0.112
 5822TIP3    H217424   4.503   5.857   0.257
 5823TIP3   OH217425   1.756   7.622   3.216
 5823TIP3    H117426   1.829   7.681   3.197
 5823TIP3    H217427   1.713   7.660   3.293
 5824TIP3   OH217428   4.171   3.332   3.007
 5824TIP3    H117429   4.182   3.237   2.999
 5824TIP3    H217430   4.227   3.368   2.939
 5825TIP3   OH217431   0.798   3.002   6.805
 5825TIP3    H117432   0.817   3.083   6.758
 5825TIP3    H217433   0.749   2.949   6.742
 5826TIP3   OH217434   4.503   0.768   5.051
 5826TIP3    H117435   4.433   0.811   5.002
 5826TIP3    H217436   4.522   0.829   5.123
 5827TIP3   OH217437   0.462   3.067   5.447
 5827TIP3    H117438   0.439   3.087   5.356
 5827TIP3    H217439   0.545   3.113   5.461
 5828TIP3   OH217440   7.776   0.301   3.603
 5828TIP3    H117441   7.703   0.248   3.634
 5828TIP3    H217442   7.850   0.240   3.602
 5829TIP3   OH217443   7.721   1.795   4.623
 5829TIP3    H117444   7.759   1.709   4.636
 5829TIP3    H217445   7.640   1.794   4.675
 5830TIP3   OH217446   4.815   1.512   5.766
 5830TIP3    H117447   4.903   1.494   5.733
 5830TIP3    H217448   4.775   1.426   5.777
 5831TIP3   OH217449   7.384   4.640   2.001
 5831TIP3    H117450   7.422   4.578   1.939
 5831TIP3    H217451   7.455   4.661   2.061
 5832TIP3   OH217452   1.465   3.529   2.504
 5832TIP3    H117453   1.452   3.623   2.492
 5832TIP3    H217454   1.382   3.497   2.539
 5833TIP3   OH217455   3.940   0.826   5.134
 5833TIP3    H117456   3.905   0.817   5.222
 5833TIP3    H217457   4.025   0.867   5.145
 5834TIP3   OH217458   0.263   6.872   3.887
 5834TIP3    H117459   0.317   6.838   3.816
 5834TIP3    H217460   0.180   6.894   3.846
 5835TIP3   OH217461   1.221   6.631   2.953
 5835TIP3    H117462   1.313   6.654   2.939
 5835TIP3    H217463   1.198   6.673   3.036
 5836TIP3   OH217464   0.259   4.862   3.818
 5836TIP3    H117465   0.217   4.776   3.822
 5836TIP3    H217466   0.350   4.845   3.841
 5837TIP3   OH217467   3.451   1.052   2.071
 5837TIP3    H117468   3.473   1.011   2.155
 5837TIP3    H217469   3.535   1.079   2.035
 5838TIP3   OH217470   0.248   6.412   5.290
 5838TIP3    H117471   0.321   6.457   5.247
 5838TIP3    H217472   0.239   6.330   5.242
 5839TIP3   OH217473   0.934   2.658   0.183
 5839TIP3    H117474   0.854   2.707   0.168
 5839TIP3    H217475   0.981   2.661   0.100
 5840TIP3   OH217476   3.720   1.311   2.334
 5840TIP3    H117477   3.725   1.300   2.429
 5840TIP3    H217478   3.796   1.364   2.312
 5841TIP3   OH217479   0.672   2.091   3.672
 5841TIP3    H117480   0.617   2.150   3.723
 5841TIP3    H217481   0.643   2.103   3.581
 5842TIP3   OH217482   0.061   4.989   3.399
 5842TIP3    H117483   0.014   5.051   3.455
 5842TIP3    H217484   0.077   5.038   3.318
 5843TIP3   OH217485   5.341   2.439   1.984
 5843TIP3    H117486   5.314   2.357   1.941
 5843TIP3    H217487   5.292   2.507   1.939
 5844TIP3   OH217488   7.755   4.396   5.498
 5844TIP3    H117489   7.800   4.465   5.546
 5844TIP3    H217490   7.662   4.409   5.519
 5845TIP3   OH217491   5.544   2.254   2.440
 5845TIP3    H117492   5.535   2.160   2.422
 5845TIP3    H217493   5.622   2.261   2.495
 5846TIP3   OH217494   0.990   2.991   2.344
 5846TIP3    H117495   1.006   2.992   2.250
 5846TIP3    H217496   0.988   3.083   2.369
 5847TIP3   OH217497   5.679   1.259   6.738
 5847TIP3    H117498   5.752   1.203   6.715
 5847TIP3    H217499   5.676   1.257   6.834
 5848TIP3   OH217500   7.856   0.534   5.237
 5848TIP3    H117501   7.907   0.545   5.157
 5848TIP3    H217502   7.889   0.452   5.275
 5849TIP3   OH217503   6.626   7.746   4.400
 5849TIP3    H117504   6.554   7.688   4.377
 5849TIP3    H217505   6.588   7.809   4.462
 5850TIP3   OH217506   0.088   0.725   6.213
 5850TIP3    H117507   0.172   0.682   6.197
 5850TIP3    H217508   0.024   0.668   6.170
 5851TIP3   OH217509   3.810   7.062   6.564
 5851TIP3    H117510   3.859   7.074   6.645
 5851TIP3    H217511   3.762   6.981   6.578
 5852TIP3   OH217512   4.431   1.278   0.510
 5852TIP3    H117513   4.456   1.229   0.589
 5852TIP3    H217514   4.377   1.216   0.461
 5853TIP3   OH217515   3.482   2.670   1.839
 5853TIP3    H117516   3.433   2.693   1.918
 5853TIP3    H217517   3.415   2.640   1.777
 5854TIP3   OH217518   1.240   2.257   1.973
 5854TIP3    H117519   1.191   2.187   2.015
 5854TIP3    H217520   1.177   2.327   1.961
 5855TIP3   OH217521   4.042   4.952   3.094
 5855TIP3    H117522   4.052   4.938   3.000
 5855TIP3    H217523   3.992   4.876   3.124
 5856TIP3   OH217524   5.302   5.433   0.577
 5856TIP3    H117525   5.295   5.463   0.667
 5856TIP3    H217526   5.212   5.420   0.549
 5857TIP3   OH217527   7.413   4.767   4.586
 5857TIP3    H117528   7.368   4.826   4.646
 5857TIP3    H217529   7.495   4.811   4.566
 5858TIP3   OH217530   8.085   0.036   5.688
 5858TIP3    H117531   8.091  -0.059   5.696
 5858TIP3    H217532   8.164   0.061   5.639
 5859TIP3   OH217533   8.020   5.302   3.227
 5859TIP3    H117534   8.110   5.284   3.199
 5859TIP3    H217535   8.006   5.394   3.201
 5860TIP3   OH217536   5.389   3.210   5.356
 5860TIP3    H117537   5.420   3.220   5.446
 5860TIP3    H217538   5.315   3.270   5.349
 5861TIP3   OH217539   1.599   1.326   6.531
 5861TIP3    H117540   1.592   1.414   6.494
 5861TIP3    H217541   1.554   1.270   6.468
 5862TIP3   OH217542   2.708   3.075   5.878
 5862TIP3    H117543   2.706   3.002   5.938
 5862TIP3    H217544   2.695   3.153   5.933
 5863TIP3   OH217545   1.875   6.645   0.323
 5863TIP3    H117546   1.933   6.582   0.279
 5863TIP3    H217547   1.903   6.730   0.288
 5864TIP3   OH217548   6.073   2.492   4.683
 5864TIP3    H117549   6.031   2.408   4.703
 5864TIP3    H217550   6.028   2.523   4.605
 5865TIP3   OH217551   1.226   6.736   1.140
 5865TIP3    H117552   1.158   6.777   1.087
 5865TIP3    H217553   1.228   6.788   1.221
 5866TIP3   OH217554   6.852   5.751   2.542
 5866TIP3    H117555   6.886   5.693   2.610
 5866TIP3    H217556   6.909   5.828   2.545
 5867TIP3   OH217557   0.496   6.252   1.058
 5867TIP3    H117558   0.542   6.192   1.117
 5867TIP3    H217559   0.531   6.338   1.080
 5868TIP3   OH217560   6.740   2.283   0.165
 5868TIP3    H117561   6.663   2.294   0.109
 5868TIP3    H217562   6.734   2.356   0.228
 5869TIP3   OH217563   8.111   7.259   0.507
 5869TIP3    H117564   8.020   7.253   0.479
 5869TIP3    H217565   8.128   7.352   0.518
 5870TIP3   OH217566   3.377   6.120   3.684
 5870TIP3    H117567   3.310   6.146   3.620
 5870TIP3    H217568   3.389   6.027   3.670
 5871TIP3   OH217569   4.315   0.891   3.004
 5871TIP3    H117570   4.306   0.833   2.928
 5871TIP3    H217571   4.405   0.924   2.998
 5872TIP3   OH217572   4.339   1.846   6.766
 5872TIP3    H117573   4.375   1.758   6.770
 5872TIP3    H217574   4.313   1.857   6.675
 5873TIP3   OH217575   3.654   1.143   5.948
 5873TIP3    H117576   3.744   1.110   5.957
 5873TIP3    H217577   3.664   1.235   5.924
 5874TIP3   OH217578   2.661   1.288   1.686
 5874TIP3    H117579   2.618   1.243   1.758
 5874TIP3    H217580   2.747   1.246   1.679
 5875TIP3   OH217581   4.998   3.933   1.434
 5875TIP3    H117582   5.086   3.940   1.397
 5875TIP3    H217583   5.005   3.974   1.520
 5876TIP3   OH217584   6.096   0.984   4.082
 5876TIP3    H117585   6.046   0.955   4.005
 5876TIP3    H217586   6.130   0.902   4.120
 5877TIP3   OH217587   5.004   3.923   3.028
 5877TIP3    H117588   5.022   3.839   2.986
 5877TIP3    H217589   4.920   3.951   2.991
 5878TIP3   OH217590   2.469   3.516   2.431
 5878TIP3    H117591   2.385   3.510   2.476
 5878TIP3    H217592   2.487   3.427   2.400
 5879TIP3   OH217593   6.530   3.043   5.312
 5879TIP3    H117594   6.601   3.016   5.253
 5879TIP3    H217595   6.514   2.965   5.366
 5880TIP3   OH217596   0.458   7.419   0.261
 5880TIP3    H117597   0.474   7.479   0.188
 5880TIP3    H217598   0.526   7.353   0.254
 5881TIP3   OH217599   3.569   5.708   5.667
 5881TIP3    H117600   3.512   5.692   5.591
 5881TIP3    H217601   3.508   5.718   5.741
 5882TIP3   OH217602   3.713   7.497   6.067
 5882TIP3    H117603   3.718   7.406   6.097
 5882TIP3    H217604   3.770   7.546   6.126
 5883TIP3   OH217605   3.940   3.570   0.524
 5883TIP3    H117606   3.892   3.625   0.587
 5883TIP3    H217607   4.007   3.527   0.577
 5884TIP3   OH217608   4.107   4.850   5.232
 5884TIP3    H117609   4.070   4.779   5.179
 5884TIP3    H217610   4.132   4.916   5.167
 5885TIP3   OH217611   6.186   1.271   1.688
 5885TIP3    H117612   6.154   1.237   1.605
 5885TIP3    H217613   6.136   1.224   1.755
 5886TIP3   OH217614   3.259   4.100   4.099
 5886TIP3    H117615   3.329   4.098   4.034
 5886TIP3    H217616   3.185   4.139   4.052
 5887TIP3   OH217617   7.601   4.304   3.679
 5887TIP3    H117618   7.666   4.259   3.732
 5887TIP3    H217619   7.521   4.302   3.732
 5888TIP3   OH217620   7.965   2.087   5.282
 5888TIP3    H117621   7.979   2.031   5.206
 5888TIP3    H217622   7.971   2.028   5.357
 5889TIP3   OH217623   5.370   0.779   6.553
 5889TIP3    H117624   5.367   0.869   6.584
 5889TIP3    H217625   5.290   0.770   6.500
 5890TIP3   OH217626   0.295   0.828   2.650
 5890TIP3    H117627   0.214   0.783   2.624
 5890TIP3    H217628   0.332   0.858   2.567
 5891TIP3   OH217629   0.460   5.562   3.456
 5891TIP3    H117630   0.386   5.623   3.469
 5891TIP3    H217631   0.447   5.528   3.367
 5892TIP3   OH217632   2.815   6.703   2.565
 5892TIP3    H117633   2.804   6.797   2.580
 5892TIP3    H217634   2.848   6.697   2.475
 5893TIP3   OH217635   7.395   6.543   1.193
 5893TIP3    H117636   7.315   6.549   1.141
 5893TIP3    H217637   7.464   6.524   1.130
 5894TIP3   OH217638   7.796   5.236   0.671
 5894TIP3    H117639   7.832   5.259   0.756
 5894TIP3    H217640   7.703   5.255   0.678
 5895TIP3   OH217641   1.002   1.852   2.712
 5895TIP3    H117642   0.986   1.929   2.657
 5895TIP3    H217643   1.026   1.783   2.651
 5896TIP3   OH217644   0.000   4.737   4.241
 5896TIP3    H117645   0.059   4.765   4.311
 5896TIP3    H217646   0.051   4.674   4.190
 5897TIP3   OH217647   0.844   5.263   2.416
 5897TIP3    H117648   0.893   5.334   2.374
 5897TIP3    H217649   0.866   5.270   2.508
 5898TIP3   OH217650   2.406   7.162   3.255
 5898TIP3    H117651   2.453   7.108   3.319
 5898TIP3    H217652   2.314   7.154   3.280
 5899TIP3   OH217653   4.350   1.318   3.427
 5899TIP3    H117654   4.286   1.387   3.441
 5899TIP3    H217655   4.430   1.350   3.469
 5900TIP3   OH217656   5.512   3.859   1.086
 5900TIP3    H117657   5.437   3.842   1.030
 5900TIP3    H217658   5.588   3.830   1.035
 5901TIP3   OH217659   8.157   5.539   1.115
 5901TIP3    H117660   8.143   5.603   1.046
 5901TIP3    H217661   8.190   5.591   1.189
 5902TIP3   OH217662   6.337   5.012   6.325
 5902TIP3    H117663   6.309   4.990   6.414
 5902TIP3    H217664   6.433   5.006   6.328
 5903TIP3   OH217665   5.617   5.397   1.488
 5903TIP3    H117666   5.596   5.488   1.508
 5903TIP3    H217667   5.710   5.399   1.464
 5904TIP3   OH217668   2.192   6.830   2.395
 5904TIP3    H117669   2.260   6.780   2.440
 5904TIP3    H217670   2.169   6.775   2.320
 5905TIP3   OH217671   6.560   6.749   3.152
 5905TIP3    H117672   6.584   6.842   3.148
 5905TIP3    H217673   6.487   6.746   3.214
 5906TIP3   OH217674   2.778   1.740   0.436
 5906TIP3    H117675   2.818   1.779   0.359
 5906TIP3    H217676   2.690   1.779   0.440
 5907TIP3   OH217677   3.183   0.242   3.368
 5907TIP3    H117678   3.176   0.170   3.431
 5907TIP3    H217679   3.127   0.311   3.404
 5908TIP3   OH217680   0.506   0.665   0.788
 5908TIP3    H117681   0.525   0.707   0.872
 5908TIP3    H217682   0.537   0.727   0.723
 5909TIP3   OH217683   6.514   1.282   5.624
 5909TIP3    H117684   6.494   1.217   5.557
 5909TIP3    H217685   6.610   1.283   5.628
 5910TIP3   OH217686   0.048   1.325   6.733
 5910TIP3    H117687   0.142   1.312   6.720
 5910TIP3    H217688   0.008   1.244   6.701
 5911TIP3   OH217689   1.208   2.113   0.479
 5911TIP3    H117690   1.148   2.145   0.546
 5911TIP3    H217691   1.163   2.041   0.437
 5912TIP3   OH217692   0.187   2.916   6.219
 5912TIP3    H117693   0.142   2.890   6.299
 5912TIP3    H217694   0.119   2.954   6.163
 5913TIP3   OH217695   0.299   1.549   1.763
 5913TIP3    H117696   0.330   1.636   1.739
 5913TIP3    H217697   0.378   1.496   1.766
 5914TIP3   OH217698   0.986   4.384   6.660
 5914TIP3    H117699   0.925   4.409   6.729
 5914TIP3    H217700   0.971   4.447   6.590
 5915TIP3   OH217701   5.232   1.151   4.810
 5915TIP3    H117702   5.298   1.190   4.753
 5915TIP3    H217703   5.228   1.210   4.885
 5916TIP3   OH217704   4.499   6.102   5.967
 5916TIP3    H117705   4.483   6.084   6.059
 5916TIP3    H217706   4.418   6.077   5.923
 5917TIP3   OH217707   0.765   6.892   2.949
 5917TIP3    H117708   0.783   6.986   2.958
 5917TIP3    H217709   0.744   6.863   3.038
 5918TIP3   OH217710   5.365   1.846   5.984
 5918TIP3    H117711   5.407   1.931   5.995
 5918TIP3    H217712   5.392   1.817   5.897
 5919TIP3   OH217713   5.938   7.396   4.529
 5919TIP3    H117714   5.870   7.340   4.566
 5919TIP3    H217715   5.893   7.476   4.504
 5920TIP3   OH217716   5.418   1.272   2.868
 5920TIP3    H117717   5.456   1.184   2.855
 5920TIP3    H217718   5.420   1.312   2.781
 5921TIP3   OH217719   3.079   1.252   5.257
 5921TIP3    H117720   3.073   1.338   5.215
 5921TIP3    H217721   3.075   1.271   5.351
 5922TIP3   OH217722   1.196   2.696   1.137
 5922TIP3    H117723   1.128   2.632   1.118
 5922TIP3    H217724   1.277   2.655   1.106
 5923TIP3   OH217725   5.031   7.282   4.990
 5923TIP3    H117726   4.949   7.245   4.959
 5923TIP3    H217727   5.062   7.220   5.055
 5924TIP3   OH217728   7.314   7.377   1.931
 5924TIP3    H117729   7.301   7.339   2.018
 5924TIP3    H217730   7.226   7.407   1.905
 5925TIP3   OH217731   4.183   4.078   0.728
 5925TIP3    H117732   4.179   4.002   0.785
 5925TIP3    H217733   4.133   4.145   0.774
 5926TIP3   OH217734   6.575   1.730   5.862
 5926TIP3    H117735   6.515   1.659   5.843
 5926TIP3    H217736   6.646   1.719   5.799
 5927TIP3   OH217737   3.902   4.060   3.631
 5927TIP3    H117738   3.983   4.049   3.581
 5927TIP3    H217739   3.848   4.117   3.576
 5928TIP3   OH217740   7.543   0.054   3.937
 5928TIP3    H117741   7.563   0.088   3.849
 5928TIP3    H217742   7.599  -0.022   3.947
 5929TIP3   OH217743   0.244   3.743   5.413
 5929TIP3    H117744   0.158   3.716   5.381
 5929TIP3    H217745   0.306   3.697   5.358
 5930TIP3   OH217746   6.706   4.394   0.011
 5930TIP3    H117747   6.666   4.334   0.074
 5930TIP3    H217748   6.638   4.407  -0.056
 5931TIP3   OH217749   1.239   1.591   6.353
 5931TIP3    H117750   1.145   1.579   6.339
 5931TIP3    H217751   1.278   1.505   6.332
 5932TIP3   OH217752   3.444   2.312   6.619
 5932TIP3    H117753   3.382   2.383   6.631
 5932TIP3    H217754   3.392   2.239   6.586
 5933TIP3   OH217755   3.668   4.323   6.216
 5933TIP3    H117756   3.755   4.363   6.211
 5933TIP3    H217757   3.673   4.263   6.290
 5934TIP3   OH217758   3.542   2.589   1.018
 5934TIP3    H117759   3.461   2.635   1.035
 5934TIP3    H217760   3.515   2.499   0.999
 5935TIP3   OH217761   3.174   5.062   3.588
 5935TIP3    H117762   3.155   5.130   3.653
 5935TIP3    H217763   3.268   5.047   3.596
 5936TIP3   OH217764   2.210   6.072   2.207
 5936TIP3    H117765   2.180   5.993   2.251
 5936TIP3    H217766   2.154   6.080   2.130
 5937TIP3   OH217767   1.185   6.679   5.245
 5937TIP3    H117768   1.184   6.767   5.207
 5937TIP3    H217769   1.190   6.621   5.169
 5938TIP3   OH217770   3.837   1.683   0.756
 5938TIP3    H117771   3.833   1.749   0.825
 5938TIP3    H217772   3.789   1.608   0.791
 5939TIP3   OH217773   7.762   1.058   5.406
 5939TIP3    H117774   7.806   1.081   5.324
 5939TIP3    H217775   7.729   0.969   5.392
 5940TIP3   OH217776   7.809   1.831   6.087
 5940TIP3    H117777   7.800   1.880   6.006
 5940TIP3    H217778   7.730   1.777   6.091
 5941TIP3   OH217779   4.356   4.646   1.542
 5941TIP3    H117780   4.398   4.571   1.501
 5941TIP3    H217781   4.285   4.609   1.594
 5942TIP3   OH217782   5.050   2.008   2.134
 5942TIP3    H117783   5.059   2.103   2.141
 5942TIP3    H217784   5.065   1.990   2.041
 5943TIP3   OH217785   7.543   0.520   3.447
 5943TIP3    H117786   7.533   0.546   3.355
 5943TIP3    H217787   7.577   0.431   3.444
 5944TIP3   OH217788   6.329   4.760   0.349
 5944TIP3    H117789   6.359   4.709   0.423
 5944TIP3    H217790   6.352   4.708   0.272
 5945TIP3   OH217791   2.762   1.766   1.538
 5945TIP3    H117792   2.778   1.853   1.575
 5945TIP3    H217793   2.710   1.722   1.605
 5946TIP3   OH217794   4.772   6.174   3.687
 5946TIP3    H117795   4.867   6.165   3.680
 5946TIP3    H217796   4.746   6.227   3.612
 5947TIP3   OH217797   5.784   0.233   3.295
 5947TIP3    H117798   5.768   0.259   3.204
 5947TIP3    H217799   5.863   0.281   3.320
 5948TIP3   OH217800   5.103   4.279   4.973
 5948TIP3    H117801   5.119   4.362   5.017
 5948TIP3    H217802   5.008   4.272   4.967
 5949TIP3   OH217803   0.921   0.038   6.722
 5949TIP3    H117804   0.866   0.105   6.681
 5949TIP3    H217805   0.859  -0.024   6.760
 5950TIP3   OH217806   2.546   5.823   5.630
 5950TIP3    H117807   2.633   5.784   5.640
 5950TIP3    H217808   2.561   5.917   5.642
 5951TIP3   OH217809   1.698   2.917   4.739
 5951TIP3    H117810   1.687   2.832   4.695
 5951TIP3    H217811   1.715   2.978   4.668
 5952TIP3   OH217812   2.871   6.082   5.353
 5952TIP3    H117813   2.818   6.080   5.273
 5952TIP3    H217814   2.809   6.059   5.423
 5953TIP3   OH217815   4.326   4.124   2.105
 5953TIP3    H117816   4.279   4.073   2.170
 5953TIP3    H217817   4.388   4.062   2.066
 5954TIP3   OH217818   4.685   1.217   2.345
 5954TIP3    H117819   4.777   1.197   2.328
 5954TIP3    H217820   4.688   1.286   2.412
 5955TIP3   OH217821   3.080   0.428   6.713
 5955TIP3    H117822   3.145   0.497   6.698
 5955TIP3    H217823   2.995   0.473   6.703
 5956TIP3   OH217824   4.622   6.245   2.493
 5956TIP3    H117825   4.550   6.186   2.513
 5956TIP3    H217826   4.697   6.209   2.540
 5957TIP3   OH217827   2.826   5.738   1.663
 5957TIP3    H117828   2.766   5.803   1.700
 5957TIP3    H217829   2.907   5.749   1.713
 5958TIP3   OH217830   5.664   1.187   5.346
 5958TIP3    H117831   5.583   1.237   5.354
 5958TIP3    H217832   5.706   1.196   5.431
 5959TIP3   OH217833   5.761   5.632   0.814
 5959TIP3    H117834   5.702   5.566   0.777
 5959TIP3    H217835   5.811   5.584   0.880
 5960TIP3   OH217836   0.388   3.503   6.358
 5960TIP3    H117837   0.316   3.560   6.386
 5960TIP3    H217838   0.377   3.495   6.263
 5961TIP3   OH217839   5.801   2.305   2.592
 5961TIP3    H117840   5.877   2.248   2.584
 5961TIP3    H217841   5.833   2.392   2.567
 5962TIP3   OH217842   0.669   2.168   5.129
 5962TIP3    H117843   0.738   2.102   5.137
 5962TIP3    H217844   0.588   2.120   5.142
 5963TIP3   OH217845   3.037   7.178   3.447
 5963TIP3    H117846   3.131   7.195   3.453
 5963TIP3    H217847   3.030   7.083   3.438
 5964TIP3   OH217848   2.408   0.667   2.136
 5964TIP3    H117849   2.442   0.632   2.218
 5964TIP3    H217850   2.483   0.666   2.077
 5965TIP3   OH217851   2.171   0.589   2.072
 5965TIP3    H117852   2.151   0.532   2.146
 5965TIP3    H217853   2.264   0.610   2.081
 5966TIP3   OH217854   0.343   4.148   0.936
 5966TIP3    H117855   0.362   4.070   0.884
 5966TIP3    H217856   0.348   4.118   1.027
 5967TIP3   OH217857   7.561   7.427   5.186
 5967TIP3    H117858   7.554   7.429   5.281
 5967TIP3    H217859   7.491   7.369   5.157
 5968TIP3   OH217860   6.254   1.638   0.925
 5968TIP3    H117861   6.286   1.722   0.957
 5968TIP3    H217862   6.170   1.626   0.970
 5969TIP3   OH217863   0.919   0.401   2.529
 5969TIP3    H117864   0.833   0.442   2.526
 5969TIP3    H217865   0.932   0.377   2.621
 5970TIP3   OH217866   5.304   2.100   5.527
 5970TIP3    H117867   5.387   2.078   5.483
 5970TIP3    H217868   5.290   2.029   5.589
 5971TIP3   OH217869   6.269   1.639   3.380
 5971TIP3    H117870   6.353   1.644   3.426
 5971TIP3    H217871   6.280   1.698   3.305
 5972TIP3   OH217872   5.685   0.126   5.964
 5972TIP3    H117873   5.618   0.059   5.956
 5972TIP3    H217874   5.698   0.137   6.058
 5973TIP3   OH217875   6.793   5.428   6.563
 5973TIP3    H117876   6.870   5.388   6.604
 5973TIP3    H217877   6.793   5.518   6.594
 5974TIP3   OH217878   5.662   7.744   1.847
 5974TIP3    H117879   5.713   7.676   1.803
 5974TIP3    H217880   5.578   7.745   1.801
 5975TIP3   OH217881   5.764   3.157   5.430
 5975TIP3    H117882   5.727   3.227   5.484
 5975TIP3    H217883   5.858   3.164   5.444
 5976TIP3   OH217884   1.876   4.524   1.612
 5976TIP3    H117885   1.796   4.472   1.611
 5976TIP3    H217886   1.851   4.608   1.576
 5977TIP3   OH217887   7.811   7.442   6.431
 5977TIP3    H117888   7.739   7.380   6.418
 5977TIP3    H217889   7.789   7.486   6.513
 5978TIP3   OH217890   3.255   1.330   3.475
 5978TIP3    H117891   3.258   1.423   3.495
 5978TIP3    H217892   3.190   1.294   3.535
 5979TIP3   OH217893   6.715   5.422   2.958
 5979TIP3    H117894   6.637   5.447   3.008
 5979TIP3    H217895   6.778   5.491   2.977
 5980TIP3   OH217896   1.632   1.553   5.006
 5980TIP3    H117897   1.715   1.600   5.007
 5980TIP3    H217898   1.657   1.460   5.009
 5981TIP3   OH217899   6.482   7.797   2.092
 5981TIP3    H117900   6.513   7.874   2.045
 5981TIP3    H217901   6.388   7.796   2.075
 5982TIP3   OH217902   5.814   7.428   1.348
 5982TIP3    H117903   5.785   7.337   1.343
 5982TIP3    H217904   5.794   7.455   1.438
 5983TIP3   OH217905   1.704   2.881   5.857
 5983TIP3    H117906   1.673   2.915   5.773
 5983TIP3    H217907   1.652   2.802   5.871
 5984TIP3   OH217908   8.113   6.937   1.867
 5984TIP3    H117909   8.064   6.857   1.850
 5984TIP3    H217910   8.180   6.939   1.799
 5985TIP3   OH217911   1.560   0.468   4.232
 5985TIP3    H117912   1.536   0.376   4.240
 5985TIP3    H217913   1.614   0.487   4.309
 5986TIP3   OH217914   6.893   0.497   6.344
 5986TIP3    H117915   6.929   0.586   6.346
 5986TIP3    H217916   6.969   0.440   6.357
 5987TIP3   OH217917   6.059   3.099   5.465
 5987TIP3    H117918   6.076   3.177   5.413
 5987TIP3    H217919   6.082   3.026   5.408
 5988TIP3   OH217920   4.080   0.149   2.055
 5988TIP3    H117921   4.038   0.161   2.140
 5988TIP3    H217922   4.014   0.106   2.001
 5989TIP3   OH217923   3.621   0.444   3.554
 5989TIP3    H117924   3.715   0.456   3.539
 5989TIP3    H217925   3.613   0.354   3.587
 5990TIP3   OH217926   3.080   0.236   6.024
 5990TIP3    H117927   3.098   0.326   5.997
 5990TIP3    H217928   3.086   0.185   5.943
 5991TIP3   OH217929   3.168   1.065   0.458
 5991TIP3    H117930   3.172   1.013   0.538
 5991TIP3    H217931   3.143   1.152   0.487
 5992TIP3   OH217932   1.111   4.280   5.455
 5992TIP3    H117933   1.132   4.350   5.393
 5992TIP3    H217934   1.154   4.306   5.537
 5993TIP3   OH217935   8.127   4.512   0.057
 5993TIP3    H117936   8.222   4.512   0.045
 5993TIP3    H217937   8.107   4.599   0.090
 5994TIP3   OH217938   2.382   0.494   5.867
 5994TIP3    H117939   2.360   0.466   5.956
 5994TIP3    H217940   2.409   0.585   5.876
 5995TIP3   OH217941   3.007   0.760   0.963
 5995TIP3    H117942   2.966   0.837   0.924
 5995TIP3    H217943   3.044   0.791   1.045
 5996TIP3   OH217944   5.410   1.888   2.986
 5996TIP3    H117945   5.458   1.885   3.069
 5996TIP3    H217946   5.324   1.923   3.009
 5997TIP3   OH217947   6.938   0.832   5.201
 5997TIP3    H117948   6.973   0.920   5.190
 5997TIP3    H217949   6.931   0.797   5.113
 5998TIP3   OH217950   4.407   2.313   3.021
 5998TIP3    H117951   4.475   2.285   3.082
 5998TIP3    H217952   4.378   2.233   2.977
 5999TIP3   OH217953   6.889   5.192   3.899
 5999TIP3    H117954   6.892   5.099   3.874
 5999TIP3    H217955   6.835   5.193   3.978
 6000TIP3   OH217956   7.019   0.619   4.714
 6000TIP3    H117957   7.003   0.677   4.640
 6000TIP3    H217958   7.042   0.535   4.675
 6001TIP3   OH217959   4.229   5.327   3.126
 6001TIP3    H117960   4.142   5.287   3.122
 6001TIP3    H217961   4.232   5.369   3.212
 6002TIP3   OH217962   7.290   6.020   4.475
 6002TIP3    H117963   7.205   6.061   4.466
 6002TIP3    H217964   7.342   6.082   4.526
 6003TIP3   OH217965   1.744   3.638   3.306
 6003TIP3    H117966   1.682   3.706   3.280
 6003TIP3    H217967   1.711   3.606   3.390
 6004TIP3   OH217968   1.217   6.530   5.015
 6004TIP3    H117969   1.238   6.575   4.933
 6004TIP3    H217970   1.301   6.522   5.060
 6005TIP3   OH217971   5.590   1.171   3.320
 6005TIP3    H117972   5.516   1.139   3.372
 6005TIP3    H217973   5.550   1.216   3.246
 6006TIP3   OH217974   4.900   3.584   2.231
 6006TIP3    H117975   4.955   3.573   2.308
 6006TIP3    H217976   4.878   3.677   2.231
 6007TIP3   OH217977   2.347   1.967   3.026
 6007TIP3    H117978   2.276   2.030   3.019
 6007TIP3    H217979   2.411   2.009   3.084
 6008TIP3   OH217980   8.303   6.336   1.855
 6008TIP3    H117981   8.298   6.295   1.768
 6008TIP3    H217982   8.214   6.364   1.874
 6009TIP3   OH217983   1.375   2.850   5.537
 6009TIP3    H117984   1.360   2.855   5.631
 6009TIP3    H217985   1.386   2.757   5.519
 6010TIP3   OH217986   4.365   6.312   6.518
 6010TIP3    H117987   4.317   6.236   6.551
 6010TIP3    H217988   4.357   6.307   6.423
 6011TIP3   OH217989   6.139   1.207   5.984
 6011TIP3    H117990   6.204   1.215   6.054
 6011TIP3    H217991   6.178   1.255   5.911
 6012TIP3   OH217992   7.257   4.828   4.104
 6012TIP3    H117993   7.175   4.878   4.108
 6012TIP3    H217994   7.277   4.821   4.010
 6013TIP3   OH217995   0.924   0.563   6.010
 6013TIP3    H117996   0.923   0.554   5.915
 6013TIP3    H217997   0.983   0.637   6.026
 6014TIP3   OH217998   0.285   2.748   4.339
 6014TIP3    H117999   0.326   2.663   4.319
 6014TIP3    H218000   0.312   2.767   4.429
 6015TIP3   OH218001   0.592   2.107   0.876
 6015TIP3    H118002   0.614   2.195   0.903
 6015TIP3    H218003   0.527   2.077   0.940
 6016TIP3   OH218004   2.730   3.416   2.177
 6016TIP3    H118005   2.786   3.407   2.254
 6016TIP3    H218006   2.647   3.378   2.204
 6017TIP3   OH218007   1.681   1.936   1.761
 6017TIP3    H118008   1.711   1.950   1.851
 6017TIP3    H218009   1.709   2.014   1.713
 6018TIP3   OH218010   4.143   5.908   5.619
 6018TIP3    H118011   4.201   5.879   5.548
 6018TIP3    H218012   4.091   5.978   5.581
 6019TIP3   OH218013   3.980   0.039   6.419
 6019TIP3    H118014   4.061   0.037   6.469
 6019TIP3    H218015   4.005   0.072   6.333
 6020TIP3   OH218016   5.167   1.832   4.039
 6020TIP3    H118017   5.112   1.757   4.020
 6020TIP3    H218018   5.112   1.889   4.092
 6021TIP3   OH218019   6.576   2.568   5.860
 6021TIP3    H118020   6.609   2.658   5.856
 6021TIP3    H218021   6.623   2.523   5.790
 6022TIP3   OH218022   1.377   1.238   1.305
 6022TIP3    H118023   1.358   1.317   1.356
 6022TIP3    H218024   1.413   1.270   1.223
 6023TIP3   OH218025   6.410   2.575   2.067
 6023TIP3    H118026   6.374   2.486   2.066
 6023TIP3    H218027   6.504   2.563   2.052
 6024TIP3   OH218028   3.760   2.402   4.371
 6024TIP3    H118029   3.850   2.380   4.348
 6024TIP3    H218030   3.759   2.497   4.383
 6025TIP3   OH218031   6.092   1.229   3.960
 6025TIP3    H118032   6.069   1.195   3.873
 6025TIP3    H218033   6.086   1.153   4.018
 6026TIP3   OH218034   3.748   1.476   6.229
 6026TIP3    H118035   3.833   1.510   6.202
 6026TIP3    H218036   3.687   1.505   6.161
 6027TIP3   OH218037   4.825   4.699   2.912
 6027TIP3    H118038   4.823   4.604   2.928
 6027TIP3    H218039   4.778   4.710   2.830
 6028TIP3   OH218040   5.218   2.788   4.990
 6028TIP3    H118041   5.307   2.787   4.956
 6028TIP3    H218042   5.227   2.818   5.080
 6029TIP3   OH218043   6.416   3.256   5.027
 6029TIP3    H118044   6.429   3.303   5.109
 6029TIP3    H218045   6.370   3.176   5.052
 6030TIP3   OH218046   6.698   6.902   3.398
 6030TIP3    H118047   6.631   6.940   3.341
 6030TIP3    H218048   6.781   6.933   3.363
 6031TIP3   OH218049   2.395   6.289   5.450
 6031TIP3    H118050   2.390   6.382   5.475
 6031TIP3    H218051   2.359   6.287   5.361
 6032TIP3   OH218052   5.279   7.586   2.834
 6032TIP3    H118053   5.348   7.554   2.892
 6032TIP3    H218054   5.316   7.663   2.791
 6033TIP3   OH218055   1.167   5.999   1.174
 6033TIP3    H118056   1.113   5.919   1.178
 6033TIP3    H218057   1.180   6.014   1.081
 6034TIP3   OH218058   1.618   5.703   4.761
 6034TIP3    H118059   1.653   5.618   4.788
 6034TIP3    H218060   1.534   5.709   4.805
 6035TIP3   OH218061   5.421   3.453   3.063
 6035TIP3    H118062   5.451   3.544   3.064
 6035TIP3    H218063   5.396   3.437   2.971
 6036TIP3   OH218064   1.728   0.357   1.451
 6036TIP3    H118065   1.780   0.405   1.515
 6036TIP3    H218066   1.791   0.326   1.386
 6037TIP3   OH218067   2.988   7.499   0.535
 6037TIP3    H118068   2.895   7.478   0.528
 6037TIP3    H218069   3.030   7.415   0.554
 6038TIP3   OH218070   7.632   3.061   1.479
 6038TIP3    H118071   7.676   3.128   1.427
 6038TIP3    H218072   7.614   2.991   1.418
 6039TIP3   OH218073   8.301   3.074   1.439
 6039TIP3    H118074   8.261   3.122   1.367
 6039TIP3    H218075   8.353   3.006   1.397
 6040TIP3   OH218076   7.819   0.998   6.275
 6040TIP3    H118077   7.912   1.001   6.254
 6040TIP3    H218078   7.785   1.081   6.241
 6041TIP3   OH218079   5.980   5.028   6.649
 6041TIP3    H118080   5.965   5.098   6.585
 6041TIP3    H218081   6.005   5.075   6.729
 6042TIP3   OH218082   4.074   1.615   1.655
 6042TIP3    H118083   4.132   1.676   1.701
 6042TIP3    H218084   4.020   1.671   1.599
 6043TIP3   OH218085   3.515   0.157   2.087
 6043TIP3    H118086   3.568   0.087   2.050
 6043TIP3    H218087   3.504   0.219   2.014
 6044TIP3   OH218088   5.793   0.875   0.435
 6044TIP3    H118089   5.857   0.937   0.401
 6044TIP3    H218090   5.738   0.852   0.360
 6045TIP3   OH218091   3.580   5.242   5.159
 6045TIP3    H118092   3.546   5.176   5.220
 6045TIP3    H218093   3.613   5.190   5.085
 6046TIP3   OH218094   6.000   0.852   0.094
 6046TIP3    H118095   6.093   0.862   0.114
 6046TIP3    H218096   5.996   0.856  -0.002
 6047TIP3   OH218097   5.641   0.938   6.401
 6047TIP3    H118098   5.627   1.026   6.365
 6047TIP3    H218099   5.583   0.882   6.350
 6048TIP3   OH218100   1.831   4.721   1.438
 6048TIP3    H118101   1.868   4.800   1.396
 6048TIP3    H218102   1.787   4.675   1.367
 6049TIP3   OH218103   4.764   2.073   3.355
 6049TIP3    H118104   4.766   2.053   3.449
 6049TIP3    H218105   4.837   2.022   3.319
 6050TIP3   OH218106   3.156   0.642   5.658
 6050TIP3    H118107   3.153   0.693   5.738
 6050TIP3    H218108   3.211   0.567   5.679
 6051TIP3   OH218109   2.347   0.781   3.685
 6051TIP3    H118110   2.326   0.731   3.764
 6051TIP3    H218111   2.441   0.794   3.689
 6052TIP3   OH218112   5.912   2.440   6.587
 6052TIP3    H118113   5.860   2.361   6.569
 6052TIP3    H218114   5.918   2.484   6.502
 6053TIP3   OH218115   3.599   2.950   5.783
 6053TIP3    H118116   3.555   2.926   5.702
 6053TIP3    H218117   3.530   2.952   5.849
 6054TIP3   OH218118   1.360   6.974   6.283
 6054TIP3    H118119   1.295   6.911   6.252
 6054TIP3    H218120   1.435   6.963   6.224
 6055TIP3   OH218121  -0.018   0.833   4.133
 6055TIP3    H118122  -0.024   0.901   4.066
 6055TIP3    H218123   0.076   0.820   4.146
 6056TIP3   OH218124   5.857   0.457   6.747
 6056TIP3    H118125   5.885   0.495   6.663
 6056TIP3    H218126   5.924   0.392   6.767
 6057TIP3   OH218127   3.213   6.199   0.423
 6057TIP3    H118128   3.280   6.135   0.399
 6057TIP3    H218129   3.222   6.269   0.359
 6058TIP3   OH218130   7.410   4.588   0.475
 6058TIP3    H118131   7.407   4.561   0.567
 6058TIP3    H218132   7.504   4.598   0.456
 6059TIP3   OH218133   5.980   5.542   0.980
 6059TIP3    H118134   6.000   5.619   1.034
 6059TIP3    H218135   6.063   5.520   0.939
 6060TIP3   OH218136   3.286   4.564   6.172
 6060TIP3    H118137   3.376   4.585   6.197
 6060TIP3    H218138   3.233   4.622   6.226
 6061TIP3   OH218139   0.211   0.270   1.296
 6061TIP3    H118140   0.132   0.223   1.269
 6061TIP3    H218141   0.220   0.250   1.389
 6062TIP3   OH218142   4.743   7.683   6.277
 6062TIP3    H118143   4.713   7.704   6.366
 6062TIP3    H218144   4.729   7.763   6.227
 6063TIP3   OH218145   2.186   5.914   3.247
 6063TIP3    H118146   2.233   5.877   3.173
 6063TIP3    H218147   2.196   6.008   3.238
 6064TIP3   OH218148   1.685   2.292   3.775
 6064TIP3    H118149   1.644   2.332   3.851
 6064TIP3    H218150   1.718   2.366   3.724
 6065TIP3   OH218151   2.823   0.209   3.905
 6065TIP3    H118152   2.728   0.208   3.895
 6065TIP3    H218153   2.851   0.120   3.884
 6066TIP3   OH218154   3.730   1.514   4.943
 6066TIP3    H118155   3.707   1.566   5.020
 6066TIP3    H218156   3.768   1.433   4.979
 6067TIP3   OH218157   0.236   0.485   3.917
 6067TIP3    H118158   0.320   0.439   3.927
 6067TIP3    H218159   0.173   0.431   3.965
 6068TIP3   OH218160   4.730   4.013   3.375
 6068TIP3    H118161   4.783   3.934   3.361
 6068TIP3    H218162   4.779   4.062   3.441
 6069TIP3   OH218163   6.658   0.363   4.299
 6069TIP3    H118164   6.713   0.310   4.356
 6069TIP3    H218165   6.583   0.387   4.353
 6070TIP3   OH218166   5.060   1.062   2.580
 6070TIP3    H118167   5.106   1.145   2.576
 6070TIP3    H218168   5.096   1.011   2.507
 6071TIP3   OH218169   5.642   4.791   5.312
 6071TIP3    H118170   5.547   4.780   5.324
 6071TIP3    H218171   5.652   4.816   5.221
 6072TIP3   OH218172   3.131   5.707  -0.002
 6072TIP3    H118173   3.181   5.677   0.074
 6072TIP3    H218174   3.040   5.686   0.018
 6073TIP3   OH218175   1.411   5.584   1.406
 6073TIP3    H118176   1.425   5.590   1.312
 6073TIP3    H218177   1.476   5.643   1.444
 6074TIP3   OH218178   5.423   2.900   2.653
 6074TIP3    H118179   5.371   2.978   2.676
 6074TIP3    H218180   5.369   2.853   2.589
 6075TIP3   OH218181   6.040   0.309   2.239
 6075TIP3    H118182   5.960   0.260   2.221
 6075TIP3    H218183   6.110   0.253   2.206
 6076TIP3   OH218184   4.541   4.980   1.112
 6076TIP3    H118185   4.613   5.041   1.094
 6076TIP3    H218186   4.563   4.941   1.196
 6077TIP3   OH218187   3.439   6.770   6.129
 6077TIP3    H118188   3.355   6.740   6.165
 6077TIP3    H218189   3.487   6.690   6.109
 6078TIP3   OH218190   0.415   0.220   6.381
 6078TIP3    H118191   0.509   0.238   6.373
 6078TIP3    H218192   0.411   0.133   6.422
 6079TIP3   OH218193   7.207   2.644   3.819
 6079TIP3    H118194   7.175   2.661   3.730
 6079TIP3    H218195   7.134   2.668   3.876
 6080TIP3   OH218196   3.204   4.137   5.054
 6080TIP3    H118197   3.261   4.115   5.128
 6080TIP3    H218198   3.219   4.066   4.991
 6081TIP3   OH218199   1.699   3.813   1.736
 6081TIP3    H118200   1.636   3.858   1.678
 6081TIP3    H218201   1.784   3.846   1.709
 6082TIP3   OH218202   2.134   5.688   1.688
 6082TIP3    H118203   2.227   5.711   1.692
 6082TIP3    H218204   2.129   5.600   1.724
 6083TIP3   OH218205   5.493   3.375   6.611
 6083TIP3    H118206   5.488   3.337   6.523
 6083TIP3    H218207   5.578   3.419   6.613
 6084TIP3   OH218208   6.808   1.343   1.911
 6084TIP3    H118209   6.743   1.316   1.976
 6084TIP3    H218210   6.786   1.292   1.833
 6085TIP3   OH218211   8.304   5.941   0.523
 6085TIP3    H118212   8.250   6.010   0.485
 6085TIP3    H218213   8.241   5.876   0.554
 6086TIP3   OH218214   4.579   3.199   2.002
 6086TIP3    H118215   4.555   3.222   1.912
 6086TIP3    H218216   4.640   3.268   2.028
 6087TIP3   OH218217   1.381   0.884   0.469
 6087TIP3    H118218   1.327   0.835   0.531
 6087TIP3    H218219   1.465   0.896   0.514
 6088TIP3   OH218220   1.500   2.508   2.697
 6088TIP3    H118221   1.486   2.602   2.693
 6088TIP3    H218222   1.494   2.478   2.606
 6089TIP3   OH218223   2.201   1.427   6.536
 6089TIP3    H118224   2.122   1.474   6.510
 6089TIP3    H218225   2.272   1.489   6.518
 6090TIP3   OH218226   6.694   6.816   1.853
 6090TIP3    H118227   6.660   6.728   1.837
 6090TIP3    H218228   6.777   6.802   1.898
 6091TIP3   OH218229   3.656   0.875   1.704
 6091TIP3    H118230   3.642   0.959   1.748
 6091TIP3    H218231   3.733   0.889   1.649
 6092TIP3   OH218232   6.110   2.607   2.927
 6092TIP3    H118233   6.035   2.548   2.928
 6092TIP3    H218234   6.080   2.683   2.876
 6093TIP3   OH218235   0.560   1.117   3.350
 6093TIP3    H118236   0.546   1.132   3.257
 6093TIP3    H218237   0.479   1.149   3.392
 6094TIP3   OH218238   3.232   1.165   3.254
 6094TIP3    H118239   3.150   1.131   3.288
 6094TIP3    H218240   3.265   1.222   3.324
 6095TIP3   OH218241   1.218   5.601   0.065
 6095TIP3    H118242   1.202   5.621   0.157
 6095TIP3    H218243   1.133   5.614   0.023
 6096TIP3   OH218244   7.453   4.736   6.120
 6096TIP3    H118245   7.443   4.831   6.116
 6096TIP3    H218246   7.373   4.705   6.163
 6097TIP3   OH218247   1.285   1.477   2.226
 6097TIP3    H118248   1.344   1.545   2.258
 6097TIP3    H218249   1.209   1.525   2.193
 6098TIP3   OH218250   1.261   0.492   0.798
 6098TIP3    H118251   1.174   0.456   0.780
 6098TIP3    H218252   1.321   0.434   0.750
 6099TIP3   OH218253   7.473   1.662   4.481
 6099TIP3    H118254   7.507   1.700   4.400
 6099TIP3    H218255   7.381   1.687   4.483
 6100TIP3   OH218256   4.633   5.862   1.668
 6100TIP3    H118257   4.556   5.818   1.703
 6100TIP3    H218258   4.600   5.946   1.636
 6101TIP3   OH218259   5.364   4.645   5.635
 6101TIP3    H118260   5.396   4.725   5.593
 6101TIP3    H218261   5.274   4.665   5.660
 6102TIP3   OH218262   2.552   6.604   2.055
 6102TIP3    H118263   2.559   6.666   2.127
 6102TIP3    H218264   2.574   6.520   2.094
 6103TIP3   OH218265   4.894   1.482   0.523
 6103TIP3    H118266   4.847   1.399   0.517
 6103TIP3    H218267   4.947   1.486   0.444
 6104TIP3   OH218268   6.946   5.567   5.700
 6104TIP3    H118269   6.870   5.516   5.725
 6104TIP3    H218270   6.939   5.647   5.751
 6105TIP3   OH218271   4.685   4.544   6.328
 6105TIP3    H118272   4.659   4.463   6.373
 6105TIP3    H218273   4.757   4.578   6.381
 6106TIP3   OH218274   7.507   2.608   1.429
 6106TIP3    H118275   7.568   2.609   1.503
 6106TIP3    H218276   7.435   2.553   1.457
 6107TIP3   OH218277   1.653   2.383   1.288
 6107TIP3    H118278   1.715   2.442   1.330
 6107TIP3    H218279   1.595   2.355   1.359
 6108TIP3   OH218280   4.340   2.431   4.815
 6108TIP3    H118281   4.424   2.438   4.860
 6108TIP3    H218282   4.327   2.517   4.775
 6109TIP3   OH218283   3.220   1.941   0.841
 6109TIP3    H118284   3.261   1.869   0.793
 6109TIP3    H218285   3.188   1.901   0.922
 6110TIP3   OH218286   7.365   5.202   5.906
 6110TIP3    H118287   7.362   5.166   5.818
 6110TIP3    H218288   7.287   5.256   5.914
 6111TIP3   OH218289   6.242   3.314   5.942
 6111TIP3    H118290   6.179   3.346   5.878
 6111TIP3    H218291   6.237   3.376   6.015
 6112TIP3   OH218292   2.998   0.975   2.130
 6112TIP3    H118293   3.031   0.956   2.043
 6112TIP3    H218294   3.075   0.975   2.186
 6113TIP3   OH218295   2.875   4.472   5.795
 6113TIP3    H118296   2.828   4.432   5.723
 6113TIP3    H218297   2.807   4.516   5.847
 6114TIP3   OH218298   1.421   6.325   6.416
 6114TIP3    H118299   1.378   6.344   6.333
 6114TIP3    H218300   1.376   6.379   6.480
 6115TIP3   OH218301   4.787   5.571   4.687
 6115TIP3    H118302   4.871   5.603   4.721
 6115TIP3    H218303   4.763   5.500   4.747
 6116TIP3   OH218304   7.538   7.318   1.132
 6116TIP3    H118305   7.509   7.409   1.135
 6116TIP3    H218306   7.520   7.284   1.220
 6117TIP3   OH218307   3.977   2.641   6.314
 6117TIP3    H118308   3.950   2.709   6.375
 6117TIP3    H218309   3.909   2.574   6.321
 6118TIP3   OH218310   4.951   0.917   4.918
 6118TIP3    H118311   4.974   1.009   4.935
 6118TIP3    H218312   5.017   0.867   4.965
 6119TIP3   OH218313   2.908   6.816   2.936
 6119TIP3    H118314   2.946   6.789   3.020
 6119TIP3    H218315   2.981   6.817   2.875
 6120TIP3   OH218316   1.661   6.003   6.153
 6120TIP3    H118317   1.621   5.920   6.180
 6120TIP3    H218318   1.622   6.023   6.068
 6121TIP3   OH218319   0.571   1.381   6.789
 6121TIP3    H118320   0.658   1.394   6.751
 6121TIP3    H218321   0.513   1.370   6.714
 6122TIP3   OH218322   4.591   5.523   3.181
 6122TIP3    H118323   4.574   5.573   3.260
 6122TIP3    H218324   4.662   5.464   3.204
 6123TIP3   OH218325   8.113   5.589   4.499
 6123TIP3    H118326   8.164   5.540   4.434
 6123TIP3    H218327   8.154   5.568   4.583
 6124TIP3   OH218328   7.481   4.763   3.449
 6124TIP3    H118329   7.520   4.676   3.446
 6124TIP3    H218330   7.452   4.780   3.359
 6125TIP3   OH218331   3.883   4.112   2.201
 6125TIP3    H118332   3.877   4.206   2.186
 6125TIP3    H218333   3.870   4.102   2.295
 6126TIP3   OH218334   3.455   5.519   6.051
 6126TIP3    H118335   3.443   5.541   6.143
 6126TIP3    H218336   3.470   5.604   6.009
 6127TIP3   OH218337   8.292   2.386   4.357
 6127TIP3    H118338   8.349   2.437   4.414
 6127TIP3    H218339   8.264   2.312   4.412
 6128TIP3   OH218340   3.477   2.310   1.295
 6128TIP3    H118341   3.536   2.366   1.244
 6128TIP3    H218342   3.422   2.267   1.229
 6129TIP3   OH218343   6.072   1.453   4.124
 6129TIP3    H118344   6.122   1.439   4.204
 6129TIP3    H218345   6.088   1.375   4.071
 6130TIP3   OH218346   3.490   2.086   4.971
 6130TIP3    H118347   3.396   2.104   4.958
 6130TIP3    H218348   3.514   2.028   4.899
 6131TIP3   OH218349   3.384   1.747   1.539
 6131TIP3    H118350   3.336   1.684   1.485
 6131TIP3    H218351   3.331   1.755   1.618
 6132TIP3   OH218352   3.090   0.541   3.682
 6132TIP3    H118353   3.081   0.612   3.619
 6132TIP3    H218354   3.000   0.514   3.701
 6133TIP3   OH218355   1.768   6.192   3.090
 6133TIP3    H118356   1.790   6.112   3.137
 6133TIP3    H218357   1.837   6.254   3.113
 6134TIP3   OH218358   3.006   2.692   3.052
 6134TIP3    H118359   3.001   2.733   2.966
 6134TIP3    H218360   3.089   2.643   3.051
 6135TIP3   OH218361   5.460   5.585   3.572
 6135TIP3    H118362   5.554   5.605   3.577
 6135TIP3    H218363   5.422   5.626   3.649
 6136TIP3   OH218364   4.848   7.304   5.337
 6136TIP3    H118365   4.895   7.224   5.314
 6136TIP3    H218366   4.768   7.274   5.378
 6137TIP3   OH218367   1.591   1.455   1.772
 6137TIP3    H118368   1.581   1.382   1.833
 6137TIP3    H218369   1.574   1.533   1.825
 6138TIP3   OH218370   1.022   4.333   1.998
 6138TIP3    H118371   1.021   4.238   2.001
 6138TIP3    H218372   0.936   4.359   2.033
 6139TIP3   OH218373   0.709   7.858   1.091
 6139TIP3    H118374   0.619   7.870   1.122
 6139TIP3    H218375   0.707   7.777   1.041
 6140TIP3   OH218376   3.779   3.503   2.601
 6140TIP3    H118377   3.833   3.478   2.526
 6140TIP3    H218378   3.834   3.561   2.653
 6141TIP3   OH218379   4.216   6.661   5.031
 6141TIP3    H118380   4.296   6.678   5.081
 6141TIP3    H218381   4.145   6.687   5.090
 6142TIP3   OH218382   0.948   0.349   2.117
 6142TIP3    H118383   0.859   0.314   2.120
 6142TIP3    H218384   0.983   0.316   2.034
 6143TIP3   OH218385   5.828   2.210   6.451
 6143TIP3    H118386   5.798   2.238   6.364
 6143TIP3    H218387   5.907   2.159   6.434
 6144TIP3   OH218388   1.041   7.014   0.844
 6144TIP3    H118389   0.962   7.006   0.792
 6144TIP3    H218390   1.039   7.103   0.878
 6145TIP3   OH218391   5.854   6.295   0.880
 6145TIP3    H118392   5.914   6.338   0.941
 6145TIP3    H218393   5.771   6.342   0.893
 6146TIP3   OH218394   4.674   3.186   3.127
 6146TIP3    H118395   4.754   3.161   3.174
 6146TIP3    H218396   4.705   3.230   3.048
 6147TIP3   OH218397   0.246   0.913   1.693
 6147TIP3    H118398   0.200   0.830   1.680
 6147TIP3    H218399   0.241   0.929   1.788
 6148TIP3   OH218400   3.660   3.421   1.851
 6148TIP3    H118401   3.655   3.435   1.946
 6148TIP3    H218402   3.743   3.459   1.825
 6149TIP3   OH218403   1.228   1.453   3.236
 6149TIP3    H118404   1.281   1.426   3.310
 6149TIP3    H218405   1.291   1.475   3.167
 6150TIP3   OH218406   3.476   2.088   2.199
 6150TIP3    H118407   3.454   2.039   2.278
 6150TIP3    H218408   3.398   2.082   2.144
 6151TIP3   OH218409   4.617   7.571   3.031
 6151TIP3    H118410   4.696   7.583   2.978
 6151TIP3    H218411   4.572   7.655   3.025
 6152TIP3   OH218412   5.312   7.168   2.926
 6152TIP3    H118413   5.221   7.146   2.945
 6152TIP3    H218414   5.348   7.089   2.885
 6153TIP3   OH218415   6.395   4.415   1.692
 6153TIP3    H118416   6.339   4.482   1.652
 6153TIP3    H218417   6.352   4.332   1.671
 6154TIP3   OH218418   1.729   1.985   4.940
 6154TIP3    H118419   1.636   1.964   4.942
 6154TIP3    H218420   1.771   1.902   4.918
 6155TIP3   OH218421   2.147   3.927   4.179
 6155TIP3    H118422   2.102   3.897   4.259
 6155TIP3    H218423   2.156   4.022   4.191
 6156TIP3   OH218424   2.130   3.866   3.338
 6156TIP3    H118425   2.171   3.780   3.334
 6156TIP3    H218426   2.195   3.922   3.381
 6157TIP3   OH218427   1.234   6.708   4.394
 6157TIP3    H118428   1.246   6.755   4.312
 6157TIP3    H218429   1.304   6.643   4.395
 6158TIP3   OH218430   6.497   6.380   4.621
 6158TIP3    H118431   6.511   6.474   4.610
 6158TIP3    H218432   6.580   6.340   4.594
 6159TIP3   OH218433   6.034   4.189   5.338
 6159TIP3    H118434   6.000   4.101   5.356
 6159TIP3    H218435   6.123   4.175   5.306
 6160TIP3   OH218436   4.206   0.525   5.673
 6160TIP3    H118437   4.124   0.557   5.711
 6160TIP3    H218438   4.260   0.501   5.748
 6161TIP3   OH218439   0.014   6.129   2.067
 6161TIP3    H118440   0.017   6.152   1.974
 6161TIP3    H218441   0.042   6.038   2.071
 6162TIP3   OH218442   7.455   2.662   3.204
 6162TIP3    H118443   7.463   2.599   3.132
 6162TIP3    H218444   7.463   2.747   3.162
 6163TIP3   OH218445   6.814   5.474   1.825
 6163TIP3    H118446   6.783   5.515   1.745
 6163TIP3    H218447   6.796   5.538   1.894
 6164TIP3   OH218448   5.654   0.191   0.871
 6164TIP3    H118449   5.647   0.225   0.781
 6164TIP3    H218450   5.611   0.106   0.868
 6165TIP3   OH218451   0.665   0.445   0.283
 6165TIP3    H118452   0.718   0.420   0.207
 6165TIP3    H218453   0.659   0.540   0.278
 6166TIP3   OH218454   3.643   5.740   0.083
 6166TIP3    H118455   3.550   5.736   0.063
 6166TIP3    H218456   3.662   5.657   0.127
 6167TIP3   OH218457   0.811   3.845   5.057
 6167TIP3    H118458   0.875   3.907   5.022
 6167TIP3    H218459   0.749   3.900   5.105
 6168TIP3   OH218460   8.112   1.731   0.301
 6168TIP3    H118461   8.187   1.711   0.245
 6168TIP3    H218462   8.111   1.661   0.366
 6169TIP3   OH218463   1.067   2.735   3.480
 6169TIP3    H118464   1.074   2.739   3.385
 6169TIP3    H218465   1.152   2.766   3.512
 6170TIP3   OH218466   8.022   4.814   2.185
 6170TIP3    H118467   8.013   4.738   2.128
 6170TIP3    H218468   7.958   4.877   2.151
 6171TIP3   OH218469   8.312   5.728   6.632
 6171TIP3    H118470   8.270   5.786   6.569
 6171TIP3    H218471   8.350   5.787   6.697
 6172TIP3   OH218472   6.561   4.910   4.314
 6172TIP3    H118473   6.604   4.844   4.369
 6172TIP3    H218474   6.560   4.989   4.367
 6173TIP3   OH218475   0.002   5.924   5.835
 6173TIP3    H118476   0.079   5.872   5.860
 6173TIP3    H218477  -0.073   5.871   5.863
 6174TIP3   OH218478   1.769   1.301   5.102
 6174TIP3    H118479   1.830   1.309   5.175
 6174TIP3    H218480   1.801   1.226   5.052
 6175TIP3   OH218481   6.824   0.575   1.676
 6175TIP3    H118482   6.859   0.492   1.643
 6175TIP3    H218483   6.766   0.549   1.748
 6176TIP3   OH218484   0.663   4.503   4.193
 6176TIP3    H118485   0.709   4.577   4.153
 6176TIP3    H218486   0.642   4.533   4.281
 6177TIP3   OH218487   2.718   5.594   6.651
 6177TIP3    H118488   2.648   5.531   6.669
 6177TIP3    H218489   2.741   5.578   6.560
 6178TIP3   OH218490   1.652   0.945   4.465
 6178TIP3    H118491   1.563   0.928   4.434
 6178TIP3    H218492   1.670   1.035   4.438
 6179TIP3   OH218493   0.144   2.475   4.582
 6179TIP3    H118494   0.127   2.557   4.627
 6179TIP3    H218495   0.238   2.461   4.592
 6180TIP3   OH218496   6.624   6.634   6.652
 6180TIP3    H118497   6.688   6.609   6.718
 6180TIP3    H218498   6.672   6.693   6.594
 6181TIP3   OH218499   7.374   6.318   5.069
 6181TIP3    H118500   7.332   6.311   4.983
 6181TIP3    H218501   7.468   6.306   5.051
 6182TIP3   OH218502   0.357   1.227   3.767
 6182TIP3    H118503   0.448   1.221   3.795
 6182TIP3    H218504   0.318   1.291   3.826
 6183TIP3   OH218505   0.169   4.531   2.608
 6183TIP3    H118506   0.145   4.579   2.528
 6183TIP3    H218507   0.098   4.552   2.670
 6184TIP3   OH218508   2.247   4.662   1.027
 6184TIP3    H118509   2.195   4.653   0.947
 6184TIP3    H218510   2.243   4.576   1.068
 6185TIP3   OH218511   6.189   1.808   4.075
 6185TIP3    H118512   6.257   1.803   4.142
 6185TIP3    H218513   6.108   1.787   4.121
 6186TIP3   OH218514   6.040   4.487   3.718
 6186TIP3    H118515   5.987   4.409   3.704
 6186TIP3    H218516   6.127   4.454   3.741
 6187TIP3   OH218517   2.013   2.532   0.341
 6187TIP3    H118518   1.944   2.482   0.296
 6187TIP3    H218519   2.073   2.558   0.271
 6188TIP3   OH218520   1.257   7.623   3.147
 6188TIP3    H118521   1.229   7.690   3.085
 6188TIP3    H218522   1.201   7.548   3.129
 6189TIP3   OH218523   5.154   3.534   1.412
 6189TIP3    H118524   5.165   3.440   1.402
 6189TIP3    H218525   5.064   3.552   1.386
 6190TIP3   OH218526   3.987   2.589   6.721
 6190TIP3    H118527   4.004   2.680   6.745
 6190TIP3    H218528   3.920   2.560   6.783
 6191TIP3   OH218529   6.445   2.728   5.371
 6191TIP3    H118530   6.398   2.678   5.438
 6191TIP3    H218531   6.376   2.769   5.319
 6192TIP3   OH218532   2.852   4.342   1.867
 6192TIP3    H118533   2.817   4.257   1.840
 6192TIP3    H218534   2.778   4.402   1.858
 6193TIP3   OH218535   3.897   2.839   4.283
 6193TIP3    H118536   3.975   2.884   4.251
 6193TIP3    H218537   3.835   2.908   4.305
 6194TIP3   OH218538   2.374   2.467   5.630
 6194TIP3    H118539   2.313   2.421   5.687
 6194TIP3    H218540   2.414   2.399   5.576
 6195TIP3   OH218541   2.568   0.493   0.817
 6195TIP3    H118542   2.593   0.507   0.908
 6195TIP3    H218543   2.598   0.572   0.771
 6196TIP3   OH218544   2.804   0.042   0.429
 6196TIP3    H118545   2.771   0.085   0.508
 6196TIP3    H218546   2.896   0.068   0.424
 6197TIP3   OH218547   4.083   2.582   4.481
 6197TIP3    H118548   4.060   2.524   4.409
 6197TIP3    H218549   4.024   2.556   4.552
 6198TIP3   OH218550   2.061   4.229   2.219
 6198TIP3    H118551   2.078   4.145   2.175
 6198TIP3    H218552   2.129   4.288   2.185
 6199TIP3   OH218553   4.181   0.690   4.014
 6199TIP3    H118554   4.176   0.595   4.005
 6199TIP3    H218555   4.220   0.720   3.932
 6200TIP3   OH218556   6.509   4.748   4.828
 6200TIP3    H118557   6.458   4.813   4.780
 6200TIP3    H218558   6.599   4.760   4.797
 6201TIP3   OH218559   3.859   3.368   4.581
 6201TIP3    H118560   3.920   3.387   4.510
 6201TIP3    H218561   3.853   3.273   4.584
 6202TIP3   OH218562   3.995   2.311   6.687
 6202TIP3    H118563   4.029   2.296   6.599
 6202TIP3    H218564   4.030   2.396   6.712
 6203TIP3   OH218565   7.557   7.808   3.366
 6203TIP3    H118566   7.634   7.837   3.318
 6203TIP3    H218567   7.590   7.787   3.454
 6204TIP3   OH218568   5.916   3.420   3.208
 6204TIP3    H118569   5.935   3.336   3.250
 6204TIP3    H218570   5.837   3.452   3.254
 6205TIP3   OH218571   3.017   2.145   0.401
 6205TIP3    H118572   3.041   2.055   0.422
 6205TIP3    H218573   3.093   2.180   0.353
 6206TIP3   OH218574   7.234   7.683   6.806
 6206TIP3    H118575   7.153   7.732   6.796
 6206TIP3    H218576   7.240   7.631   6.725
 6207TIP3   OH218577   7.364   1.949   1.821
 6207TIP3    H118578   7.306   1.991   1.884
 6207TIP3    H218579   7.342   1.989   1.737
 6208TIP3   OH218580   2.291   0.917   3.452
 6208TIP3    H118581   2.306   0.911   3.547
 6208TIP3    H218582   2.254   0.832   3.429
 6209TIP3   OH218583   1.747   5.548   3.039
 6209TIP3    H118584   1.655   5.569   3.023
 6209TIP3    H218585   1.759   5.461   3.001
 6210TIP3   OH218586   6.342   3.759   6.089
 6210TIP3    H118587   6.295   3.676   6.099
 6210TIP3    H218588   6.421   3.749   6.143
 6211TIP3   OH218589   3.968   5.048   1.135
 6211TIP3    H118590   3.884   5.026   1.177
 6211TIP3    H218591   4.027   4.979   1.164
 6212TIP3   OH218592   0.912   0.841   1.110
 6212TIP3    H118593   0.997   0.850   1.152
 6212TIP3    H218594   0.868   0.924   1.127
 6213TIP3   OH218595   2.155   2.298   1.076
 6213TIP3    H118596   2.175   2.276   1.167
 6213TIP3    H218597   2.234   2.343   1.045
 6214TIP3   OH218598   4.708   1.121   1.409
 6214TIP3    H118599   4.620   1.102   1.376
 6214TIP3    H218600   4.737   1.195   1.356
 6215TIP3   OH218601   4.908   3.495   3.553
 6215TIP3    H118602   4.815   3.478   3.545
 6215TIP3    H218603   4.950   3.427   3.500
 6216TIP3   OH218604   0.584   0.081   6.096
 6216TIP3    H118605   0.588   0.084   6.000
 6216TIP3    H218606   0.496   0.047   6.115
 6217TIP3   OH218607   8.088   5.375   5.808
 6217TIP3    H118608   7.994   5.361   5.821
 6217TIP3    H218609   8.102   5.467   5.830
 6218TIP3   OH218610   0.811   6.640   2.001
 6218TIP3    H118611   0.767   6.692   1.933
 6218TIP3    H218612   0.754   6.647   2.077
 6219TIP3   OH218613   6.021   4.336   5.654
 6219TIP3    H118614   6.074   4.272   5.607
 6219TIP3    H218615   5.960   4.283   5.705
 6220TIP3   OH218616   0.293   7.682   4.334
 6220TIP3    H118617   0.207   7.640   4.330
 6220TIP3    H218618   0.308   7.716   4.246
 6221TIP3   OH218619   2.706   3.921   1.629
 6221TIP3    H118620   2.743   4.002   1.665
 6221TIP3    H218621   2.622   3.947   1.593
 6222TIP3   OH218622   8.333   0.322   3.996
 6222TIP3    H118623   8.335   0.292   4.087
 6222TIP3    H218624   8.250   0.368   3.987
 6223TIP3   OH218625   7.272   7.233   0.857
 6223TIP3    H118626   7.242   7.304   0.801
 6223TIP3    H218627   7.368   7.236   0.850
 6224TIP3   OH218628   0.099   5.493   5.759
 6224TIP3    H118629   0.076   5.407   5.723
 6224TIP3    H218630   0.095   5.481   5.853
 6225TIP3   OH218631   6.753   0.730   5.383
 6225TIP3    H118632   6.805   0.760   5.309
 6225TIP3    H218633   6.814   0.728   5.456
 6226TIP3   OH218634   2.485   5.976   3.625
 6226TIP3    H118635   2.485   5.988   3.720
 6226TIP3    H218636   2.565   5.927   3.607
 6227TIP3   OH218637   8.212   1.983   6.599
 6227TIP3    H118638   8.279   1.971   6.665
 6227TIP3    H218639   8.188   2.076   6.605
 6228TIP3   OH218640   0.974   5.935   2.095
 6228TIP3    H118641   0.963   5.989   2.017
 6228TIP3    H218642   1.066   5.907   2.092
 6229TIP3   OH218643   5.319   1.700   4.302
 6229TIP3    H118644   5.388   1.662   4.358
 6229TIP3    H218645   5.267   1.625   4.273
 6230TIP3   OH218646   7.867   6.681   4.204
 6230TIP3    H118647   7.916   6.711   4.127
 6230TIP3    H218648   7.878   6.750   4.268
 6231TIP3   OH218649   5.520   4.108   4.768
 6231TIP3    H118650   5.609   4.098   4.803
 6231TIP3    H218651   5.484   4.182   4.817
 6232TIP3   OH218652   7.860   0.585   4.421
 6232TIP3    H118653   7.896   0.535   4.347
 6232TIP3    H218654   7.778   0.621   4.387
 6233TIP3   OH218655   6.436   2.201   5.736
 6233TIP3    H118656   6.515   2.255   5.736
 6233TIP3    H218657   6.409   2.198   5.644
 6234TIP3   OH218658   6.559   3.882   5.906
 6234TIP3    H118659   6.648   3.849   5.914
 6234TIP3    H218660   6.509   3.833   5.972
 6235TIP3   OH218661   2.953   2.410   0.133
 6235TIP3    H118662   3.036   2.374   0.164
 6235TIP3    H218663   2.893   2.336   0.131
 6236TIP3   OH218664   5.277   1.763   6.596
 6236TIP3    H118665   5.279   1.770   6.501
 6236TIP3    H218666   5.337   1.830   6.627
 6237TIP3   OH218667   0.426   6.174   2.483
 6237TIP3    H118668   0.428   6.269   2.473
 6237TIP3    H218669   0.366   6.144   2.415
 6238TIP3   OH218670   4.384   1.458   2.011
 6238TIP3    H118671   4.436   1.454   1.931
 6238TIP3    H218672   4.401   1.376   2.056
 6239TIP3   OH218673   4.046   3.717   2.361
 6239TIP3    H118674   3.971   3.765   2.396
 6239TIP3    H218675   4.013   3.629   2.345
 6240TIP3   OH218676   5.321   1.629   6.115
 6240TIP3    H118677   5.337   1.714   6.075
 6240TIP3    H218678   5.383   1.571   6.071
 6241TIP3   OH218679   6.464   3.888   1.364
 6241TIP3    H118680   6.417   3.948   1.305
 6241TIP3    H218681   6.453   3.802   1.324
 6242TIP3   OH218682   2.656   0.397   1.195
 6242TIP3    H118683   2.578   0.387   1.251
 6242TIP3    H218684   2.655   0.489   1.168
 6243TIP3   OH218685   3.973   3.455   2.338
 6243TIP3    H118686   3.896   3.473   2.284
 6243TIP3    H218687   4.032   3.406   2.280
 6244TIP3   OH218688   1.691   2.003   6.316
 6244TIP3    H118689   1.623   2.004   6.383
 6244TIP3    H218690   1.689   2.091   6.279
 6245TIP3   OH218691   0.608   0.199   4.851
 6245TIP3    H118692   0.540   0.186   4.916
 6245TIP3    H218693   0.593   0.131   4.786
 6246TIP3   OH218694   2.741   6.984   2.025
 6246TIP3    H118695   2.732   6.979   1.930
 6246TIP3    H218696   2.685   7.057   2.051
 6247TIP3   OH218697   1.862   4.845   6.531
 6247TIP3    H118698   1.858   4.758   6.492
 6247TIP3    H218699   1.800   4.898   6.480
 6248TIP3   OH218700   4.492   0.432   6.117
 6248TIP3    H118701   4.483   0.394   6.204
 6248TIP3    H218702   4.499   0.356   6.059
 6249TIP3   OH218703   1.365   2.186   1.290
 6249TIP3    H118704   1.351   2.151   1.202
 6249TIP3    H218705   1.298   2.254   1.299
 6250TIP3   OH218706   4.448   5.649   6.130
 6250TIP3    H118707   4.464   5.603   6.212
 6250TIP3    H218708   4.424   5.738   6.157
 6251TIP3   OH218709   3.640   7.159   3.155
 6251TIP3    H118710   3.563   7.170   3.211
 6251TIP3    H218711   3.645   7.241   3.106
 6252TIP3   OH218712   0.538   6.337   6.383
 6252TIP3    H118713   0.478   6.263   6.384
 6252TIP3    H218714   0.508   6.391   6.310
 6253TIP3   OH218715   6.098   2.348   3.631
 6253TIP3    H118716   6.104   2.253   3.622
 6253TIP3    H218717   6.150   2.368   3.709
 6254TIP3   OH218718   4.453   1.448   5.907
 6254TIP3    H118719   4.460   1.416   5.997
 6254TIP3    H218720   4.362   1.475   5.897
 6255TIP3   OH218721   2.524   3.134   2.529
 6255TIP3    H118722   2.475   3.195   2.583
 6255TIP3    H218723   2.589   3.096   2.588
 6256TIP3   OH218724   2.024   5.978   2.520
 6256TIP3    H118725   2.067   5.893   2.516
 6256TIP3    H218726   1.934   5.962   2.491
 6257TIP3   OH218727   1.552   3.162   4.526
 6257TIP3    H118728   1.645   3.164   4.549
 6257TIP3    H218729   1.544   3.090   4.464
 6258TIP3   OH218730   5.846   4.986   3.654
 6258TIP3    H118731   5.904   4.924   3.610
 6258TIP3    H218732   5.881   4.993   3.742
 6259TIP3   OH218733   4.603   6.345   3.904
 6259TIP3    H118734   4.691   6.309   3.895
 6259TIP3    H218735   4.576   6.319   3.992
 6260TIP3   OH218736   5.854   4.223   5.891
 6260TIP3    H118737   5.816   4.310   5.904
 6260TIP3    H218738   5.842   4.179   5.976
 6261TIP3   OH218739   1.529   7.839   4.155
 6261TIP3    H118740   1.513   7.745   4.161
 6261TIP3    H218741   1.501   7.873   4.240
 6262TIP3   OH218742   6.734   1.268   0.821
 6262TIP3    H118743   6.822   1.304   0.832
 6262TIP3    H218744   6.677   1.345   0.813
 6263TIP3   OH218745   0.037   6.099   5.266
 6263TIP3    H118746   0.034   6.036   5.338
 6263TIP3    H218747  -0.055   6.110   5.240
 6264TIP3   OH218748   4.108   6.937   0.890
 6264TIP3    H118749   4.114   7.026   0.857
 6264TIP3    H218750   4.166   6.936   0.966
 6265TIP3   OH218751   7.789   2.089   4.524
 6265TIP3    H118752   7.706   2.100   4.569
 6265TIP3    H218753   7.798   2.167   4.470
 6266TIP3   OH218754   5.182   5.074   3.030
 6266TIP3    H118755   5.147   4.995   2.991
 6266TIP3    H218756   5.271   5.051   3.056
 6267TIP3   OH218757   6.359   4.822   6.130
 6267TIP3    H118758   6.366   4.896   6.191
 6267TIP3    H218759   6.409   4.848   6.053
 6268TIP3   OH218760   3.336   7.509   6.589
 6268TIP3    H118761   3.331   7.591   6.638
 6268TIP3    H218762   3.317   7.441   6.654
 6269TIP3   OH218763   0.528   7.336   1.059
 6269TIP3    H118764   0.459   7.392   1.024
 6269TIP3    H218765   0.490   7.248   1.058
 6270TIP3   OH218766   8.228   4.675   6.365
 6270TIP3    H118767   8.207   4.635   6.449
 6270TIP3    H218768   8.172   4.753   6.360
 6271TIP3   OH218769   0.700   1.519   4.483
 6271TIP3    H118770   0.631   1.454   4.489
 6271TIP3    H218771   0.674   1.588   4.545
 6272TIP3   OH218772   7.976   2.221   5.876
 6272TIP3    H118773   7.955   2.134   5.840
 6272TIP3    H218774   8.056   2.247   5.831
 6273TIP3   OH218775   0.963   2.572   5.359
 6273TIP3    H118776   0.950   2.535   5.447
 6273TIP3    H218777   0.893   2.534   5.306
 6274TIP3   OH218778   2.064   0.644   2.983
 6274TIP3    H118779   2.012   0.693   2.919
 6274TIP3    H218780   1.999   0.611   3.046
 6275TIP3   OH218781   7.061   4.135   1.221
 6275TIP3    H118782   7.099   4.094   1.300
 6275TIP3    H218783   6.982   4.179   1.253
 6276TIP3   OH218784   7.955   6.826   0.813
 6276TIP3    H118785   7.895   6.898   0.828
 6276TIP3    H218786   7.914   6.774   0.744
 6277TIP3   OH218787   6.827   7.619   6.712
 6277TIP3    H118788   6.866   7.706   6.712
 6277TIP3    H218789   6.771   7.617   6.790
 6278TIP3   OH218790   8.310   2.092   5.958
 6278TIP3    H118791   8.301   2.128   6.046
 6278TIP3    H218792   8.276   2.003   5.965
 6279TIP3   OH218793   6.218   1.724   0.659
 6279TIP3    H118794   6.271   1.664   0.606
 6279TIP3    H218795   6.229   1.693   0.749
 6280TIP3   OH218796   3.538   6.838   1.478
 6280TIP3    H118797   3.630   6.824   1.459
 6280TIP3    H218798   3.534   6.849   1.573
 6281TIP3   OH218799   5.731   3.728   3.844
 6281TIP3    H118800   5.733   3.813   3.801
 6281TIP3    H218801   5.783   3.671   3.786
 6282TIP3   OH218802   7.397   0.038   6.101
 6282TIP3    H118803   7.400   0.101   6.029
 6282TIP3    H218804   7.306   0.009   6.103
 6283TIP3   OH218805   7.360   6.054   5.126
 6283TIP3    H118806   7.378   6.061   5.219
 6283TIP3    H218807   7.371   6.144   5.093
 6284TIP3   OH218808   6.229   7.690   0.061
 6284TIP3    H118809   6.226   7.784   0.046
 6284TIP3    H218810   6.261   7.653  -0.021
 6285TIP3   OH218811   3.307   3.250   1.248
 6285TIP3    H118812   3.325   3.300   1.169
 6285TIP3    H218813   3.303   3.315   1.318
 6286TIP3   OH218814   1.487   3.862   4.232
 6286TIP3    H118815   1.440   3.930   4.281
 6286TIP3    H218816   1.455   3.780   4.269
 6287TIP3   OH218817   6.263   2.860   0.209
 6287TIP3    H118818   6.196   2.798   0.181
 6287TIP3    H218819   6.283   2.911   0.131
 6288TIP3   OH218820   1.203   6.474   2.505
 6288TIP3    H118821   1.207   6.460   2.411
 6288TIP3    H218822   1.231   6.391   2.543
 6289TIP3   OH218823   0.854   5.265   5.239
 6289TIP3    H118824   0.826   5.175   5.254
 6289TIP3    H218825   0.937   5.256   5.191
 6290TIP3   OH218826   1.799   3.123   3.621
 6290TIP3    H118827   1.707   3.121   3.595
 6290TIP3    H218828   1.847   3.140   3.540
 6291TIP3   OH218829   8.134   6.583   5.463
 6291TIP3    H118830   8.148   6.662   5.412
 6291TIP3    H218831   8.222   6.547   5.477
 6292TIP3   OH218832   3.803   0.388   2.031
 6292TIP3    H118833   3.806   0.382   2.126
 6292TIP3    H218834   3.838   0.305   2.000
 6293TIP3   OH218835   2.661   0.848   6.143
 6293TIP3    H118836   2.701   0.762   6.135
 6293TIP3    H218837   2.674   0.872   6.235
 6294TIP3   OH218838   1.827   3.229   0.916
 6294TIP3    H118839   1.777   3.159   0.956
 6294TIP3    H218840   1.790   3.239   0.829
 6295TIP3   OH218841   2.516   4.739   5.251
 6295TIP3    H118842   2.432   4.755   5.209
 6295TIP3    H218843   2.556   4.668   5.201
 6296TIP3   OH218844   1.679   0.706   2.618
 6296TIP3    H118845   1.612   0.741   2.559
 6296TIP3    H218846   1.730   0.783   2.644
 6297TIP3   OH218847   8.096   4.409   4.395
 6297TIP3    H118848   8.168   4.395   4.333
 6297TIP3    H218849   8.076   4.503   4.388
 6298TIP3   OH218850   1.943   4.905   0.839
 6298TIP3    H118851   1.861   4.857   0.838
 6298TIP3    H218852   1.934   4.970   0.770
 6299TIP3   OH218853   7.946   2.637   3.357
 6299TIP3    H118854   8.015   2.578   3.386
 6299TIP3    H218855   7.972   2.722   3.391
 6300TIP3   OH218856   3.883   5.739   1.530
 6300TIP3    H118857   3.854   5.806   1.592
 6300TIP3    H218858   3.941   5.786   1.470
 6301TIP3   OH218859   0.205   5.194   3.040
 6301TIP3    H118860   0.300   5.186   3.035
 6301TIP3    H218861   0.172   5.128   2.979
 6302TIP3   OH218862   4.721   3.184   0.327
 6302TIP3    H118863   4.751   3.214   0.241
 6302TIP3    H218864   4.668   3.106   0.309
 6303TIP3   OH218865   7.368   2.144  -0.027
 6303TIP3    H118866   7.305   2.176   0.037
 6303TIP3    H218867   7.453   2.155   0.015
 6304TIP3   OH218868   3.430   7.310   0.819
 6304TIP3    H118869   3.340   7.280   0.813
 6304TIP3    H218870   3.437   7.347   0.907
 6305TIP3   OH218871   1.770   5.238   5.506
 6305TIP3    H118872   1.675   5.246   5.513
 6305TIP3    H218873   1.801   5.239   5.596
 6306TIP3   OH218874   3.290   5.507   1.820
 6306TIP3    H118875   3.233   5.536   1.748
 6306TIP3    H218876   3.372   5.554   1.806
 6307TIP3   OH218877  -0.020   4.770   3.597
 6307TIP3    H118878   0.031   4.691   3.614
 6307TIP3    H218879   0.017   4.806   3.516
 6308TIP3   OH218880   3.103   0.205   0.809
 6308TIP3    H118881   3.115   0.250   0.893
 6308TIP3    H218882   3.171   0.137   0.808
 6309TIP3   OH218883   0.981   2.627   2.618
 6309TIP3    H118884   1.036   2.691   2.572
 6309TIP3    H218885   1.035   2.548   2.621
 6310TIP3   OH218886   7.728   0.311   1.333
 6310TIP3    H118887   7.773   0.392   1.308
 6310TIP3    H218888   7.795   0.261   1.381
 6311TIP3   OH218889   7.039   2.008   2.279
 6311TIP3    H118890   7.009   1.942   2.341
 6311TIP3    H218891   6.959   2.047   2.245
 6312TIP3   OH218892   2.101   4.672   5.954
 6312TIP3    H118893   2.081   4.757   5.915
 6312TIP3    H218894   2.061   4.675   6.041
 6313TIP3   OH218895   4.898   3.055   3.948
 6313TIP3    H118896   4.938   2.989   3.891
 6313TIP3    H218897   4.876   3.127   3.890
 6314TIP3   OH218898   1.274   7.627   2.846
 6314TIP3    H118899   1.196   7.663   2.804
 6314TIP3    H218900   1.333   7.609   2.773
 6315TIP3   OH218901   0.159   1.384   4.920
 6315TIP3    H118902   0.084   1.390   4.979
 6315TIP3    H218903   0.233   1.413   4.974
 6316TIP3   OH218904   3.612   0.273   1.065
 6316TIP3    H118905   3.586   0.189   1.102
 6316TIP3    H218906   3.529   0.318   1.048
 6317TIP3   OH218907   0.094   1.469   4.185
 6317TIP3    H118908   0.049   1.528   4.125
 6317TIP3    H218909   0.184   1.500   4.188
 6318TIP3   OH218910   5.178   4.649   4.841
 6318TIP3    H118911   5.203   4.620   4.753
 6318TIP3    H218912   5.105   4.593   4.865
 6319TIP3   OH218913   2.591   3.486   2.916
 6319TIP3    H118914   2.615   3.488   3.008
 6319TIP3    H218915   2.564   3.575   2.896
 6320TIP3   OH218916   4.336   0.950   0.025
 6320TIP3    H118917   4.252   0.921   0.062
 6320TIP3    H218918   4.313   0.985  -0.061
 6321TIP3   OH218919   3.583   5.151   0.643
 6321TIP3    H118920   3.529   5.195   0.577
 6321TIP3    H218921   3.531   5.154   0.723
 6322TIP3   OH218922   5.579   4.153   1.533
 6322TIP3    H118923   5.594   4.073   1.584
 6322TIP3    H218924   5.583   4.124   1.441
 6323TIP3   OH218925   7.800   3.544   6.550
 6323TIP3    H118926   7.889   3.537   6.515
 6323TIP3    H218927   7.789   3.637   6.570
 6324TIP3   OH218928   3.829   4.302   2.871
 6324TIP3    H118929   3.792   4.323   2.785
 6324TIP3    H218930   3.790   4.367   2.930
 6325TIP3   OH218931   0.262   0.867   5.265
 6325TIP3    H118932   0.229   0.792   5.315
 6325TIP3    H218933   0.187   0.927   5.261
 6326TIP3   OH218934   5.478   3.189   0.118
 6326TIP3    H118935   5.524   3.131   0.179
 6326TIP3    H218936   5.429   3.248   0.175
 6327TIP3   OH218937   3.386   1.763   0.001
 6327TIP3    H118938   3.383   1.856  -0.022
 6327TIP3    H218939   3.451   1.757   0.071
 6328TIP3   OH218940   2.752   4.767   3.857
 6328TIP3    H118941   2.699   4.688   3.865
 6328TIP3    H218942   2.699   4.826   3.803
 6329TIP3   OH218943   0.962   5.946   2.940
 6329TIP3    H118944   0.931   5.861   2.908
 6329TIP3    H218945   1.010   5.925   3.021
 6330TIP3   OH218946   7.688   4.680   6.799
 6330TIP3    H118947   7.768   4.636   6.830
 6330TIP3    H218948   7.660   4.627   6.724
 6331TIP3   OH218949   1.770   7.324   4.925
 6331TIP3    H118950   1.823   7.288   4.996
 6331TIP3    H218951   1.695   7.264   4.919
 6332TIP3   OH218952   6.426   5.561   0.030
 6332TIP3    H118953   6.399   5.645   0.069
 6332TIP3    H218954   6.497   5.531   0.087
 6333TIP3   OH218955   3.946   4.215   4.220
 6333TIP3    H118956   3.898   4.252   4.146
 6333TIP3    H218957   3.897   4.136   4.243
 6334TIP3   OH218958   6.234   4.367   6.320
 6334TIP3    H118959   6.205   4.288   6.275
 6334TIP3    H218960   6.153   4.410   6.348
 6335TIP3   OH218961   0.201   2.520   5.209
 6335TIP3    H118962   0.172   2.611   5.207
 6335TIP3    H218963   0.159   2.483   5.286
 6336TIP3   OH218964   6.978   1.112   1.403
 6336TIP3    H118965   7.036   1.189   1.399
 6336TIP3    H218966   7.009   1.063   1.480
 6337TIP3   OH218967   8.059   5.966   2.145
 6337TIP3    H118968   8.071   5.927   2.232
 6337TIP3    H218969   7.964   5.970   2.133
 6338TIP3   OH218970   2.916   2.408   5.137
 6338TIP3    H118971   2.845   2.389   5.076
 6338TIP3    H218972   2.952   2.322   5.159
 6339TIP3   OH218973   0.757   5.383   2.133
 6339TIP3    H118974   0.716   5.307   2.091
 6339TIP3    H218975   0.736   5.456   2.074
 6340TIP3   OH218976   6.885   6.450   2.163
 6340TIP3    H118977   6.867   6.541   2.187
 6340TIP3    H218978   6.929   6.413   2.239
 6341TIP3   OH218979   6.056   4.025   3.058
 6341TIP3    H118980   5.997   4.090   3.096
 6341TIP3    H218981   6.000   3.953   3.031
 6342TIP3   OH218982   5.856   2.598   4.914
 6342TIP3    H118983   5.939   2.553   4.894
 6342TIP3    H218984   5.880   2.690   4.919
 6343TIP3   OH218985   0.837   2.864   2.742
 6343TIP3    H118986   0.865   2.843   2.653
 6343TIP3    H218987   0.750   2.825   2.749
 6344TIP3   OH218988   4.515   7.042   1.821
 6344TIP3    H118989   4.503   7.107   1.752
 6344TIP3    H218990   4.528   7.093   1.901
 6345TIP3   OH218991   3.559   3.073   1.653
 6345TIP3    H118992   3.468   3.058   1.626
 6345TIP3    H218993   3.567   3.168   1.658
 6346TIP3   OH218994   2.661   3.939   5.543
 6346TIP3    H118995   2.622   3.916   5.627
 6346TIP3    H218996   2.666   3.855   5.496
 6347TIP3   OH218997   4.241   6.569   6.232
 6347TIP3    H118998   4.322   6.521   6.215
 6347TIP3    H218999   4.257   6.657   6.198
 6348TIP3   OH219000   6.310   2.432   4.480
 6348TIP3    H119001   6.253   2.402   4.550
 6348TIP3    H219002   6.347   2.515   4.512
 6349TIP3   OH219003   4.418   7.172   3.689
 6349TIP3    H119004   4.350   7.171   3.757
 6349TIP3    H219005   4.456   7.259   3.695
 6350TIP3   OH219006   0.174   6.946   2.724
 6350TIP3    H119007   0.087   6.982   2.707
 6350TIP3    H219008   0.167   6.854   2.698
 6351TIP3   OH219009   2.547   5.547   6.361
 6351TIP3    H119010   2.580   5.534   6.272
 6351TIP3    H219011   2.477   5.610   6.352
 6352TIP3   OH219012   4.308   5.618   0.219
 6352TIP3    H119013   4.344   5.569   0.293
 6352TIP3    H219014   4.371   5.689   0.205
 6353TIP3   OH219015   3.084   1.761   0.175
 6353TIP3    H119016   3.149   1.819   0.214
 6353TIP3    H219017   3.002   1.810   0.181
 6354TIP3   OH219018   7.744   6.210   6.214
 6354TIP3    H119019   7.753   6.303   6.237
 6354TIP3    H219020   7.698   6.210   6.130
 6355TIP3   OH219021   4.542   2.693   6.399
 6355TIP3    H119022   4.546   2.617   6.456
 6355TIP3    H219023   4.633   2.712   6.378
 6356TIP3   OH219024   0.973   2.294   2.658
 6356TIP3    H119025   1.005   2.347   2.584
 6356TIP3    H219026   1.014   2.332   2.735
 6357TIP3   OH219027   0.012   6.715   1.322
 6357TIP3    H119028   0.097   6.721   1.277
 6357TIP3    H219029  -0.036   6.648   1.274
 6358TIP3   OH219030   1.272   0.915   5.210
 6358TIP3    H119031   1.188   0.905   5.165
 6358TIP3    H219032   1.329   0.955   5.144
 6359TIP3   OH219033   2.366   6.406   1.456
 6359TIP3    H119034   2.295   6.435   1.513
 6359TIP3    H219035   2.343   6.316   1.434
 6360TIP3   OH219036   4.753   5.212   4.516
 6360TIP3    H119037   4.703   5.138   4.483
 6360TIP3    H219038   4.805   5.241   4.441
 6361TIP3   OH219039   3.287   7.567   0.638
 6361TIP3    H119040   3.242   7.562   0.553
 6361TIP3    H219041   3.240   7.505   0.694
 6362TIP3   OH219042   0.526   2.858   4.781
 6362TIP3    H119043   0.538   2.928   4.844
 6362TIP3    H219044   0.615   2.837   4.751
 6363TIP3   OH219045   2.898   6.304   4.759
 6363TIP3    H119046   2.827   6.255   4.800
 6363TIP3    H219047   2.973   6.246   4.762
 6364TIP3   OH219048   1.568   7.785   4.831
 6364TIP3    H119049   1.595   7.809   4.742
 6364TIP3    H219050   1.632   7.827   4.888
 6365TIP3   OH219051   2.229   6.660   5.435
 6365TIP3    H119052   2.305   6.628   5.482
 6365TIP3    H219053   2.260   6.671   5.345
 6366TIP3   OH219054   2.575   3.020   4.935
 6366TIP3    H119055   2.624   3.097   4.961
 6366TIP3    H219056   2.615   2.948   4.984
 6367TIP3   OH219057   4.383   1.054   5.572
 6367TIP3    H119058   4.381   1.130   5.630
 6367TIP3    H219059   4.460   1.068   5.517
 6368TIP3   OH219060   1.153   7.122   2.261
 6368TIP3    H119061   1.237   7.141   2.219
 6368TIP3    H219062   1.167   7.041   2.308
 6369TIP3   OH219063   1.754   5.409   5.746
 6369TIP3    H119064   1.752   5.414   5.842
 6369TIP3    H219065   1.663   5.423   5.720
 6370TIP3   OH219066   2.132   5.900   5.733
 6370TIP3    H119067   2.091   5.930   5.652
 6370TIP3    H219068   2.224   5.926   5.723
 6371TIP3   OH219069   0.459   2.521   6.251
 6371TIP3    H119070   0.455   2.596   6.192
 6371TIP3    H219071   0.398   2.458   6.213
 6372TIP3   OH219072   2.652   3.940   5.970
 6372TIP3    H119073   2.607   4.002   6.027
 6372TIP3    H219074   2.744   3.944   5.997
 6373TIP3   OH219075   1.651   0.557   2.929
 6373TIP3    H119076   1.660   0.579   3.021
 6373TIP3    H219077   1.557   0.566   2.912
 6374TIP3   OH219078   0.724   3.674   5.630
 6374TIP3    H119079   0.691   3.588   5.658
 6374TIP3    H219080   0.813   3.678   5.664
 6375TIP3   OH219081   7.122   0.736   0.142
 6375TIP3    H119082   7.062   0.692   0.202
 6375TIP3    H219083   7.162   0.666   0.092
 6376TIP3   OH219084   1.257   6.711   4.815
 6376TIP3    H119085   1.339   6.760   4.820
 6376TIP3    H219086   1.188   6.777   4.825
 6377TIP3   OH219087   0.886   4.854   1.408
 6377TIP3    H119088   0.863   4.800   1.483
 6377TIP3    H219089   0.980   4.870   1.418
 6378TIP3   OH219090   5.772   7.734   4.262
 6378TIP3    H119091   5.693   7.706   4.310
 6378TIP3    H219092   5.791   7.660   4.204
 6379TIP3   OH219093   3.129   4.764   6.275
 6379TIP3    H119094   3.173   4.849   6.270
 6379TIP3    H219095   3.065   4.767   6.204
 6380TIP3   OH219096   8.068   0.756   5.381
 6380TIP3    H119097   8.033   0.695   5.446
 6380TIP3    H219098   8.112   0.700   5.317
 6381TIP3   OH219099   4.887   5.719   1.514
 6381TIP3    H119100   4.837   5.724   1.595
 6381TIP3    H219101   4.864   5.635   1.476
 6382TIP3   OH219102   2.500   2.834   0.514
 6382TIP3    H119103   2.574   2.810   0.458
 6382TIP3    H219104   2.427   2.846   0.453
 6383TIP3   OH219105   0.424   5.455   4.775
 6383TIP3    H119106   0.365   5.379   4.778
 6383TIP3    H219107   0.370   5.525   4.738
 6384TIP3   OH219108   0.601   6.665   0.271
 6384TIP3    H119109   0.544   6.739   0.290
 6384TIP3    H219110   0.652   6.652   0.351
 6385TIP3   OH219111   3.749   6.318   5.015
 6385TIP3    H119112   3.661   6.329   5.051
 6385TIP3    H219113   3.745   6.237   4.965
 6386TIP3   OH219114   6.851   6.071   5.458
 6386TIP3    H119115   6.919   6.125   5.418
 6386TIP3    H219116   6.899   6.003   5.505
 6387TIP3   OH219117   5.101   0.056   0.613
 6387TIP3    H119118   5.033   0.027   0.553
 6387TIP3    H219119   5.064   0.134   0.656
 6388TIP3   OH219120   6.578   1.952   0.363
 6388TIP3    H119121   6.661   1.934   0.406
 6388TIP3    H219122   6.518   1.886   0.398
 6389TIP3   OH219123   8.166   2.853   2.314
 6389TIP3    H119124   8.122   2.931   2.280
 6389TIP3    H219125   8.163   2.790   2.242
 6390TIP3   OH219126   0.215   0.933   3.281
 6390TIP3    H119127   0.300   0.978   3.281
 6390TIP3    H219128   0.160   0.986   3.222
 6391TIP3   OH219129   1.778   0.050   4.178
 6391TIP3    H119130   1.834  -0.026   4.194
 6391TIP3    H219131   1.839   0.123   4.170
 6392TIP3   OH219132   3.868   1.497   2.186
 6392TIP3    H119133   3.876   1.591   2.167
 6392TIP3    H219134   3.949   1.459   2.153
 6393TIP3   OH219135   7.546   2.293   3.377
 6393TIP3    H119136   7.458   2.324   3.356
 6393TIP3    H219137   7.605   2.355   3.334
 6394TIP3   OH219138   2.160   5.899   0.214
 6394TIP3    H119139   2.165   5.915   0.308
 6394TIP3    H219140   2.212   5.819   0.201
 6395TIP3   OH219141   7.598   3.405   4.018
 6395TIP3    H119142   7.686   3.395   4.055
 6395TIP3    H219143   7.607   3.377   3.927
 6396TIP3   OH219144   3.079   4.084   2.921
 6396TIP3    H119145   3.126   4.046   2.995
 6396TIP3    H219146   3.123   4.167   2.905
 6397TIP3   OH219147   7.760   6.875   2.298
 6397TIP3    H119148   7.792   6.961   2.326
 6397TIP3    H219149   7.804   6.813   2.357
 6398TIP3   OH219150   7.402   2.261   6.708
 6398TIP3    H119151   7.420   2.195   6.640
 6398TIP3    H219152   7.481   2.261   6.762
 6399TIP3   OH219153   7.546   6.108   1.516
 6399TIP3    H119154   7.555   6.158   1.435
 6399TIP3    H219155   7.537   6.175   1.584
 6400TIP3   OH219156   3.324   6.354   0.224
 6400TIP3    H119157   3.324   6.362   0.129
 6400TIP3    H219158   3.384   6.281   0.242
 6401TIP3   OH219159   2.131   3.263   0.233
 6401TIP3    H119160   2.198   3.304   0.177
 6401TIP3    H219161   2.155   3.171   0.235
 6402TIP3   OH219162   5.804   4.482   2.715
 6402TIP3    H119163   5.710   4.466   2.719
 6402TIP3    H219164   5.821   4.502   2.622
 6403TIP3   OH219165   2.604   4.504   2.972
 6403TIP3    H119166   2.691   4.472   2.947
 6403TIP3    H219167   2.595   4.478   3.064
 6404TIP3   OH219168   4.364   3.843   1.092
 6404TIP3    H119169   4.424   3.836   1.165
 6404TIP3    H219170   4.368   3.936   1.067
 6405TIP3   OH219171   7.885   7.207   1.285
 6405TIP3    H119172   7.944   7.132   1.287
 6405TIP3    H219173   7.938   7.280   1.318
 6406TIP3   OH219174   3.158   2.132   2.897
 6406TIP3    H119175   3.169   2.215   2.944
 6406TIP3    H219176   3.231   2.078   2.927
 6407TIP3   OH219177   1.967   6.339   3.219
 6407TIP3    H119178   1.924   6.393   3.285
 6407TIP3    H219179   2.051   6.317   3.259
 6408TIP3   OH219180   5.837   0.758   3.617
 6408TIP3    H119181   5.862   0.815   3.545
 6408TIP3    H219182   5.750   0.787   3.642
 6409TIP3   OH219183   3.610   7.521   6.744
 6409TIP3    H119184   3.582   7.609   6.768
 6409TIP3    H219185   3.550   7.494   6.675
 6410TIP3   OH219186   0.041   0.717   2.228
 6410TIP3    H119187   0.082   0.786   2.280
 6410TIP3    H219188  -0.027   0.763   2.178
 6411TIP3   OH219189   0.378   3.983   0.540
 6411TIP3    H119190   0.432   4.061   0.536
 6411TIP3    H219191   0.381   3.956   0.631
 6412TIP3   OH219192   4.301   0.264   0.350
 6412TIP3    H119193   4.263   0.284   0.264
 6412TIP3    H219194   4.376   0.324   0.357
 6413TIP3   OH219195   6.770   3.941   1.256
 6413TIP3    H119196   6.698   3.884   1.230
 6413TIP3    H219197   6.771   3.937   1.351
 6414TIP3   OH219198   2.571   2.585   2.563
 6414TIP3    H119199   2.507   2.517   2.584
 6414TIP3    H219200   2.646   2.566   2.620
 6415TIP3   OH219201   5.139   7.131   2.679
 6415TIP3    H119202   5.108   7.044   2.653
 6415TIP3    H219203   5.226   7.139   2.639
 6416TIP3   OH219204   1.321   1.538   4.511
 6416TIP3    H119205   1.339   1.450   4.478
 6416TIP3    H219206   1.408   1.575   4.529
 6417TIP3   OH219207   4.428   4.423   1.403
 6417TIP3    H119208   4.474   4.468   1.332
 6417TIP3    H219209   4.430   4.330   1.378
 6418TIP3   OH219210   8.014   2.550   2.859
 6418TIP3    H119211   8.086   2.613   2.856
 6418TIP3    H219212   8.050   2.476   2.908
 6419TIP3   OH219213   6.768   6.146   3.880
 6419TIP3    H119214   6.749   6.052   3.882
 6419TIP3    H219215   6.707   6.181   3.814
 6420TIP3   OH219216   0.485   4.047   2.628
 6420TIP3    H119217   0.460   3.956   2.619
 6420TIP3    H219218   0.482   4.082   2.539
 6421TIP3   OH219219   0.067   1.772   0.716
 6421TIP3    H119220   0.134   1.706   0.732
 6421TIP3    H219221   0.025   1.786   0.801
 6422TIP3   OH219222   4.137   1.143   3.464
 6422TIP3    H119223   4.188   1.131   3.544
 6422TIP3    H219224   4.188   1.099   3.396
 6423TIP3   OH219225   4.224   7.327   6.698
 6423TIP3    H119226   4.215   7.238   6.665
 6423TIP3    H219227   4.246   7.316   6.791
 6424TIP3   OH219228   7.938   4.961   3.455
 6424TIP3    H119229   7.965   4.917   3.374
 6424TIP3    H219230   7.843   4.969   3.447
 6425TIP3   OH219231   2.665   2.379   4.320
 6425TIP3    H119232   2.640   2.471   4.325
 6425TIP3    H219233   2.625   2.339   4.397
 6426TIP3   OH219234   0.641   3.807   6.509
 6426TIP3    H119235   0.731   3.814   6.478
 6426TIP3    H219236   0.592   3.869   6.454
 6427TIP3   OH219237   7.493   4.615   2.238
 6427TIP3    H119238   7.458   4.526   2.231
 6427TIP3    H219239   7.557   4.609   2.310
 6428TIP3   OH219240   3.541   5.017   0.116
 6428TIP3    H119241   3.562   5.061   0.033
 6428TIP3    H219242   3.450   4.990   0.105
 6429TIP3   OH219243   6.586   7.618   1.315
 6429TIP3    H119244   6.588   7.569   1.233
 6429TIP3    H219245   6.501   7.662   1.314
 6430TIP3   OH219246   5.406   4.219   5.776
 6430TIP3    H119247   5.357   4.160   5.719
 6430TIP3    H219248   5.478   4.252   5.722
 6431TIP3   OH219249   4.547   0.127   1.160
 6431TIP3    H119250   4.592   0.200   1.119
 6431TIP3    H219251   4.515   0.075   1.087
 6432TIP3   OH219252   0.491   0.914   2.480
 6432TIP3    H119253   0.540   0.836   2.505
 6432TIP3    H219254   0.548   0.987   2.504
 6433TIP3   OH219255   0.336   5.629   6.590
 6433TIP3    H119256   0.372   5.676   6.665
 6433TIP3    H219257   0.369   5.678   6.514
 6434TIP3   OH219258   3.873   1.194   5.307
 6434TIP3    H119259   3.799   1.133   5.298
 6434TIP3    H219260   3.947   1.138   5.329
 6435TIP3   OH219261   3.857   7.606   0.754
 6435TIP3    H119262   3.774   7.578   0.792
 6435TIP3    H219263   3.908   7.638   0.828
 6436TIP3   OH219264   1.143   5.092   2.172
 6436TIP3    H119265   1.199   5.165   2.149
 6436TIP3    H219266   1.200   5.033   2.223
 6437TIP3   OH219267   1.274   5.748   3.279
 6437TIP3    H119268   1.258   5.668   3.229
 6437TIP3    H219269   1.361   5.735   3.318
 6438TIP3   OH219270   7.812   4.652   4.088
 6438TIP3    H119271   7.723   4.617   4.091
 6438TIP3    H219272   7.800   4.747   4.101
 6439TIP3   OH219273   6.943   7.744   1.171
 6439TIP3    H119274   6.873   7.798   1.207
 6439TIP3    H219275   6.961   7.782   1.085
 6440TIP3   OH219276   3.331   5.302   4.547
 6440TIP3    H119277   3.361   5.211   4.545
 6440TIP3    H219278   3.236   5.296   4.537
 6441TIP3   OH219279   6.329   2.329   4.975
 6441TIP3    H119280   6.320   2.273   5.052
 6441TIP3    H219281   6.365   2.271   4.908
 6442TIP3   OH219282   4.526   2.675   3.571
 6442TIP3    H119283   4.603   2.677   3.628
 6442TIP3    H219284   4.523   2.763   3.533
 6443TIP3   OH219285   5.441   6.341   5.181
 6443TIP3    H119286   5.359   6.303   5.214
 6443TIP3    H219287   5.508   6.310   5.242
 6444TIP3   OH219288   7.755   2.636   2.914
 6444TIP3    H119289   7.846   2.614   2.894
 6444TIP3    H219290   7.724   2.682   2.835
 6445TIP3   OH219291   1.691   0.273   3.805
 6445TIP3    H119292   1.628   0.237   3.868
 6445TIP3    H219293   1.664   0.236   3.721
 6446TIP3   OH219294   1.745   2.624   1.424
 6446TIP3    H119295   1.775   2.715   1.418
 6446TIP3    H219296   1.769   2.598   1.513
 6447TIP3   OH219297   7.869   0.454   3.839
 6447TIP3    H119298   7.824   0.392   3.782
 6447TIP3    H219299   7.959   0.456   3.806
 6448TIP3   OH219300   2.962   1.339   3.349
 6448TIP3    H119301   2.926   1.250   3.359
 6448TIP3    H219302   3.042   1.338   3.401
 6449TIP3   OH219303   1.624   2.439   5.282
 6449TIP3    H119304   1.606   2.494   5.205
 6449TIP3    H219305   1.719   2.446   5.294
 6450TIP3   OH219306   0.584   6.517   1.106
 6450TIP3    H119307   0.493   6.547   1.105
 6450TIP3    H219308   0.635   6.596   1.088
 6451TIP3   OH219309   4.091   6.178   2.510
 6451TIP3    H119310   4.155   6.239   2.474
 6451TIP3    H219311   4.117   6.166   2.601
 6452TIP3   OH219312   6.248   4.047   6.666
 6452TIP3    H119313   6.289   3.968   6.701
 6452TIP3    H219314   6.167   4.016   6.625
 6453TIP3   OH219315   2.246   1.265   5.560
 6453TIP3    H119316   2.204   1.189   5.521
 6453TIP3    H219317   2.338   1.257   5.533
 6454TIP3   OH219318   8.033   4.653   4.251
 6454TIP3    H119319   8.089   4.703   4.192
 6454TIP3    H219320   7.945   4.665   4.217
 6455TIP3   OH219321   5.035   5.443   5.327
 6455TIP3    H119322   5.118   5.432   5.280
 6455TIP3    H219323   4.970   5.400   5.272
 6456TIP3   OH219324   3.235   6.906   0.596
 6456TIP3    H119325   3.252   6.838   0.662
 6456TIP3    H219326   3.308   6.967   0.606
 6457TIP3   OH219327   7.446   1.734   0.347
 6457TIP3    H119328   7.425   1.821   0.314
 6457TIP3    H219329   7.516   1.703   0.290
 6458TIP3   OH219330   7.141   0.446   1.741
 6458TIP3    H119331   7.211   0.381   1.747
 6458TIP3    H219332   7.072   0.402   1.690
 6459TIP3   OH219333   5.039   3.374   0.503
 6459TIP3    H119334   5.094   3.349   0.578
 6459TIP3    H219335   5.025   3.292   0.455
 6460TIP3   OH219336   1.460   3.381   3.163
 6460TIP3    H119337   1.513   3.358   3.239
 6460TIP3    H219338   1.458   3.477   3.163
 6461TIP3   OH219339   4.339   6.140   4.036
 6461TIP3    H119340   4.296   6.153   3.951
 6461TIP3    H219341   4.347   6.228   4.073
 6462TIP3   OH219342   1.776   6.756   4.809
 6462TIP3    H119343   1.754   6.676   4.760
 6462TIP3    H219344   1.783   6.727   4.900
 6463TIP3   OH219345   4.761   2.627   5.239
 6463TIP3    H119346   4.857   2.629   5.233
 6463TIP3    H219347   4.737   2.717   5.259
 6464TIP3   OH219348   0.211   5.468   2.130
 6464TIP3    H119349   0.150   5.447   2.059
 6464TIP3    H219350   0.275   5.526   2.089
 6465TIP3   OH219351   4.779   4.007   0.817
 6465TIP3    H119352   4.706   4.051   0.772
 6465TIP3    H219353   4.848   4.073   0.819
 6466TIP3   OH219354   1.822   2.831   6.781
 6466TIP3    H119355   1.828   2.822   6.686
 6466TIP3    H219356   1.794   2.921   6.795
 6467TIP3   OH219357   4.297   5.562   2.009
 6467TIP3    H119358   4.322   5.595   2.095
 6467TIP3    H219359   4.234   5.492   2.029
 6468TIP3   OH219360   5.780   1.013   6.113
 6468TIP3    H119361   5.805   0.926   6.083
 6468TIP3    H219362   5.708   1.038   6.055
 6469TIP3   OH219363   1.348   5.734   4.025
 6469TIP3    H119364   1.374   5.755   4.114
 6469TIP3    H219365   1.336   5.639   4.025
 6470TIP3   OH219366   5.130   7.253   2.057
 6470TIP3    H119367   5.098   7.262   1.967
 6470TIP3    H219368   5.111   7.337   2.098
 6471TIP3   OH219369   2.322   0.120   6.371
 6471TIP3    H119370   2.277   0.037   6.384
 6471TIP3    H219371   2.372   0.107   6.290
 6472TIP3   OH219372   8.062   0.130   0.458
 6472TIP3    H119373   8.055   0.200   0.393
 6472TIP3    H219374   7.977   0.130   0.502
 6473TIP3   OH219375   1.272   2.357   0.388
 6473TIP3    H119376   1.239   2.406   0.463
 6473TIP3    H219377   1.250   2.266   0.407
 6474TIP3   OH219378   0.712   4.826   4.613
 6474TIP3    H119379   0.665   4.907   4.635
 6474TIP3    H219380   0.796   4.834   4.658
 6475TIP3   OH219381   7.204   4.367   3.574
 6475TIP3    H119382   7.169   4.418   3.647
 6475TIP3    H219383   7.128   4.325   3.535
 6476TIP3   OH219384   4.857   2.486   3.926
 6476TIP3    H119385   4.850   2.409   3.870
 6476TIP3    H219386   4.792   2.548   3.891
 6477TIP3   OH219387   0.231   3.746   5.085
 6477TIP3    H119388   0.282   3.817   5.047
 6477TIP3    H219389   0.295   3.692   5.130
 6478TIP3   OH219390   7.225   6.129   1.874
 6478TIP3    H119391   7.305   6.082   1.850
 6478TIP3    H219392   7.157   6.090   1.819
 6479TIP3   OH219393   6.930   4.058   0.194
 6479TIP3    H119394   6.911   4.104   0.276
 6479TIP3    H219395   7.008   4.006   0.214
 6480TIP3   OH219396   4.333   6.856   0.725
 6480TIP3    H119397   4.308   6.946   0.703
 6480TIP3    H219398   4.282   6.834   0.802
 6481TIP3   OH219399   4.719   7.023   5.029
 6481TIP3    H119400   4.718   6.939   4.983
 6481TIP3    H219401   4.700   7.002   5.120
 6482TIP3   OH219402   1.295   4.666   4.753
 6482TIP3    H119403   1.327   4.651   4.843
 6482TIP3    H219404   1.203   4.639   4.755
 6483TIP3   OH219405   4.093   5.323   5.469
 6483TIP3    H119406   4.107   5.230   5.481
 6483TIP3    H219407   4.131   5.343   5.384
 6484TIP3   OH219408   2.873   3.357   0.720
 6484TIP3    H119409   2.842   3.277   0.762
 6484TIP3    H219410   2.908   3.328   0.635
 6485TIP3   OH219411   0.380   5.281   3.259
 6485TIP3    H119412   0.392   5.360   3.205
 6485TIP3    H219413   0.303   5.301   3.313
 6486TIP3   OH219414   5.423   0.023   3.573
 6486TIP3    H119415   5.484  -0.049   3.554
 6486TIP3    H219416   5.413   0.068   3.490
 6487TIP3   OH219417   6.447   6.125   2.710
 6487TIP3    H119418   6.377   6.160   2.766
 6487TIP3    H219419   6.416   6.037   2.686
 6488TIP3   OH219420   1.463   5.547   0.773
 6488TIP3    H119421   1.462   5.455   0.799
 6488TIP3    H219422   1.556   5.570   0.774
 6489TIP3   OH219423   3.723   0.906   2.630
 6489TIP3    H119424   3.631   0.926   2.611
 6489TIP3    H219425   3.723   0.882   2.723
 6490TIP3   OH219426   7.432   6.772   3.318
 6490TIP3    H119427   7.471   6.782   3.231
 6490TIP3    H219428   7.456   6.684   3.346
 6491TIP3   OH219429   0.226   0.232   1.996
 6491TIP3    H119430   0.268   0.165   1.942
 6491TIP3    H219431   0.274   0.231   2.078
 6492TIP3   OH219432   6.544   1.062   5.842
 6492TIP3    H119433   6.616   1.090   5.786
 6492TIP3    H219434   6.508   0.985   5.800
 6493TIP3   OH219435   6.452   0.904   4.908
 6493TIP3    H119436   6.361   0.913   4.935
 6493TIP3    H219437   6.448   0.864   4.821
 6494TIP3   OH219438   2.291   5.025   5.055
 6494TIP3    H119439   2.334   5.108   5.076
 6494TIP3    H219440   2.286   5.025   4.959
 6495TIP3   OH219441   3.198   2.882   3.637
 6495TIP3    H119442   3.180   2.971   3.668
 6495TIP3    H219443   3.136   2.869   3.565
 6496TIP3   OH219444   2.658   4.180   5.410
 6496TIP3    H119445   2.730   4.145   5.358
 6496TIP3    H219446   2.614   4.102   5.446
 6497TIP3   OH219447   3.317   5.452   2.141
 6497TIP3    H119448   3.252   5.414   2.200
 6497TIP3    H219449   3.278   5.535   2.113
 6498TIP3   OH219450   7.235   5.092   1.025
 6498TIP3    H119451   7.185   5.086   1.106
 6498TIP3    H219452   7.295   5.018   1.028
 6499TIP3   OH219453   6.564   0.673   5.809
 6499TIP3    H119454   6.635   0.687   5.872
 6499TIP3    H219455   6.568   0.748   5.750
 6500TIP3   OH219456   7.511   3.888   4.125
 6500TIP3    H119457   7.542   3.807   4.084
 6500TIP3    H219458   7.485   3.861   4.213
 6501TIP3   OH219459   0.084   0.710   1.857
 6501TIP3    H119460   0.031   0.787   1.874
 6501TIP3    H219461   0.154   0.714   1.922
 6502TIP3   OH219462   1.557   1.940   4.302
 6502TIP3    H119463   1.489   2.007   4.302
 6502TIP3    H219464   1.579   1.929   4.210
 6503TIP3   OH219465   5.018   2.642   5.235
 6503TIP3    H119466   5.041   2.600   5.152
 6503TIP3    H219467   5.088   2.706   5.249
 6504TIP3   OH219468   2.237   0.372   5.043
 6504TIP3    H119469   2.295   0.299   5.025
 6504TIP3    H219470   2.295   0.446   5.062
 6505TIP3   OH219471   6.838   6.524   3.843
 6505TIP3    H119472   6.852   6.484   3.757
 6505TIP3    H219473   6.885   6.467   3.904
 6506TIP3   OH219474   0.740   4.449   5.506
 6506TIP3    H119475   0.714   4.400   5.427
 6506TIP3    H219476   0.659   4.456   5.557
 6507TIP3   OH219477   1.602   4.089   2.719
 6507TIP3    H119478   1.682   4.136   2.694
 6507TIP3    H219479   1.533   4.155   2.716
 6508TIP3   OH219480   6.889   5.482   2.659
 6508TIP3    H119481   6.873   5.538   2.735
 6508TIP3    H219482   6.813   5.423   2.657
 6509TIP3   OH219483   1.177   3.989   4.965
 6509TIP3    H119484   1.216   3.907   4.995
 6509TIP3    H219485   1.119   4.015   5.036
 6510TIP3   OH219486   8.215   4.589   0.829
 6510TIP3    H119487   8.285   4.550   0.777
 6510TIP3    H219488   8.253   4.669   0.865
 6511TIP3   OH219489   4.073   1.867   5.550
 6511TIP3    H119490   4.031   1.786   5.523
 6511TIP3    H219491   4.131   1.842   5.622
 6512TIP3   OH219492   5.465   6.225   3.485
 6512TIP3    H119493   5.401   6.288   3.452
 6512TIP3    H219494   5.498   6.264   3.566
 6513TIP3   OH219495   3.988   6.023   4.262
 6513TIP3    H119496   3.998   5.949   4.321
 6513TIP3    H219497   4.077   6.058   4.251
 6514TIP3   OH219498   1.713   2.206   4.350
 6514TIP3    H119499   1.782   2.139   4.356
 6514TIP3    H219500   1.633   2.160   4.377
 6515TIP3   OH219501   1.571   3.052   2.297
 6515TIP3    H119502   1.627   2.998   2.353
 6515TIP3    H219503   1.537   3.119   2.355
 6516TIP3   OH219504   5.371   1.320   4.171
 6516TIP3    H119505   5.287   1.304   4.214
 6516TIP3    H219506   5.400   1.404   4.206
 6517TIP3   OH219507   5.529   5.982   4.233
 6517TIP3    H119508   5.516   6.003   4.326
 6517TIP3    H219509   5.624   5.984   4.222
 6518TIP3   OH219510   5.825   5.990   5.088
 6518TIP3    H119511   5.798   5.930   5.158
 6518TIP3    H219512   5.887   6.049   5.131
 6519TIP3   OH219513   1.156   1.242   2.510
 6519TIP3    H119514   1.203   1.283   2.438
 6519TIP3    H219515   1.106   1.171   2.470
 6520TIP3   OH219516   1.897   1.073   4.970
 6520TIP3    H119517   1.842   1.013   5.021
 6520TIP3    H219518   1.984   1.035   4.974
 6521TIP3   OH219519   3.048   1.042   3.426
 6521TIP3    H119520   3.022   1.014   3.514
 6521TIP3    H219521   3.016   0.972   3.369
 6522TIP3   OH219522   1.820   1.222   1.673
 6522TIP3    H119523   1.790   1.134   1.693
 6522TIP3    H219524   1.889   1.240   1.738
 6523TIP3   OH219525   5.470   2.452   5.666
 6523TIP3    H119526   5.549   2.420   5.623
 6523TIP3    H219527   5.422   2.498   5.597
 6524TIP3   OH219528   6.561   3.890   2.611
 6524TIP3    H119529   6.648   3.894   2.650
 6524TIP3    H219530   6.574   3.843   2.528
 6525TIP3   OH219531   1.473   2.346   1.883
 6525TIP3    H119532   1.537   2.281   1.913
 6525TIP3    H219533   1.394   2.326   1.933
 6526TIP3   OH219534   3.339   7.209   1.356
 6526TIP3    H119535   3.324   7.279   1.419
 6526TIP3    H219536   3.434   7.209   1.341
 6527TIP3   OH219537   5.205   7.527   5.987
 6527TIP3    H119538   5.154   7.446   5.989
 6527TIP3    H219539   5.151   7.590   6.035
 6528TIP3   OH219540   1.769   4.487   0.510
 6528TIP3    H119541   1.736   4.413   0.561
 6528TIP3    H219542   1.830   4.448   0.448
 6529TIP3   OH219543   3.231   3.270   4.484
 6529TIP3    H119544   3.219   3.218   4.564
 6529TIP3    H219545   3.250   3.205   4.417
 6530TIP3   OH219546   6.954   6.706   5.912
 6530TIP3    H119547   6.890   6.651   5.869
 6530TIP3    H219548   7.032   6.651   5.921
 6531TIP3   OH219549   5.198   4.206   3.219
 6531TIP3    H119550   5.231   4.156   3.144
 6531TIP3    H219551   5.119   4.250   3.187
 6532TIP3   OH219552   2.517   4.453   2.243
 6532TIP3    H119553   2.490   4.544   2.251
 6532TIP3    H219554   2.512   4.434   2.149
 6533TIP3   OH219555   5.336   0.062   6.498
 6533TIP3    H119556   5.270   0.034   6.560
 6533TIP3    H219557   5.361   0.150   6.527
 6534TIP3   OH219558   0.389   6.472   0.616
 6534TIP3    H119559   0.334   6.546   0.641
 6534TIP3    H219560   0.405   6.426   0.698
 6535TIP3   OH219561   1.703   7.757   0.707
 6535TIP3    H119562   1.761   7.681   0.711
 6535TIP3    H219563   1.689   7.771   0.613
 6536TIP3   OH219564   1.178   2.205   4.416
 6536TIP3    H119565   1.104   2.174   4.364
 6536TIP3    H219566   1.138   2.239   4.496
 6537TIP3   OH219567   1.373   6.514   1.240
 6537TIP3    H119568   1.319   6.437   1.224
 6537TIP3    H219569   1.319   6.588   1.213
 6538TIP3   OH219570   7.593   4.059   4.393
 6538TIP3    H119571   7.516   4.113   4.412
 6538TIP3    H219572   7.651   4.073   4.468
 6539TIP3   OH219573   7.604   5.077   2.874
 6539TIP3    H119574   7.597   5.116   2.787
 6539TIP3    H219575   7.628   5.149   2.931
 6540TIP3   OH219576   6.678   4.963   0.453
 6540TIP3    H119577   6.737   4.974   0.379
 6540TIP3    H219578   6.701   4.877   0.490
 6541TIP3   OH219579   0.625   2.010   0.131
 6541TIP3    H119580   0.654   2.003   0.222
 6541TIP3    H219581   0.683   2.076   0.093
 6542TIP3   OH219582   5.572   5.742   0.401
 6542TIP3    H119583   5.557   5.836   0.407
 6542TIP3    H219584   5.494   5.702   0.439
 6543TIP3   OH219585   0.148   7.533   3.893
 6543TIP3    H119586   0.110   7.620   3.902
 6543TIP3    H219587   0.078   7.481   3.853
 6544TIP3   OH219588   2.703   7.493   1.353
 6544TIP3    H119589   2.770   7.446   1.402
 6544TIP3    H219590   2.742   7.579   1.335
 6545TIP3   OH219591   1.572   3.986   3.026
 6545TIP3    H119592   1.540   3.943   3.105
 6545TIP3    H219593   1.568   4.080   3.047
 6546TIP3   OH219594   1.172   7.201   4.127
 6546TIP3    H119595   1.215   7.117   4.145
 6546TIP3    H219596   1.092   7.177   4.081
 6547TIP3   OH219597   3.416   4.943   3.360
 6547TIP3    H119598   3.378   4.855   3.359
 6547TIP3    H219599   3.418   4.968   3.452
 6548TIP3   OH219600   3.151   0.647   1.961
 6548TIP3    H119601   3.070   0.636   2.011
 6548TIP3    H219602   3.177   0.738   1.978
 6549TIP3   OH219603   1.860   5.058   5.333
 6549TIP3    H119604   1.832   5.133   5.387
 6549TIP3    H219605   1.802   4.987   5.361
 6550TIP3   OH219606   5.784   5.033   4.223
 6550TIP3    H119607   5.757   4.962   4.281
 6550TIP3    H219608   5.865   5.066   4.261
 6551TIP3   OH219609   1.094   4.824  -0.005
 6551TIP3    H119610   1.167   4.876  -0.038
 6551TIP3    H219611   1.115   4.809   0.087
 6552TIP3   OH219612   0.777   4.374   2.542
 6552TIP3    H119613   0.751   4.459   2.577
 6552TIP3    H219614   0.694   4.328   2.526
 6553TIP3   OH219615   7.628   5.227   6.607
 6553TIP3    H119616   7.569   5.303   6.608
 6553TIP3    H219617   7.578   5.158   6.652
 6554TIP3   OH219618   0.549   4.449   3.217
 6554TIP3    H119619   0.538   4.380   3.152
 6554TIP3    H219620   0.637   4.435   3.252
 6555TIP3   OH219621   2.853   1.359   6.202
 6555TIP3    H119622   2.784   1.326   6.260
 6555TIP3    H219623   2.812   1.361   6.116
 6556TIP3   OH219624   2.305   7.509   3.873
 6556TIP3    H119625   2.345   7.422   3.870
 6556TIP3    H219626   2.339   7.553   3.795
 6557TIP3   OH219627   1.676   7.593   0.010
 6557TIP3    H119628   1.698   7.522   0.071
 6557TIP3    H219629   1.747   7.594  -0.053
 6558TIP3   OH219630   7.390   0.338   6.682
 6558TIP3    H119631   7.323   0.295   6.735
 6558TIP3    H219632   7.447   0.266   6.653
 6559TIP3   OH219633   2.737   0.426   4.945
 6559TIP3    H119634   2.826   0.390   4.948
 6559TIP3    H219635   2.727   0.471   5.029
 6560TIP3   OH219636   7.261   0.978   0.226
 6560TIP3    H119637   7.201   0.904   0.219
 6560TIP3    H219638   7.261   1.017   0.138
 6561TIP3   OH219639   6.684   5.114   4.898
 6561TIP3    H119640   6.744   5.142   4.967
 6561TIP3    H219641   6.622   5.056   4.942
 6562TIP3   OH219642   6.583   0.149   5.565
 6562TIP3    H119643   6.626   0.066   5.546
 6562TIP3    H219644   6.628   0.212   5.508
 6563TIP3   OH219645   0.944   3.058   4.746
 6563TIP3    H119646   0.902   3.030   4.664
 6563TIP3    H219647   0.992   2.981   4.775
 6564TIP3   OH219648   5.914   2.063   5.343
 6564TIP3    H119649   5.928   1.981   5.296
 6564TIP3    H219650   6.002   2.101   5.352
 6565TIP3   OH219651   0.655   4.159   1.558
 6565TIP3    H119652   0.567   4.131   1.531
 6565TIP3    H219653   0.714   4.096   1.516
 6566TIP3   OH219654   4.554   2.225   3.224
 6566TIP3    H119655   4.526   2.137   3.248
 6566TIP3    H219656   4.623   2.246   3.287
 6567TIP3   OH219657   4.661   5.298   0.081
 6567TIP3    H119658   4.744   5.256   0.104
 6567TIP3    H219659   4.641   5.354   0.156
 6568TIP3   OH219660   7.039   2.534   1.618
 6568TIP3    H119661   6.953   2.559   1.653
 6568TIP3    H219662   7.101   2.589   1.665
 6569TIP3   OH219663   4.993   5.482   1.650
 6569TIP3    H119664   5.016   5.439   1.733
 6569TIP3    H219665   4.908   5.522   1.666
 6570TIP3   OH219666   3.761   5.718   2.221
 6570TIP3    H119667   3.721   5.667   2.150
 6570TIP3    H219668   3.707   5.797   2.227
 6571TIP3   OH219669   1.626   5.043   4.267
 6571TIP3    H119670   1.655   4.952   4.255
 6571TIP3    H219671   1.559   5.055   4.200
 6572TIP3   OH219672   7.952   4.373   4.904
 6572TIP3    H119673   7.951   4.278   4.897
 6572TIP3    H219674   7.995   4.402   4.823
 6573TIP3   OH219675   2.902   7.358   2.181
 6573TIP3    H119676   2.985   7.401   2.162
 6573TIP3    H219677   2.853   7.363   2.099
 6574TIP3   OH219678   6.444   2.544   6.674
 6574TIP3    H119679   6.469   2.623   6.625
 6574TIP3    H219680   6.349   2.549   6.681
 6575TIP3   OH219681   8.233   1.184   4.161
 6575TIP3    H119682   8.227   1.118   4.091
 6575TIP3    H219683   8.324   1.212   4.160
 6576TIP3   OH219684   2.921   6.510   3.821
 6576TIP3    H119685   2.830   6.524   3.846
 6576TIP3    H219686   2.964   6.483   3.903
 6577TIP3   OH219687   1.813   6.167   5.477
 6577TIP3    H119688   1.827   6.259   5.497
 6577TIP3    H219689   1.887   6.144   5.421
 6578TIP3   OH219690   0.077   2.806   3.087
 6578TIP3    H119691   0.052   2.872   3.023
 6578TIP3    H219692   0.165   2.831   3.116
 6579TIP3   OH219693   5.653   0.222   0.618
 6579TIP3    H119694   5.579   0.178   0.575
 6579TIP3    H219695   5.659   0.307   0.575
 6580TIP3   OH219696   3.210   5.093   5.534
 6580TIP3    H119697   3.164   5.009   5.526
 6580TIP3    H219698   3.187   5.124   5.621
 6581TIP3   OH219699   4.424   4.974   5.349
 6581TIP3    H119700   4.461   4.887   5.353
 6581TIP3    H219701   4.483   5.028   5.401
 6582TIP3   OH219702   1.853   1.103   0.839
 6582TIP3    H119703   1.819   1.069   0.922
 6582TIP3    H219704   1.944   1.125   0.857
 6583TIP3   OH219705   4.594   5.161   1.369
 6583TIP3    H119706   4.673   5.176   1.420
 6583TIP3    H219707   4.585   5.066   1.365
 6584TIP3   OH219708   6.368   6.078   1.484
 6584TIP3    H119709   6.385   6.132   1.407
 6584TIP3    H219710   6.409   6.126   1.556
 6585TIP3   OH219711   4.345   7.539   6.355
 6585TIP3    H119712   4.260   7.571   6.386
 6585TIP3    H219713   4.360   7.586   6.274
 6586TIP3   OH219714   4.548   4.077   3.168
 6586TIP3    H119715   4.558   4.169   3.146
 6586TIP3    H219716   4.605   4.064   3.244
 6587TIP3   OH219717  -0.026   5.470   1.454
 6587TIP3    H119718   0.064   5.439   1.469
 6587TIP3    H219719  -0.015   5.549   1.401
 6588TIP3   OH219720   3.745   0.552   6.580
 6588TIP3    H119721   3.778   0.565   6.492
 6588TIP3    H219722   3.656   0.518   6.568
 6589TIP3   OH219723   8.263   1.831   0.967
 6589TIP3    H119724   8.272   1.805   1.059
 6589TIP3    H219725   8.173   1.863   0.960
 6590TIP3   OH219726   4.143   2.343   4.974
 6590TIP3    H119727   4.207   2.349   4.903
 6590TIP3    H219728   4.195   2.344   5.054
 6591TIP3   OH219729   0.959   2.392   5.581
 6591TIP3    H119730   0.983   2.428   5.666
 6591TIP3    H219731   0.868   2.363   5.593
 6592TIP3   OH219732   7.773   3.777   6.771
 6592TIP3    H119733   7.718   3.700   6.782
 6592TIP3    H219734   7.726   3.831   6.708
 6593TIP3   OH219735   2.556   3.444   0.451
 6593TIP3    H119736   2.469   3.453   0.414
 6593TIP3    H219737   2.546   3.464   0.544
 6594TIP3   OH219738   5.132   2.731   3.978
 6594TIP3    H119739   5.078   2.690   3.910
 6594TIP3    H219740   5.071   2.746   4.050
 6595TIP3   OH219741   3.557   7.731   0.091
 6595TIP3    H119742   3.629   7.769   0.141
 6595TIP3    H219743   3.598   7.663   0.037
 6596TIP3   OH219744   3.573   6.916   5.950
 6596TIP3    H119745   3.557   7.008   5.970
 6596TIP3    H219746   3.546   6.869   6.029
 6597TIP3   OH219747   6.734   0.428   3.872
 6597TIP3    H119748   6.826   0.448   3.854
 6597TIP3    H219749   6.687   0.468   3.799
 6598TIP3   OH219750   7.892   6.639   0.603
 6598TIP3    H119751   7.814   6.679   0.566
 6598TIP3    H219752   7.863   6.554   0.636
 6599TIP3   OH219753   4.529   5.183   2.277
 6599TIP3    H119754   4.575   5.187   2.192
 6599TIP3    H219755   4.522   5.274   2.305
 6600TIP3   OH219756   1.066   1.543   3.937
 6600TIP3    H119757   1.159   1.520   3.945
 6600TIP3    H219758   1.032   1.538   4.026
 6601TIP3   OH219759   5.633   0.918   3.220
 6601TIP3    H119760   5.688   0.932   3.143
 6601TIP3    H219761   5.611   1.006   3.251
 6602TIP3   OH219762   2.239   6.182   5.641
 6602TIP3    H119763   2.250   6.117   5.572
 6602TIP3    H219764   2.291   6.257   5.612
 6603TIP3   OH219765   6.466   3.638   1.242
 6603TIP3    H119766   6.432   3.551   1.221
 6603TIP3    H219767   6.491   3.675   1.157
 6604TIP3   OH219768   6.880   2.130   3.465
 6604TIP3    H119769   6.949   2.158   3.526
 6604TIP3    H219770   6.859   2.209   3.415
 6605TIP3   OH219771   5.502   5.879   2.973
 6605TIP3    H119772   5.464   5.793   2.992
 6605TIP3    H219773   5.537   5.909   3.057
 6606TIP3   OH219774   0.481   2.220   4.065
 6606TIP3    H119775   0.463   2.278   3.991
 6606TIP3    H219776   0.569   2.246   4.094
 6607TIP3   OH219777   3.854   1.813   1.441
 6607TIP3    H119778   3.782   1.875   1.434
 6607TIP3    H219779   3.903   1.841   1.518
 6608TIP3   OH219780   5.668   5.072   0.209
 6608TIP3    H119781   5.602   5.006   0.187
 6608TIP3    H219782   5.626   5.126   0.276
 6609TIP3   OH219783   8.075   4.077   4.370
 6609TIP3    H119784   8.138   4.142   4.403
 6609TIP3    H219785   8.081   4.085   4.275
 6610TIP3   OH219786   7.937   6.540   6.739
 6610TIP3    H119787   7.985   6.491   6.673
 6610TIP3    H219788   8.004   6.583   6.791
 6611TIP3   OH219789   2.775   7.168   6.198
 6611TIP3    H119790   2.805   7.253   6.167
 6611TIP3    H219791   2.750   7.120   6.119
 6612TIP3   OH219792   5.731   0.097   4.851
 6612TIP3    H119793   5.670   0.137   4.912
 6612TIP3    H219794   5.801   0.162   4.840
 6613TIP3   OH219795   6.137   6.466   0.045
 6613TIP3    H119796   6.069   6.419  -0.003
 6613TIP3    H219797   6.108   6.558   0.045
 6614TIP3   OH219798   3.332   1.256   0.889
 6614TIP3    H119799   3.264   1.298   0.940
 6614TIP3    H219800   3.354   1.177   0.938
 6615TIP3   OH219801   5.711   4.073   0.562
 6615TIP3    H119802   5.782   4.018   0.593
 6615TIP3    H219803   5.666   4.102   0.642
 6616TIP3   OH219804   3.142   0.334   1.036
 6616TIP3    H119805   3.126   0.405   1.098
 6616TIP3    H219806   3.231   0.350   1.004
 6617TIP3   OH219807   8.212   3.261   5.198
 6617TIP3    H119808   8.137   3.261   5.258
 6617TIP3    H219809   8.287   3.286   5.253
 6618TIP3   OH219810   0.818   4.199   3.656
 6618TIP3    H119811   0.786   4.282   3.690
 6618TIP3    H219812   0.909   4.195   3.686
 6619TIP3   OH219813   5.444   2.991   5.895
 6619TIP3    H119814   5.396   3.043   5.830
 6619TIP3    H219815   5.421   2.900   5.874
 6620TIP3   OH219816   6.414   6.757   1.443
 6620TIP3    H119817   6.402   6.670   1.481
 6620TIP3    H219818   6.327   6.782   1.411
 6621TIP3   OH219819   0.288   6.453   5.705
 6621TIP3    H119820   0.287   6.537   5.750
 6621TIP3    H219821   0.378   6.444   5.674
 6622TIP3   OH219822   7.408   4.398   3.101
 6622TIP3    H119823   7.366   4.482   3.078
 6622TIP3    H219824   7.422   4.404   3.195
 6623TIP3   OH219825   4.226   3.082   5.363
 6623TIP3    H119826   4.148   3.040   5.325
 6623TIP3    H219827   4.225   3.057   5.455
 6624TIP3   OH219828   5.930   1.689   0.080
 6624TIP3    H119829   6.002   1.718   0.025
 6624TIP3    H219830   5.953   1.719   0.168
 6625TIP3   OH219831   6.675   5.656   1.669
 6625TIP3    H119832   6.616   5.684   1.599
 6625TIP3    H219833   6.675   5.729   1.731
 6626TIP3   OH219834   2.086   6.850   5.739
 6626TIP3    H119835   2.078   6.931   5.688
 6626TIP3    H219836   2.094   6.879   5.830
 6627TIP3   OH219837   0.040   5.175   6.709
 6627TIP3    H119838   0.084   5.238   6.767
 6627TIP3    H219839  -0.038   5.148   6.758
 6628TIP3   OH219840   2.256   2.662   4.325
 6628TIP3    H119841   2.255   2.701   4.412
 6628TIP3    H219842   2.346   2.672   4.296
 6629TIP3   OH219843   0.254   5.152   0.899
 6629TIP3    H119844   0.318   5.096   0.855
 6629TIP3    H219845   0.208   5.093   0.959
 6630TIP3   OH219846   6.597   3.493   5.781
 6630TIP3    H119847   6.673   3.549   5.767
 6630TIP3    H219848   6.524   3.554   5.790
 6631TIP3   OH219849   1.412   7.631   2.072
 6631TIP3    H119850   1.343   7.615   2.135
 6631TIP3    H219851   1.493   7.614   2.120
 6632TIP3   OH219852   1.954   0.551   3.531
 6632TIP3    H119853   1.928   0.630   3.483
 6632TIP3    H219854   1.892   0.547   3.604
 6633TIP3   OH219855   4.419   3.133   1.194
 6633TIP3    H119856   4.511   3.157   1.203
 6633TIP3    H219857   4.421   3.040   1.170
 6634TIP3   OH219858   7.915   0.186   2.284
 6634TIP3    H119859   7.956   0.111   2.242
 6634TIP3    H219860   7.829   0.155   2.312
 6635TIP3   OH219861   8.070   2.919   4.591
 6635TIP3    H119862   7.997   2.868   4.625
 6635TIP3    H219863   8.037   2.959   4.511
 6636TIP3   OH219864   3.744   6.790   5.476
 6636TIP3    H119865   3.652   6.807   5.455
 6636TIP3    H219866   3.755   6.826   5.564
 6637TIP3   OH219867   7.549   2.427   5.421
 6637TIP3    H119868   7.543   2.500   5.483
 6637TIP3    H219869   7.500   2.456   5.345
 6638TIP3   OH219870   1.695   6.612   6.575
 6638TIP3    H119871   1.684   6.537   6.518
 6638TIP3    H219872   1.774   6.656   6.542
 6639TIP3   OH219873   7.254   3.861   5.472
 6639TIP3    H119874   7.253   3.942   5.523
 6639TIP3    H219875   7.336   3.818   5.497
 6640TIP3   OH219876   4.633   3.263   4.047
 6640TIP3    H119877   4.577   3.288   4.121
 6640TIP3    H219878   4.642   3.168   4.056
 6641TIP3   OH219879   4.037   5.981   5.116
 6641TIP3    H119880   4.080   5.991   5.031
 6641TIP3    H219881   3.994   6.065   5.131
 6642TIP3   OH219882   4.162   2.851   3.772
 6642TIP3    H119883   4.072   2.819   3.769
 6642TIP3    H219884   4.171   2.902   3.691
 6643TIP3   OH219885   4.060   5.178   2.424
 6643TIP3    H119886   4.112   5.257   2.418
 6643TIP3    H219887   3.976   5.201   2.384
 6644TIP3   OH219888   0.386   4.467   3.452
 6644TIP3    H119889   0.446   4.452   3.379
 6644TIP3    H219890   0.343   4.383   3.464
 6645TIP3   OH219891   7.630   5.695   0.709
 6645TIP3    H119892   7.627   5.659   0.798
 6645TIP3    H219893   7.547   5.667   0.669
 6646TIP3   OH219894   5.138   1.005   5.565
 6646TIP3    H119895   5.165   0.960   5.484
 6646TIP3    H219896   5.139   0.937   5.632
 6647TIP3   OH219897   4.679   5.028   5.717
 6647TIP3    H119898   4.673   4.971   5.793
 6647TIP3    H219899   4.611   5.094   5.730
 6648TIP3   OH219900   6.109   0.724   2.239
 6648TIP3    H119901   6.043   0.664   2.274
 6648TIP3    H219902   6.189   0.671   2.234
 6649TIP3   OH219903   1.240   2.904   4.430
 6649TIP3    H119904   1.271   2.983   4.475
 6649TIP3    H219905   1.289   2.832   4.471
 6650TIP3   OH219906   6.696   0.319   1.435
 6650TIP3    H119907   6.701   0.415   1.444
 6650TIP3    H219908   6.782   0.294   1.401
 6651TIP3   OH219909   0.909   3.981   2.068
 6651TIP3    H119910   0.911   3.893   2.030
 6651TIP3    H219911   0.974   4.031   2.018
 6652TIP3   OH219912   1.149   0.023   5.156
 6652TIP3    H119913   1.239   0.031   5.186
 6652TIP3    H219914   1.097   0.063   5.227
 6653TIP3   OH219915   1.441   1.652   1.265
 6653TIP3    H119916   1.517   1.594   1.265
 6653TIP3    H219917   1.477   1.740   1.272
 6654TIP3   OH219918   8.245   6.340   4.586
 6654TIP3    H119919   8.287   6.255   4.592
 6654TIP3    H219920   8.176   6.328   4.520
 6655TIP3   OH219921   1.317   2.101   6.269
 6655TIP3    H119922   1.371   2.024   6.251
 6655TIP3    H219923   1.286   2.089   6.358
 6656TIP3   OH219924   3.105   0.726   0.212
 6656TIP3    H119925   3.036   0.762   0.268
 6656TIP3    H219926   3.093   0.771   0.128
 6657TIP3   OH219927   5.103   4.267   6.327
 6657TIP3    H119928   5.137   4.343   6.374
 6657TIP3    H219929   5.105   4.196   6.392
 6658TIP3   OH219930   6.941   2.400   3.371
 6658TIP3    H119931   7.015   2.453   3.340
 6658TIP3    H219932   6.914   2.442   3.453
 6659TIP3   OH219933   3.753   7.012   4.733
 6659TIP3    H119934   3.832   7.062   4.715
 6659TIP3    H219935   3.784   6.928   4.764
 6660TIP3   OH219936   5.174   5.734   3.281
 6660TIP3    H119937   5.228   5.801   3.323
 6660TIP3    H219938   5.184   5.657   3.338
 6661TIP3   OH219939   1.654   0.604   0.158
 6661TIP3    H119940   1.613   0.531   0.203
 6661TIP3    H219941   1.715   0.562   0.096
 6662TIP3   OH219942   2.406   0.835   6.490
 6662TIP3    H119943   2.318   0.862   6.463
 6662TIP3    H219944   2.421   0.752   6.445
 6663TIP3   OH219945   3.633   3.834   1.940
 6663TIP3    H119946   3.678   3.768   1.886
 6663TIP3    H219947   3.696   3.855   2.008
 6664TIP3   OH219948   5.502   3.792   3.581
 6664TIP3    H119949   5.456   3.809   3.663
 6664TIP3    H219950   5.436   3.751   3.525
 6665TIP3   OH219951   1.975   5.526   3.703
 6665TIP3    H119952   1.885   5.553   3.686
 6665TIP3    H219953   2.018   5.528   3.618
 6666TIP3   OH219954   4.367   6.514   0.854
 6666TIP3    H119955   4.335   6.503   0.943
 6666TIP3    H219956   4.298   6.563   0.809
 6667TIP3   OH219957   4.927   4.633   1.752
 6667TIP3    H119958   4.908   4.559   1.811
 6667TIP3    H219959   4.852   4.636   1.693
 6668TIP3   OH219960   7.181   6.338   3.307
 6668TIP3    H119961   7.179   6.335   3.212
 6668TIP3    H219962   7.240   6.266   3.332
 6669TIP3   OH219963   6.794   5.880   3.200
 6669TIP3    H119964   6.862   5.821   3.166
 6669TIP3    H219965   6.817   5.966   3.166
 6670TIP3   OH219966   6.911   2.184   1.257
 6670TIP3    H119967   6.896   2.278   1.243
 6670TIP3    H219968   6.828   2.151   1.291
 6671TIP3   OH219969   7.136   7.734   6.460
 6671TIP3    H119970   7.074   7.776   6.520
 6671TIP3    H219971   7.115   7.770   6.374
 6672TIP3   OH219972   1.825   0.117   5.773
 6672TIP3    H119973   1.883   0.174   5.822
 6672TIP3    H219974   1.883   0.067   5.715
 6673TIP3   OH219975   6.665   2.011   4.790
 6673TIP3    H119976   6.597   2.053   4.843
 6673TIP3    H219977   6.740   2.070   4.795
 6674TIP3   OH219978   3.671   3.252   5.489
 6674TIP3    H119979   3.592   3.258   5.435
 6674TIP3    H219980   3.640   3.272   5.577
 6675TIP3   OH219981   5.999   5.330   0.153
 6675TIP3    H119982   5.944   5.310   0.077
 6675TIP3    H219983   5.938   5.337   0.226
 6676TIP3   OH219984   0.183   7.148   3.503
 6676TIP3    H119985   0.272   7.168   3.532
 6676TIP3    H219986   0.196   7.086   3.430
 6677TIP3   OH219987   7.288   2.646   5.711
 6677TIP3    H119988   7.210   2.594   5.728
 6677TIP3    H219989   7.260   2.736   5.727
 6678TIP3   OH219990   3.599   0.915   4.586
 6678TIP3    H119991   3.656   0.895   4.512
 6678TIP3    H219992   3.617   1.007   4.606
 6679TIP3   OH219993   0.699   2.392   1.246
 6679TIP3    H119994   0.638   2.461   1.272
 6679TIP3    H219995   0.654   2.310   1.268
 6680TIP3   OH219996   8.282   4.834   1.905
 6680TIP3    H119997   8.339   4.837   1.982
 6680TIP3    H219998   8.252   4.744   1.901
 6681TIP3   OH219999   7.419   0.973   2.418
 6681TIP3    H120000   7.439   0.884   2.389
 6681TIP3    H220001   7.498   1.001   2.464
 6682TIP3   OH220002   3.770   3.869   2.185
 6682TIP3    H120003   3.830   3.943   2.198
 6682TIP3    H220004   3.772   3.822   2.268
 6683TIP3   OH220005   3.868   6.115   0.511
 6683TIP3    H120006   3.798   6.051   0.496
 6683TIP3    H220007   3.902   6.094   0.598
 6684TIP3   OH220008   1.817   1.441   0.070
 6684TIP3    H120009   1.896   1.482   0.033
 6684TIP3    H220010   1.821   1.350   0.040
 6685TIP3   OH220011   3.114   1.546   0.328
 6685TIP3    H120012   3.182   1.585   0.382
 6685TIP3    H220013   3.088   1.615   0.267
 6686TIP3   OH220014   1.577   7.084   6.683
 6686TIP3    H120015   1.639   7.127   6.625
 6686TIP3    H220016   1.579   6.992   6.657
 6687TIP3   OH220017   7.614   4.416   1.314
 6687TIP3    H120018   7.652   4.342   1.268
 6687TIP3    H220019   7.529   4.385   1.345
 6688TIP3   OH220020   3.978   3.726   0.874
 6688TIP3    H120021   3.957   3.791   0.941
 6688TIP3    H220022   4.038   3.666   0.917
 6689TIP3   OH220023   0.879   3.396   4.672
 6689TIP3    H120024   0.822   3.441   4.734
 6689TIP3    H220025   0.959   3.449   4.670
 6690TIP3   OH220026   7.059   3.991   6.286
 6690TIP3    H120027   7.044   3.896   6.286
 6690TIP3    H220028   7.004   4.024   6.216
 6691TIP3   OH220029   3.430   0.192   4.147
 6691TIP3    H120030   3.448   0.229   4.233
 6691TIP3    H220031   3.406   0.101   4.165
 6692TIP3   OH220032   5.391   0.904   4.490
 6692TIP3    H120033   5.351   0.925   4.406
 6692TIP3    H220034   5.319   0.906   4.553
 6693TIP3   OH220035   1.634   1.889   4.053
 6693TIP3    H120036   1.686   1.819   4.013
 6693TIP3    H220037   1.666   1.969   4.012
 6694TIP3   OH220038   4.632   5.814   1.314
 6694TIP3    H120039   4.718   5.833   1.350
 6694TIP3    H220040   4.649   5.763   1.234
 6695TIP3   OH220041   3.774   1.030   1.065
 6695TIP3    H120042   3.827   0.951   1.071
 6695TIP3    H220043   3.754   1.038   0.972
 6696TIP3   OH220044   5.602   3.728   4.251
 6696TIP3    H120045   5.535   3.745   4.185
 6696TIP3    H220046   5.684   3.722   4.201
 6697TIP3   OH220047   2.082   3.214   5.855
 6697TIP3    H120048   2.108   3.294   5.809
 6697TIP3    H220049   2.164   3.171   5.877
 6698TIP3   OH220050   6.436   2.999   1.593
 6698TIP3    H120051   6.441   2.942   1.516
 6698TIP3    H220052   6.512   3.056   1.586
 6699TIP3   OH220053   7.754   1.994   1.571
 6699TIP3    H120054   7.696   2.051   1.622
 6699TIP3    H220055   7.789   1.933   1.636
 6700TIP3   OH220056   4.120   4.333   1.906
 6700TIP3    H120057   4.107   4.256   1.963
 6700TIP3    H220058   4.142   4.403   1.967
 6701TIP3   OH220059   0.009   4.346   3.598
 6701TIP3    H120060  -0.049   4.358   3.674
 6701TIP3    H220061   0.095   4.327   3.636
 6702TIP3   OH220062   7.115   4.667   2.074
 6702TIP3    H120063   7.208   4.648   2.074
 6702TIP3    H220064   7.098   4.705   1.987
 6703TIP3   OH220065   3.598   4.350   1.859
 6703TIP3    H120066   3.607   4.256   1.842
 6703TIP3    H220067   3.513   4.359   1.901
 6704TIP3   OH220068   0.112   6.831   3.192
 6704TIP3    H120069   0.178   6.835   3.261
 6704TIP3    H220070   0.052   6.761   3.220
 6705TIP3   OH220071   5.807   1.672   3.421
 6705TIP3    H120072   5.897   1.675   3.453
 6705TIP3    H220073   5.792   1.580   3.398
 6706TIP3   OH220074   5.408   4.907   0.711
 6706TIP3    H120075   5.379   4.905   0.802
 6706TIP3    H220076   5.449   4.992   0.700
 6707TIP3   OH220077   7.529   4.154   6.418
 6707TIP3    H120078   7.477   4.233   6.400
 6707TIP3    H220079   7.485   4.085   6.369
 6708TIP3   OH220080   7.616   4.912   4.968
 6708TIP3    H120081   7.687   4.880   4.911
 6708TIP3    H220082   7.587   4.993   4.927
 6709TIP3   OH220083   1.955   6.557   1.523
 6709TIP3    H120084   2.014   6.525   1.455
 6709TIP3    H220085   2.008   6.618   1.574
 6710TIP3   OH220086   7.072   5.712   0.329
 6710TIP3    H120087   7.025   5.770   0.269
 6710TIP3    H220088   7.022   5.630   0.328
 6711TIP3   OH220089   1.267   7.764   0.904
 6711TIP3    H120090   1.172   7.770   0.915
 6711TIP3    H220091   1.297   7.713   0.979
 6712TIP3   OH220092   1.083   5.954   1.773
 6712TIP3    H120093   1.085   5.887   1.704
 6712TIP3    H220094   0.997   5.945   1.812
 6713TIP3   OH220095   2.281   7.750   3.008
 6713TIP3    H120096   2.241   7.781   3.089
 6713TIP3    H220097   2.215   7.693   2.968
 6714TIP3   OH220098   7.336   2.778   0.983
 6714TIP3    H120099   7.344   2.743   1.072
 6714TIP3    H220100   7.386   2.860   0.985
 6715TIP3   OH220101   1.263   0.473   2.417
 6715TIP3    H120102   1.233   0.403   2.476
 6715TIP3    H220103   1.184   0.499   2.369
 6716TIP3   OH220104   4.934   3.450   3.206
 6716TIP3    H120105   4.931   3.506   3.128
 6716TIP3    H220106   4.846   3.458   3.244
 6717TIP3   OH220107   7.304   2.694   0.713
 6717TIP3    H120108   7.320   2.719   0.804
 6717TIP3    H220109   7.209   2.683   0.707
 6718TIP3   OH220110   6.724   5.400   6.308
 6718TIP3    H120111   6.652   5.461   6.321
 6718TIP3    H220112   6.753   5.378   6.396
 6719TIP3   OH220113   4.486   0.070   5.342
 6719TIP3    H120114   4.461  -0.018   5.313
 6719TIP3    H220115   4.454   0.127   5.273
 6720TIP3   OH220116   6.063   6.016   4.056
 6720TIP3    H120117   6.107   6.095   4.087
 6720TIP3    H220118   6.021   5.980   4.134
 6721TIP3   OH220119   0.041   2.226   1.908
 6721TIP3    H120120   0.059   2.320   1.911
 6721TIP3    H220121   0.051   2.203   1.816
 6722TIP3   OH220122   5.974   3.334   6.619
 6722TIP3    H120123   5.954   3.280   6.695
 6722TIP3    H220124   6.037   3.282   6.568
 6723TIP3   OH220125   4.761   6.899   5.304
 6723TIP3    H120126   4.827   6.939   5.361
 6723TIP3    H220127   4.701   6.854   5.364
 6724TIP3   OH220128   2.439   6.343   1.921
 6724TIP3    H120129   2.487   6.315   2.000
 6724TIP3    H220130   2.390   6.265   1.895
 6725TIP3   OH220131   3.448   5.549   1.371
 6725TIP3    H120132   3.428   5.637   1.340
 6725TIP3    H220133   3.486   5.505   1.294
 6726TIP3   OH220134   5.042   4.596   1.130
 6726TIP3    H120135   5.021   4.543   1.053
 6726TIP3    H220136   5.049   4.685   1.096
 6727TIP3   OH220137   0.446   5.639   2.039
 6727TIP3    H120138   0.483   5.591   1.965
 6727TIP3    H220139   0.424   5.725   2.004
 6728TIP3   OH220140   5.777   1.930   6.025
 6728TIP3    H120141   5.865   1.903   6.003
 6728TIP3    H220142   5.739   1.855   6.071
 6729TIP3   OH220143   1.634   6.876   2.161
 6729TIP3    H120144   1.550   6.921   2.171
 6729TIP3    H220145   1.620   6.790   2.200
 6730TIP3   OH220146   6.713   6.534   5.883
 6730TIP3    H120147   6.640   6.577   5.838
 6730TIP3    H220148   6.675   6.455   5.920
 6731TIP3   OH220149   2.503   5.407   4.301
 6731TIP3    H120150   2.490   5.351   4.225
 6731TIP3    H220151   2.539   5.349   4.368
 6732TIP3   OH220152   7.014   3.401   1.778
 6732TIP3    H120153   7.052   3.322   1.740
 6732TIP3    H220154   6.933   3.371   1.820
 6733TIP3   OH220155   0.513   1.326   4.491
 6733TIP3    H120156   0.446   1.322   4.558
 6733TIP3    H220157   0.538   1.235   4.476
 6734TIP3   OH220158   6.452   5.074   6.803
 6734TIP3    H120159   6.444   5.129   6.726
 6734TIP3    H220160   6.542   5.040   6.799
 6735TIP3   OH220161   3.120   1.493   4.782
 6735TIP3    H120162   3.112   1.399   4.796
 6735TIP3    H220163   3.148   1.502   4.691
 6736TIP3   OH220164   6.448   5.829   5.107
 6736TIP3    H120165   6.478   5.738   5.110
 6736TIP3    H220166   6.526   5.878   5.080
 6737TIP3   OH220167   2.348   6.796   0.339
 6737TIP3    H120168   2.408   6.737   0.384
 6737TIP3    H220169   2.326   6.862   0.404
 6738TIP3   OH220170   7.781   4.762   4.770
 6738TIP3    H120171   7.783   4.785   4.677
 6738TIP3    H220172   7.871   4.737   4.791
 6739TIP3   OH220173   3.743   7.150   4.183
 6739TIP3    H120174   3.821   7.182   4.137
 6739TIP3    H220175   3.682   7.223   4.179
 6740TIP3   OH220176   4.601   2.061   2.958
 6740TIP3    H120177   4.652   2.128   2.913
 6740TIP3    H220178   4.621   2.073   3.051
 6741TIP3   OH220179   1.228   1.510   1.701
 6741TIP3    H120180   1.271   1.444   1.755
 6741TIP3    H220181   1.255   1.594   1.739
 6742TIP3   OH220182   0.328   4.575   2.997
 6742TIP3    H120183   0.244   4.580   3.043
 6742TIP3    H220184   0.350   4.666   2.977
 6743TIP3   OH220185   0.463   1.677   5.905
 6743TIP3    H120186   0.521   1.738   5.951
 6743TIP3    H220187   0.458   1.601   5.963
 6744TIP3   OH220188   4.611   0.831   3.288
 6744TIP3    H120189   4.615   0.887   3.210
 6744TIP3    H220190   4.589   0.892   3.359
 6745TIP3   OH220191   0.768   0.949   5.773
 6745TIP3    H120192   0.841   0.908   5.727
 6745TIP3    H220193   0.735   0.880   5.831
 6746TIP3   OH220194   0.747   2.305   2.805
 6746TIP3    H120195   0.821   2.296   2.745
 6746TIP3    H220196   0.684   2.360   2.758
 6747TIP3   OH220197   3.444   2.017   1.470
 6747TIP3    H120198   3.452   1.922   1.477
 6747TIP3    H220199   3.529   2.046   1.436
 6748TIP3   OH220200   3.382   7.493   2.626
 6748TIP3    H120201   3.301   7.489   2.677
 6748TIP3    H220202   3.391   7.585   2.602
 6749TIP3   OH220203   2.443   4.833   1.148
 6749TIP3    H120204   2.367   4.798   1.101
 6749TIP3    H220205   2.443   4.786   1.232
 6750TIP3   OH220206   1.184   6.091   5.944
 6750TIP3    H120207   1.166   6.092   6.038
 6750TIP3    H220208   1.214   6.002   5.926
 6751TIP3   OH220209   3.951   3.632   3.326
 6751TIP3    H120210   4.044   3.635   3.347
 6751TIP3    H220211   3.907   3.625   3.412
 6752TIP3   OH220212   1.554   1.072   4.111
 6752TIP3    H120213   1.638   1.113   4.089
 6752TIP3    H220214   1.577   0.982   4.133
 6753TIP3   OH220215   3.792   2.619   3.487
 6753TIP3    H120216   3.737   2.697   3.493
 6753TIP3    H220217   3.881   2.653   3.474
 6754TIP3   OH220218   5.832   5.887   6.132
 6754TIP3    H120219   5.767   5.911   6.198
 6754TIP3    H220220   5.832   5.960   6.070
 6755TIP3   OH220221   0.174   1.157   5.823
 6755TIP3    H120222   0.118   1.119   5.890
 6755TIP3    H220223   0.263   1.138   5.853
 6756TIP3   OH220224   3.781   5.687   5.913
 6756TIP3    H120225   3.811   5.727   5.832
 6756TIP3    H220226   3.686   5.698   5.913
 6757TIP3   OH220227   4.869   6.688   2.787
 6757TIP3    H120228   4.850   6.781   2.788
 6757TIP3    H220229   4.803   6.649   2.844
 6758TIP3   OH220230   8.173   6.971   2.759
 6758TIP3    H120231   8.207   6.964   2.849
 6758TIP3    H220232   8.097   7.029   2.768
 6759TIP3   OH220233   4.567   7.810   0.208
 6759TIP3    H120234   4.475   7.810   0.235
 6759TIP3    H220235   4.608   7.744   0.263
 6760TIP3   OH220236   1.614   7.139   1.480
 6760TIP3    H120237   1.658   7.081   1.542
 6760TIP3    H220238   1.552   7.083   1.434
 6761TIP3   OH220239   8.170   7.847   4.810
 6761TIP3    H120240   8.172   7.827   4.716
 6761TIP3    H220241   8.193   7.765   4.853
 6762TIP3   OH220242   3.185   5.000   3.196
 6762TIP3    H120243   3.213   4.951   3.118
 6762TIP3    H220244   3.261   5.000   3.253
 6763TIP3   OH220245   3.794   5.933   1.672
 6763TIP3    H120246   3.799   6.028   1.670
 6763TIP3    H220247   3.740   5.914   1.749
 6764TIP3   OH220248   7.438   5.604   5.039
 6764TIP3    H120249   7.481   5.686   5.016
 6764TIP3    H220250   7.447   5.598   5.134
 6765TIP3   OH220251   6.865   4.991   2.728
 6765TIP3    H120252   6.916   5.000   2.809
 6765TIP3    H220253   6.823   4.905   2.736
 6766TIP3   OH220254   0.275   3.569   0.223
 6766TIP3    H120255   0.260   3.475   0.227
 6766TIP3    H220256   0.196   3.608   0.262
 6767TIP3   OH220257   2.798   4.826   2.067
 6767TIP3    H120258   2.860   4.797   2.133
 6767TIP3    H220259   2.787   4.920   2.083
 6768TIP3   OH220260   2.340   1.464   3.249
 6768TIP3    H120261   2.316   1.550   3.283
 6768TIP3    H220262   2.274   1.405   3.286
 6769TIP3   OH220263   0.055   3.390   5.795
 6769TIP3    H120264   0.029   3.459   5.856
 6769TIP3    H220265  -0.028   3.354   5.762
 6770TIP3   OH220266   2.497   2.994   4.227
 6770TIP3    H120267   2.423   2.991   4.166
 6770TIP3    H220268   2.552   3.064   4.193
 6771TIP3   OH220269   1.792   2.553   2.599
 6771TIP3    H120270   1.782   2.459   2.583
 6771TIP3    H220271   1.704   2.589   2.589
 6772TIP3   OH220272   6.922   0.569   0.341
 6772TIP3    H120273   6.839   0.608   0.316
 6772TIP3    H220274   6.901   0.477   0.360
 6773TIP3   OH220275   4.600   2.198   4.702
 6773TIP3    H120276   4.506   2.205   4.682
 6773TIP3    H220277   4.643   2.214   4.618
 6774TIP3   OH220278   6.098   0.980   1.561
 6774TIP3    H120279   6.085   0.886   1.550
 6774TIP3    H220280   6.153   0.988   1.639
 6775TIP3   OH220281   6.202   6.355   3.209
 6775TIP3    H120282   6.178   6.385   3.296
 6775TIP3    H220283   6.139   6.286   3.189
 6776TIP3   OH220284   6.010   2.765   4.472
 6776TIP3    H120285   5.970   2.678   4.483
 6776TIP3    H220286   6.082   2.751   4.411
 6777TIP3   OH220287   1.558   0.674   1.059
 6777TIP3    H120288   1.604   0.754   1.036
 6777TIP3    H220289   1.502   0.698   1.132
 6778TIP3   OH220290   0.172   1.231   3.217
 6778TIP3    H120291   0.099   1.182   3.179
 6778TIP3    H220292   0.135   1.270   3.296
 6779TIP3   OH220293   6.823   6.368   1.185
 6779TIP3    H120294   6.801   6.338   1.274
 6779TIP3    H220295   6.914   6.397   1.192
 6780TIP3   OH220296   7.908   4.866   2.512
 6780TIP3    H120297   7.976   4.806   2.543
 6780TIP3    H220298   7.830   4.841   2.562
 6781TIP3   OH220299   3.676   7.280   1.040
 6781TIP3    H120300   3.769   7.257   1.047
 6781TIP3    H220301   3.631   7.196   1.034
 6782TIP3   OH220302   4.246   3.912   2.288
 6782TIP3    H120303   4.289   3.859   2.221
 6782TIP3    H220304   4.176   3.856   2.322
 6783TIP3   OH220305   1.066   5.478   6.097
 6783TIP3    H120306   1.120   5.507   6.171
 6783TIP3    H220307   1.034   5.392   6.123
 6784TIP3   OH220308   0.451   0.093   3.571
 6784TIP3    H120309   0.403   0.171   3.543
 6784TIP3    H220310   0.393   0.020   3.550
 6785TIP3   OH220311   2.260   3.415   5.158
 6785TIP3    H120312   2.246   3.475   5.232
 6785TIP3    H220313   2.225   3.462   5.083
 6786TIP3   OH220314   3.168   7.532   5.059
 6786TIP3    H120315   3.083   7.489   5.059
 6786TIP3    H220316   3.178   7.566   5.148
 6787TIP3   OH220317   0.469   4.576   2.717
 6787TIP3    H120318   0.423   4.499   2.751
 6787TIP3    H220319   0.421   4.599   2.638
 6788TIP3   OH220320   1.202   1.909   3.314
 6788TIP3    H120321   1.260   1.848   3.360
 6788TIP3    H220322   1.136   1.934   3.379
 6789TIP3   OH220323   4.884   1.525   6.234
 6789TIP3    H120324   4.816   1.556   6.293
 6789TIP3    H220325   4.840   1.460   6.179
 6790TIP3   OH220326   8.120   1.043   1.499
 6790TIP3    H120327   8.069   1.117   1.533
 6790TIP3    H220328   8.144   1.071   1.411
 6791TIP3   OH220329   7.157   6.548   5.999
 6791TIP3    H120330   7.226   6.607   6.029
 6791TIP3    H220331   7.184   6.461   6.030
 6792TIP3   OH220332   3.432   6.759   1.086
 6792TIP3    H120333   3.504   6.724   1.138
 6792TIP3    H220334   3.353   6.734   1.134
 6793TIP3   OH220335   5.869   2.510   4.477
 6793TIP3    H120336   5.793   2.522   4.534
 6793TIP3    H220337   5.834   2.468   4.398
 6794TIP3   OH220338   0.761   6.241   3.215
 6794TIP3    H120339   0.803   6.306   3.272
 6794TIP3    H220340   0.834   6.199   3.170
 6795TIP3   OH220341   1.117   1.051   3.699
 6795TIP3    H120342   1.145   1.124   3.755
 6795TIP3    H220343   1.177   1.055   3.624
 6796TIP3   OH220344   5.480   3.858   5.726
 6796TIP3    H120345   5.435   3.788   5.678
 6796TIP3    H220346   5.556   3.880   5.672
 6797TIP3   OH220347   0.645   0.162   5.242
 6797TIP3    H120348   0.675   0.209   5.320
 6797TIP3    H220349   0.554   0.140   5.260
 6798TIP3   OH220350   7.820   5.820   4.217
 6798TIP3    H120351   7.750   5.788   4.161
 6798TIP3    H220352   7.833   5.751   4.282
 6799TIP3   OH220353   7.030   3.889   0.558
 6799TIP3    H120354   7.077   3.917   0.637
 6799TIP3    H220355   7.069   3.940   0.487
 6800TIP3   OH220356   2.407   6.702   2.530
 6800TIP3    H120357   2.445   6.744   2.607
 6800TIP3    H220358   2.412   6.609   2.548
 6801TIP3   OH220359   7.473   0.139   5.545
 6801TIP3    H120360   7.566   0.162   5.548
 6801TIP3    H220361   7.428   0.216   5.579
 6802TIP3   OH220362   2.881   7.689   4.077
 6802TIP3    H120363   2.843   7.645   4.153
 6802TIP3    H220364   2.830   7.656   4.003
 6803TIP3   OH220365   6.351   5.820   0.103
 6803TIP3    H120366   6.259   5.829   0.128
 6803TIP3    H220367   6.381   5.910   0.091
 6804TIP3   OH220368   5.882   2.824   6.449
 6804TIP3    H120369   5.808   2.807   6.391
 6804TIP3    H220370   5.945   2.754   6.429
 6805TIP3   OH220371   2.571   2.353   5.205
 6805TIP3    H120372   2.562   2.430   5.148
 6805TIP3    H220373   2.639   2.378   5.267
 6806TIP3   OH220374   3.234   5.013   2.037
 6806TIP3    H120375   3.195   4.984   2.120
 6806TIP3    H220376   3.182   5.090   2.012
 6807TIP3   OH220377   3.904   7.771   0.182
 6807TIP3    H120378   3.946   7.758   0.267
 6807TIP3    H220379   3.904   7.865   0.169
 6808TIP3   OH220380   5.470   6.938   0.466
 6808TIP3    H120381   5.469   7.032   0.487
 6808TIP3    H220382   5.556   6.908   0.496
 6809TIP3   OH220383   5.862   6.459   5.940
 6809TIP3    H120384   5.779   6.413   5.952
 6809TIP3    H220385   5.841   6.551   5.955
 6810TIP3   OH220386   7.247   1.404   4.454
 6810TIP3    H120387   7.335   1.409   4.491
 6810TIP3    H220388   7.221   1.495   4.441
 6811TIP3   OH220389   5.271   7.598   4.326
 6811TIP3    H120390   5.236   7.661   4.263
 6811TIP3    H220391   5.197   7.543   4.349
 6812TIP3   OH220392   6.288   6.314   1.008
 6812TIP3    H120393   6.217   6.377   0.999
 6812TIP3    H220394   6.347   6.354   1.073
 6813TIP3   OH220395   2.542   0.114   0.060
 6813TIP3    H120396   2.546   0.125   0.155
 6813TIP3    H220397   2.463   0.063   0.045
 6814TIP3   OH220398   7.960   1.383   3.370
 6814TIP3    H120399   7.873   1.414   3.344
 6814TIP3    H220400   7.977   1.425   3.454
 6815TIP3   OH220401   1.426   0.416   1.041
 6815TIP3    H120402   1.361   0.450   0.979
 6815TIP3    H220403   1.471   0.494   1.074
 6816TIP3   OH220404   2.464   6.625   6.428
 6816TIP3    H120405   2.529   6.690   6.404
 6816TIP3    H220406   2.514   6.556   6.472
 6817TIP3   OH220407   1.922   5.195   6.265
 6817TIP3    H120408   1.952   5.281   6.234
 6817TIP3    H220409   1.899   5.147   6.186
 6818TIP3   OH220410   2.843   7.659   0.241
 6818TIP3    H120411   2.881   7.578   0.276
 6818TIP3    H220412   2.873   7.727   0.302
 6819TIP3   OH220413   6.575   6.692   4.651
 6819TIP3    H120414   6.486   6.712   4.682
 6819TIP3    H220415   6.617   6.648   4.725
 6820TIP3   OH220416   5.616   2.963   5.076
 6820TIP3    H120417   5.588   2.984   5.165
 6820TIP3    H220418   5.698   3.011   5.065
 6821TIP3   OH220419   7.531   1.779   3.536
 6821TIP3    H120420   7.547   1.772   3.442
 6821TIP3    H220421   7.552   1.869   3.558
 6822TIP3   OH220422   7.660   3.363   0.095
 6822TIP3    H120423   7.603   3.373   0.019
 6822TIP3    H220424   7.631   3.430   0.157
 6823TIP3   OH220425   2.623   6.347   5.278
 6823TIP3    H120426   2.669   6.419   5.321
 6823TIP3    H220427   2.561   6.316   5.344
 6824TIP3   OH220428   7.956   5.604   3.427
 6824TIP3    H120429   7.992   5.534   3.482
 6824TIP3    H220430   7.884   5.563   3.380
 6825TIP3   OH220431   0.312   7.300   1.358
 6825TIP3    H120432   0.303   7.243   1.281
 6825TIP3    H220433   0.376   7.256   1.413
 6826TIP3   OH220434   6.049   0.654   3.911
 6826TIP3    H120435   5.984   0.587   3.890
 6826TIP3    H220436   6.113   0.610   3.967
 6827TIP3   OH220437   4.842   6.163   2.654
 6827TIP3    H120438   4.873   6.245   2.616
 6827TIP3    H220439   4.914   6.101   2.641
 6828TIP3   OH220440   6.428   2.601   4.946
 6828TIP3    H120441   6.415   2.506   4.947
 6828TIP3    H220442   6.351   2.637   4.989
 6829TIP3   OH220443   5.926   2.982   6.708
 6829TIP3    H120444   5.837   3.012   6.688
 6829TIP3    H220445   5.955   2.938   6.628
 6830TIP3   OH220446   2.416   3.547   0.937
 6830TIP3    H120447   2.460   3.537   1.022
 6830TIP3    H220448   2.324   3.527   0.955
 6831TIP3   OH220449   6.495   7.000   1.862
 6831TIP3    H120450   6.561   6.935   1.837
 6831TIP3    H220451   6.523   7.080   1.818
 6832TIP3   OH220452   5.878   2.811   0.016
 6832TIP3    H120453   5.829   2.879  -0.030
 6832TIP3    H220454   5.814   2.741   0.031
 6833TIP3   OH220455   0.849   3.009   1.168
 6833TIP3    H120456   0.939   2.982   1.150
 6833TIP3    H220457   0.812   3.028   1.082
 6834TIP3   OH220458   0.886   3.589   5.261
 6834TIP3    H120459   0.906   3.659   5.324
 6834TIP3    H220460   0.966   3.536   5.258
 6835TIP3   OH220461   5.839   5.776   1.716
 6835TIP3    H120462   5.774   5.782   1.786
 6835TIP3    H220463   5.831   5.859   1.668
 6836TIP3   OH220464   0.926   5.464   3.960
 6836TIP3    H120465   0.947   5.465   3.867
 6836TIP3    H220466   0.980   5.393   3.996
 6837TIP3   OH220467   6.854   6.820   3.937
 6837TIP3    H120468   6.861   6.724   3.930
 6837TIP3    H220469   6.908   6.853   3.865
 6838TIP3   OH220470   7.913   3.297   5.905
 6838TIP3    H120471   7.820   3.316   5.900
 6838TIP3    H220472   7.937   3.317   5.996
 6839TIP3   OH220473   7.132   3.595   3.192
 6839TIP3    H120474   7.070   3.523   3.181
 6839TIP3    H220475   7.077   3.673   3.202
 6840TIP3   OH220476   0.200   4.970   4.693
 6840TIP3    H120477   0.106   4.990   4.697
 6840TIP3    H220478   0.243   5.056   4.698
 6841TIP3   OH220479   2.148   6.211   6.356
 6841TIP3    H120480   2.086   6.146   6.388
 6841TIP3    H220481   2.149   6.278   6.425
 6842TIP3   OH220482   1.923   6.995   0.787
 6842TIP3    H120483   1.921   7.062   0.855
 6842TIP3    H220484   1.889   7.038   0.709
 6843TIP3   OH220485   7.419   5.894   1.892
 6843TIP3    H120486   7.496   5.932   1.935
 6843TIP3    H220487   7.423   5.801   1.913
 6844TIP3   OH220488   2.239   3.963   5.050
 6844TIP3    H120489   2.156   3.993   5.086
 6844TIP3    H220490   2.238   3.992   4.959
 6845TIP3   OH220491   7.005   1.090   2.125
 6845TIP3    H120492   7.016   1.152   2.197
 6845TIP3    H220493   7.087   1.041   2.124
 6846TIP3   OH220494   7.708   1.914   2.871
 6846TIP3    H120495   7.633   1.950   2.825
 6846TIP3    H220496   7.777   1.910   2.805
 6847TIP3   OH220497   6.820   1.392   0.031
 6847TIP3    H120498   6.904   1.349   0.016
 6847TIP3    H220499   6.755   1.324   0.011
 6848TIP3   OH220500   1.644   6.477   4.168
 6848TIP3    H120501   1.652   6.426   4.088
 6848TIP3    H220502   1.690   6.559   4.151
 6849TIP3   OH220503   3.674   1.198   6.287
 6849TIP3    H120504   3.606   1.213   6.353
 6849TIP3    H220505   3.679   1.281   6.239
 6850TIP3   OH220506   5.226   3.722   5.345
 6850TIP3    H120507   5.185   3.697   5.263
 6850TIP3    H220508   5.170   3.684   5.413
 6851TIP3   OH220509   4.261   1.897   2.773
 6851TIP3    H120510   4.326   1.958   2.740
 6851TIP3    H220511   4.295   1.869   2.858
 6852TIP3   OH220512   3.710   7.064   2.258
 6852TIP3    H120513   3.702   6.987   2.315
 6852TIP3    H220514   3.639   7.122   2.285
 6853TIP3   OH220515   0.200   6.431   6.500
 6853TIP3    H120516   0.269   6.365   6.510
 6853TIP3    H220517   0.206   6.457   6.408
 6854TIP3   OH220518   3.572   0.640   2.192
 6854TIP3    H120519   3.627   0.707   2.232
 6854TIP3    H220520   3.577   0.658   2.098
 6855TIP3   OH220521   6.256   7.522   1.304
 6855TIP3    H120522   6.291   7.610   1.316
 6855TIP3    H220523   6.300   7.470   1.372
 6856TIP3   OH220524   4.180   2.586   6.106
 6856TIP3    H120525   4.221   2.507   6.141
 6856TIP3    H220526   4.100   2.596   6.157
 6857TIP3   OH220527   6.698   6.286   5.656
 6857TIP3    H120528   6.756   6.286   5.732
 6857TIP3    H220529   6.744   6.231   5.592
 6858TIP3   OH220530   2.043   1.986   3.620
 6858TIP3    H120531   1.951   1.966   3.601
 6858TIP3    H220532   2.046   2.081   3.625
 6859TIP3   OH220533   6.077   7.692   3.324
 6859TIP3    H120534   6.023   7.693   3.403
 6859TIP3    H220535   6.051   7.771   3.277
 6860TIP3   OH220536   6.131   2.082   5.541
 6860TIP3    H120537   6.134   2.178   5.552
 6860TIP3    H220538   6.126   2.049   5.631
 6861TIP3   OH220539   2.946   0.008   4.538
 6861TIP3    H120540   2.982  -0.055   4.474
 6861TIP3    H220541   2.888   0.063   4.486
 6862TIP3   OH220542   1.018   4.528   3.480
 6862TIP3    H120543   0.994   4.525   3.573
 6862TIP3    H220544   1.101   4.481   3.475
 6863TIP3   OH220545   7.573   2.338   4.427
 6863TIP3    H120546   7.623   2.342   4.346
 6863TIP3    H220547   7.534   2.425   4.436
 6864TIP3   OH220548   4.979   5.798   1.250
 6864TIP3    H120549   4.959   5.759   1.336
 6864TIP3    H220550   4.939   5.885   1.254
 6865TIP3   OH220551   2.317   2.445   5.221
 6865TIP3    H120552   2.405   2.407   5.218
 6865TIP3    H220553   2.330   2.536   5.247
 6866TIP3   OH220554   0.165   3.476   0.841
 6866TIP3    H120555   0.111   3.525   0.904
 6866TIP3    H220556   0.170   3.533   0.765
 6867TIP3   OH220557   2.322   1.756   6.611
 6867TIP3    H120558   2.233   1.721   6.622
 6867TIP3    H220559   2.309   1.851   6.603
 6868TIP3   OH220560   2.321   5.085   5.710
 6868TIP3    H120561   2.336   5.175   5.681
 6868TIP3    H220562   2.243   5.057   5.662
 6869TIP3   OH220563   0.123   0.062   4.828
 6869TIP3    H120564   0.102   0.069   4.735
 6869TIP3    H220565   0.159  -0.026   4.838
 6870TIP3   OH220566   0.030   5.251   2.707
 6870TIP3    H120567   0.087   5.177   2.684
 6870TIP3    H220568  -0.038   5.250   2.640
 6871TIP3   OH220569   7.071   7.145   0.055
 6871TIP3    H120570   7.061   7.223   0.000
 6871TIP3    H220571   7.148   7.101   0.018
 6872TIP3   OH220572   7.898   7.654   5.242
 6872TIP3    H120573   7.877   7.653   5.148
 6872TIP3    H220574   7.837   7.718   5.279
 6873TIP3   OH220575   2.861   4.243   4.590
 6873TIP3    H120576   2.773   4.205   4.597
 6873TIP3    H220577   2.846   4.338   4.592
 6874TIP3   OH220578   5.317   4.387   2.984
 6874TIP3    H120579   5.311   4.405   2.890
 6874TIP3    H220580   5.236   4.341   3.004
 6875TIP3   OH220581   7.523   4.895   4.303
 6875TIP3    H120582   7.429   4.913   4.306
 6875TIP3    H220583   7.563   4.980   4.289
 6876TIP3   OH220584   6.447   5.837   6.288
 6876TIP3    H120585   6.468   5.877   6.204
 6876TIP3    H220586   6.363   5.875   6.313
 6877TIP3   OH220587   5.969   4.024   3.931
 6877TIP3    H120588   5.899   4.021   3.996
 6877TIP3    H220589   6.015   4.107   3.950
 6878TIP3   OH220590   2.874   6.867   3.705
 6878TIP3    H120591   2.843   6.930   3.770
 6878TIP3    H220592   2.912   6.796   3.757
 6879TIP3   OH220593   3.625   4.649   4.767
 6879TIP3    H120594   3.652   4.572   4.717
 6879TIP3    H220595   3.530   4.641   4.772
 6880TIP3   OH220596   2.455   4.724   0.702
 6880TIP3    H120597   2.539   4.761   0.676
 6880TIP3    H220598   2.408   4.796   0.743
 6881TIP3   OH220599   7.557   6.842   1.426
 6881TIP3    H120600   7.595   6.930   1.436
 6881TIP3    H220601   7.549   6.831   1.331
 6882TIP3   OH220602   2.058   1.512   3.429
 6882TIP3    H120603   2.068   1.590   3.374
 6882TIP3    H220604   2.081   1.542   3.517
 6883TIP3   OH220605   4.917   5.204   0.113
 6883TIP3    H120606   4.937   5.161   0.029
 6883TIP3    H220607   4.946   5.295   0.100
 6884TIP3   OH220608   1.430   2.911   3.151
 6884TIP3    H120609   1.463   2.994   3.118
 6884TIP3    H220610   1.481   2.895   3.231
 6885TIP3   OH220611   1.530   6.925   3.951
 6885TIP3    H120612   1.443   6.954   3.977
 6885TIP3    H220613   1.564   6.997   3.897
 6886TIP3   OH220614   4.663   7.029   0.134
 6886TIP3    H120615   4.706   7.077   0.063
 6886TIP3    H220616   4.569   7.043   0.119
 6887TIP3   OH220617   4.694   1.769   1.439
 6887TIP3    H120618   4.695   1.788   1.346
 6887TIP3    H220619   4.608   1.799   1.468
 6888TIP3   OH220620   7.274   0.498   2.171
 6888TIP3    H120621   7.238   0.504   2.260
 6888TIP3    H220622   7.197   0.483   2.115
 6889TIP3   OH220623   0.372   6.248   0.810
 6889TIP3    H120624   0.408   6.248   0.898
 6889TIP3    H220625   0.355   6.156   0.790
 6890TIP3   OH220626   2.161   0.242   0.825
 6890TIP3    H120627   2.072   0.267   0.801
 6890TIP3    H220628   2.217   0.284   0.760
 6891TIP3   OH220629   1.307   7.588   1.158
 6891TIP3    H120630   1.320   7.502   1.198
 6891TIP3    H220631   1.259   7.638   1.224
 6892TIP3   OH220632   1.820   0.931   5.353
 6892TIP3    H120633   1.801   1.015   5.394
 6892TIP3    H220634   1.916   0.926   5.352
 6893TIP3   OH220635   6.689   0.438   5.000
 6893TIP3    H120636   6.725   0.356   5.032
 6893TIP3    H220637   6.737   0.455   4.918
 6894TIP3   OH220638   6.957   2.493   4.607
 6894TIP3    H120639   6.875   2.530   4.576
 6894TIP3    H220640   6.983   2.549   4.680
 6895TIP3   OH220641   5.217   3.290   4.562
 6895TIP3    H120642   5.123   3.275   4.567
 6895TIP3    H220643   5.228   3.379   4.597
 6896TIP3   OH220644   4.781   7.445   2.193
 6896TIP3    H120645   4.839   7.491   2.132
 6896TIP3    H220646   4.699   7.435   2.145
 6897TIP3   OH220647   6.767   6.848   0.819
 6897TIP3    H120648   6.804   6.935   0.803
 6897TIP3    H220649   6.809   6.792   0.754
 6898TIP3   OH220650   2.729   2.410   3.271
 6898TIP3    H120651   2.775   2.404   3.188
 6898TIP3    H220652   2.787   2.366   3.334
 6899TIP3   OH220653   6.902   2.559   0.958
 6899TIP3    H120654   6.942   2.639   0.992
 6899TIP3    H220655   6.947   2.544   0.874
 6900TIP3   OH220656   8.218   4.793   0.558
 6900TIP3    H120657   8.263   4.708   0.564
 6900TIP3    H220658   8.176   4.804   0.643
 6901TIP3   OH220659   2.215   6.873   0.119
 6901TIP3    H120660   2.243   6.853   0.209
 6901TIP3    H220661   2.122   6.849   0.117
 6902TIP3   OH220662   0.114   5.198   5.952
 6902TIP3    H120663   0.101   5.287   5.985
 6902TIP3    H220664   0.072   5.198   5.867
 6903TIP3   OH220665   4.200   3.670   4.052
 6903TIP3    H120666   4.165   3.615   3.982
 6903TIP3    H220667   4.275   3.621   4.087
 6904TIP3   OH220668   2.827   6.798   6.641
 6904TIP3    H120669   2.750   6.823   6.693
 6904TIP3    H220670   2.844   6.707   6.666
 6905TIP3   OH220671   1.276   6.093   5.197
 6905TIP3    H120672   1.308   6.158   5.259
 6905TIP3    H220673   1.353   6.072   5.143
 6906TIP3   OH220674   6.841   2.868   2.159
 6906TIP3    H120675   6.871   2.951   2.196
 6906TIP3    H220676   6.915   2.837   2.107
 6907TIP3   OH220677   1.902   6.412   4.194
 6907TIP3    H120678   1.807   6.422   4.185
 6907TIP3    H220679   1.922   6.332   4.144
 6908TIP3   OH220680   8.184   3.454   5.447
 6908TIP3    H120681   8.132   3.425   5.521
 6908TIP3    H220682   8.261   3.397   5.447
 6909TIP3   OH220683   4.871   4.853   3.258
 6909TIP3    H120684   4.898   4.805   3.336
 6909TIP3    H220685   4.818   4.791   3.209
 6910TIP3   OH220686   7.571   0.416   5.761
 6910TIP3    H120687   7.609   0.363   5.692
 6910TIP3    H220688   7.641   0.426   5.826
 6911TIP3   OH220689   8.249   4.204   0.125
 6911TIP3    H120690   8.211   4.179   0.041
 6911TIP3    H220691   8.304   4.280   0.105
 6912TIP3   OH220692   0.217   4.372   1.069
 6912TIP3    H120693   0.246   4.304   1.007
 6912TIP3    H220694   0.251   4.343   1.154
 6913TIP3   OH220695   6.151   2.123   4.220
 6913TIP3    H120696   6.232   2.073   4.210
 6913TIP3    H220697   6.180   2.207   4.256
 6914TIP3   OH220698   2.056   1.768   1.882
 6914TIP3    H120699   1.977   1.806   1.921
 6914TIP3    H220700   2.027   1.736   1.797
 6915TIP3   OH220701   2.269   3.690   3.113
 6915TIP3    H120702   2.185   3.713   3.072
 6915TIP3    H220703   2.261   3.597   3.132
 6916TIP3   OH220704   5.322   6.774   6.005
 6916TIP3    H120705   5.386   6.845   5.994
 6916TIP3    H220706   5.374   6.695   6.011
 6917TIP3   OH220707   3.718   2.517   4.050
 6917TIP3    H120708   3.812   2.535   4.041
 6917TIP3    H220709   3.701   2.446   3.989
 6918TIP3   OH220710   2.739   2.195   0.453
 6918TIP3    H120711   2.745   2.290   0.439
 6918TIP3    H220712   2.816   2.160   0.409
 6919TIP3   OH220713   1.767   5.178   3.154
 6919TIP3    H120714   1.854   5.209   3.128
 6919TIP3    H220715   1.741   5.235   3.226
 6920TIP3   OH220716   0.564   5.832   2.902
 6920TIP3    H120717   0.510   5.851   2.824
 6920TIP3    H220718   0.567   5.915   2.950
 6921TIP3   OH220719   8.062   0.482   6.339
 6921TIP3    H120720   8.094   0.557   6.289
 6921TIP3    H220721   8.102   0.406   6.296
 6922TIP3   OH220722   2.425   3.938   2.493
 6922TIP3    H120723   2.437   3.878   2.420
 6922TIP3    H220724   2.510   3.981   2.502
 6923TIP3   OH220725   2.639   0.893   0.555
 6923TIP3    H120726   2.678   0.947   0.487
 6923TIP3    H220727   2.559   0.940   0.581
 6924TIP3   OH220728   1.279   3.799   6.149
 6924TIP3    H120729   1.329   3.718   6.160
 6924TIP3    H220730   1.326   3.846   6.079
 6925TIP3   OH220731   4.393   2.766   1.452
 6925TIP3    H120732   4.451   2.726   1.387
 6925TIP3    H220733   4.435   2.850   1.474
 6926TIP3   OH220734   1.609   6.482   5.620
 6926TIP3    H120735   1.693   6.476   5.667
 6926TIP3    H220736   1.567   6.398   5.635
 6927TIP3   OH220737   2.382   1.040   0.283
 6927TIP3    H120738   2.470   1.059   0.315
 6927TIP3    H220739   2.332   1.120   0.301
 6928TIP3   OH220740   2.434   3.595   6.532
 6928TIP3    H120741   2.389   3.673   6.564
 6928TIP3    H220742   2.414   3.592   6.439
 6929TIP3   OH220743   4.602   5.057   2.823
 6929TIP3    H120744   4.642   4.994   2.884
 6929TIP3    H220745   4.571   5.128   2.879
 6930TIP3   OH220746   5.011   5.965   2.054
 6930TIP3    H120747   5.019   5.878   2.092
 6930TIP3    H220748   4.928   5.962   2.005
 6931TIP3   OH220749   7.401   0.834   0.415
 6931TIP3    H120750   7.352   0.824   0.497
 6931TIP3    H220751   7.340   0.878   0.356
 6932TIP3   OH220752   4.810   7.223   2.330
 6932TIP3    H120753   4.787   7.308   2.293
 6932TIP3    H220754   4.899   7.234   2.363
 6933TIP3   OH220755   3.755   0.850   4.935
 6933TIP3    H120756   3.668   0.883   4.960
 6933TIP3    H220757   3.805   0.853   5.016
 6934TIP3   OH220758   8.008   6.311   4.424
 6934TIP3    H120759   7.962   6.359   4.354
 6934TIP3    H220760   7.985   6.219   4.409
 6935TIP3   OH220761   3.729   0.757   2.397
 6935TIP3    H120762   3.695   0.670   2.416
 6935TIP3    H220763   3.724   0.804   2.480
 6936TIP3   OH220764   3.144   5.606   2.023
 6936TIP3    H120765   3.056   5.569   2.014
 6936TIP3    H220766   3.199   5.553   1.964
 6937TIP3   OH220767   3.620   0.891   5.824
 6937TIP3    H120768   3.622   0.981   5.856
 6937TIP3    H220769   3.570   0.843   5.890
 6938TIP3   OH220770   4.538   0.873   0.218
 6938TIP3    H120771   4.464   0.887   0.160
 6938TIP3    H220772   4.501   0.875   0.306
 6939TIP3   OH220773   6.557   1.767   4.384
 6939TIP3    H120774   6.598   1.840   4.429
 6939TIP3    H220775   6.588   1.689   4.431
 6940TIP3   OH220776   2.477   7.560   2.933
 6940TIP3    H120777   2.483   7.560   2.837
 6940TIP3    H220778   2.422   7.636   2.953
 6941TIP3   OH220779   2.018   1.269   5.213
 6941TIP3    H120780   2.040   1.188   5.259
 6941TIP3    H220781   2.101   1.316   5.205
 6942TIP3   OH220782   5.165   4.281   0.749
 6942TIP3    H120783   5.233   4.298   0.815
 6942TIP3    H220784   5.208   4.227   0.683
 6943TIP3   OH220785   0.279   3.395   3.168
 6943TIP3    H120786   0.268   3.323   3.230
 6943TIP3    H220787   0.348   3.449   3.206
 6944TIP3   OH220788   0.225   4.614   5.057
 6944TIP3    H120789   0.136   4.613   5.024
 6944TIP3    H220790   0.262   4.530   5.030
 6945TIP3   OH220791   1.578   5.766   6.280
 6945TIP3    H120792   1.492   5.797   6.308
 6945TIP3    H220793   1.632   5.769   6.359
 6946TIP3   OH220794   5.709   0.654   6.059
 6946TIP3    H120795   5.644   0.693   6.118
 6946TIP3    H220796   5.660   0.635   5.979
 6947TIP3   OH220797   2.894   1.992   6.591
 6947TIP3    H120798   2.895   1.933   6.516
 6947TIP3    H220799   2.801   2.003   6.612
 6948TIP3   OH220800   5.729   3.135   2.390
 6948TIP3    H120801   5.805   3.130   2.447
 6948TIP3    H220802   5.751   3.202   2.326
 6949TIP3   OH220803   3.238   0.829   6.300
 6949TIP3    H120804   3.279   0.887   6.363
 6949TIP3    H220805   3.301   0.757   6.289
 6950TIP3   OH220806   2.017   2.716   2.886
 6950TIP3    H120807   1.994   2.634   2.844
 6950TIP3    H220808   1.934   2.748   2.922
 6951TIP3   OH220809   4.893   3.505   6.521
 6951TIP3    H120810   4.927   3.568   6.457
 6951TIP3    H220811   4.854   3.559   6.589
 6952TIP3   OH220812   7.708   7.203   6.220
 6952TIP3    H120813   7.667   7.219   6.305
 6952TIP3    H220814   7.724   7.290   6.184
 6953TIP3   OH220815   2.490   3.440   5.347
 6953TIP3    H120816   2.521   3.356   5.380
 6953TIP3    H220817   2.415   3.417   5.292
 6954TIP3   OH220818   7.627   0.549   2.820
 6954TIP3    H120819   7.584   0.466   2.837
 6954TIP3    H220820   7.720   0.531   2.832
 6955TIP3   OH220821   4.252   4.549   2.014
 6955TIP3    H120822   4.311   4.607   1.965
 6955TIP3    H220823   4.170   4.599   2.019
 6956TIP3   OH220824   1.937   2.850   1.924
 6956TIP3    H120825   1.949   2.827   2.016
 6956TIP3    H220826   2.015   2.817   1.880
 6957TIP3   OH220827   3.921   0.160   2.930
 6957TIP3    H120828   3.989   0.195   2.872
 6957TIP3    H220829   3.967   0.134   3.009
 6958TIP3   OH220830   3.444   7.040   0.716
 6958TIP3    H120831   3.489   7.032   0.800
 6958TIP3    H220832   3.444   7.134   0.698
 6959TIP3   OH220833   0.333   2.621   5.493
 6959TIP3    H120834   0.264   2.677   5.530
 6959TIP3    H220835   0.349   2.658   5.406
 6960TIP3   OH220836   1.809   7.091   2.852
 6960TIP3    H120837   1.762   7.171   2.879
 6960TIP3    H220838   1.780   7.024   2.914
 6961TIP3   OH220839   3.968   1.048   5.937
 6961TIP3    H120840   4.025   1.123   5.918
 6961TIP3    H220841   3.959   1.050   6.033
 6962TIP3   OH220842   5.782   5.413   1.084
 6962TIP3    H120843   5.811   5.362   1.160
 6962TIP3    H220844   5.860   5.459   1.054
 6963TIP3   OH220845   1.772   0.808   6.175
 6963TIP3    H120846   1.798   0.792   6.266
 6963TIP3    H220847   1.844   0.774   6.122
 6964TIP3   OH220848   6.537   5.587   6.391
 6964TIP3    H120849   6.519   5.586   6.485
 6964TIP3    H220850   6.507   5.673   6.362
 6965TIP3   OH220851   7.779   5.495   0.569
 6965TIP3    H120852   7.697   5.537   0.598
 6965TIP3    H220853   7.763   5.401   0.581
 6966TIP3   OH220854   2.432   6.205   4.086
 6966TIP3    H120855   2.444   6.255   4.166
 6966TIP3    H220856   2.467   6.118   4.107
 6967TIP3   OH220857   0.263   7.595   1.561
 6967TIP3    H120858   0.301   7.572   1.477
 6967TIP3    H220859   0.224   7.682   1.547
 6968TIP3   OH220860   0.467   0.089   3.190
 6968TIP3    H120861   0.411   0.124   3.121
 6968TIP3    H220862   0.486   0.164   3.246
 6969TIP3   OH220863   2.210   1.776   5.324
 6969TIP3    H120864   2.262   1.768   5.244
 6969TIP3    H220865   2.189   1.686   5.348
 6970TIP3   OH220866   2.248   0.544   2.643
 6970TIP3    H120867   2.267   0.486   2.569
 6970TIP3    H220868   2.331   0.549   2.691
 6971TIP3   OH220869   5.083   3.868   2.476
 6971TIP3    H120870   5.151   3.910   2.529
 6971TIP3    H220871   5.095   3.774   2.492
 6972TIP3   OH220872   4.608   7.502   5.037
 6972TIP3    H120873   4.597   7.572   4.972
 6972TIP3    H220874   4.682   7.530   5.090
 6973TIP3   OH220875   5.805   7.705   1.202
 6973TIP3    H120876   5.843   7.618   1.189
 6973TIP3    H220877   5.720   7.700   1.158
 6974TIP3   OH220878   5.830   5.514   4.451
 6974TIP3    H120879   5.888   5.588   4.435
 6974TIP3    H220880   5.831   5.503   4.546
 6975TIP3   OH220881   6.097   0.849   0.544
 6975TIP3    H120882   6.029   0.782   0.551
 6975TIP3    H220883   6.060   0.914   0.484
 6976TIP3   OH220884   8.075   5.420   5.524
 6976TIP3    H120885   8.111   5.504   5.495
 6976TIP3    H220886   8.100   5.413   5.616
 6977TIP3   OH220887   1.681   2.755   1.918
 6977TIP3    H120888   1.645   2.828   1.968
 6977TIP3    H220889   1.776   2.769   1.923
 6978TIP3   OH220890   4.866   1.122   5.319
 6978TIP3    H120891   4.784   1.136   5.367
 6978TIP3    H220892   4.930   1.177   5.365
 6979TIP3   OH220893   2.884   4.375   3.631
 6979TIP3    H120894   2.973   4.404   3.611
 6979TIP3    H220895   2.885   4.353   3.724
 6980TIP3   OH220896   7.208   7.469   3.416
 6980TIP3    H120897   7.153   7.426   3.352
 6980TIP3    H220898   7.228   7.554   3.377
 6981TIP3   OH220899   5.600   0.865   3.685
 6981TIP3    H120900   5.511   0.833   3.698
 6981TIP3    H220901   5.591   0.961   3.681
 6982TIP3   OH220902   3.277   0.727   2.434
 6982TIP3    H120903   3.278   0.699   2.526
 6982TIP3    H220904   3.192   0.698   2.401
 6983TIP3   OH220905   4.554   1.992   5.307
 6983TIP3    H120906   4.577   2.020   5.396
 6983TIP3    H220907   4.609   2.044   5.250
 6984TIP3   OH220908   7.580   0.880   4.579
 6984TIP3    H120909   7.523   0.807   4.601
 6984TIP3    H220910   7.542   0.955   4.625
 6985TIP3   OH220911   6.621   5.824   5.780
 6985TIP3    H120912   6.544   5.767   5.777
 6985TIP3    H220913   6.662   5.804   5.864
 6986TIP3   OH220914   4.129   7.258   1.641
 6986TIP3    H120915   4.155   7.238   1.731
 6986TIP3    H220916   4.194   7.321   1.610
 6987TIP3   OH220917   4.871   0.251   0.702
 6987TIP3    H120918   4.847   0.343   0.699
 6987TIP3    H220919   4.852   0.218   0.614
 6988TIP3   OH220920   3.435   1.184   5.219
 6988TIP3    H120921   3.522   1.159   5.189
 6988TIP3    H220922   3.390   1.101   5.235
 6989TIP3   OH220923   7.187   0.164   4.101
 6989TIP3    H120924   7.163   0.202   4.016
 6989TIP3    H220925   7.109   0.117   4.129
 6990TIP3   OH220926   0.363   4.973   0.703
 6990TIP3    H120927   0.292   4.917   0.734
 6990TIP3    H220928   0.398   4.926   0.627
 6991TIP3   OH220929   7.716   5.794   6.576
 6991TIP3    H120930   7.775   5.744   6.633
 6991TIP3    H220931   7.681   5.728   6.516
 6992TIP3   OH220932   5.191   7.791   6.281
 6992TIP3    H120933   5.140   7.721   6.240
 6992TIP3    H220934   5.276   7.787   6.238
 6993TIP3   OH220935   8.208   4.257   0.756
 6993TIP3    H120936   8.193   4.274   0.663
 6993TIP3    H220937   8.174   4.169   0.770
 6994TIP3   OH220938   4.049   2.296   1.426
 6994TIP3    H120939   4.107   2.222   1.443
 6994TIP3    H220940   4.096   2.349   1.361
 6995TIP3   OH220941   1.452   3.645   0.736
 6995TIP3    H120942   1.532   3.692   0.711
 6995TIP3    H220943   1.431   3.592   0.659
 6996TIP3   OH220944   6.509   6.736   5.899
 6996TIP3    H120945   6.507   6.744   5.804
 6996TIP3    H220946   6.583   6.791   5.926
 6997TIP3   OH220947   1.456   4.162   4.330
 6997TIP3    H120948   1.544   4.189   4.355
 6997TIP3    H220949   1.398   4.223   4.376
 6998TIP3   OH220950   5.443   6.598   2.271
 6998TIP3    H120951   5.364   6.545   2.285
 6998TIP3    H220952   5.514   6.544   2.303
 6999TIP3   OH220953   0.534   0.427   3.987
 6999TIP3    H120954   0.614   0.387   4.020
 6999TIP3    H220955   0.563   0.483   3.916
 7000TIP3   OH220956   6.652   3.306   1.624
 7000TIP3    H120957   6.657   3.215   1.652
 7000TIP3    H220958   6.659   3.302   1.528
 7001TIP3   OH220959   5.875   5.371   0.704
 7001TIP3    H120960   5.799   5.317   0.728
 7001TIP3    H220961   5.839   5.437   0.645
 7002TIP3   OH220962   3.213   0.704   4.469
 7002TIP3    H120963   3.262   0.628   4.499
 7002TIP3    H220964   3.142   0.668   4.417
 7003TIP3   OH220965   8.057   1.383   6.668
 7003TIP3    H120966   8.151   1.393   6.660
 7003TIP3    H220967   8.046   1.304   6.721
 7004TIP3   OH220968   6.065   1.405   5.002
 7004TIP3    H120969   6.000   1.396   5.072
 7004TIP3    H220970   6.110   1.321   5.000
 7005TIP3   OH220971   4.319   5.226   6.487
 7005TIP3    H120972   4.248   5.194   6.431
 7005TIP3    H220973   4.277   5.240   6.572
 7006TIP3   OH220974   0.362   6.296   1.460
 7006TIP3    H120975   0.297   6.303   1.390
 7006TIP3    H220976   0.310   6.285   1.539
 7007TIP3   OH220977   5.377   1.431   6.424
 7007TIP3    H120978   5.282   1.420   6.419
 7007TIP3    H220979   5.400   1.400   6.511
 7008TIP3   OH220980   5.219   0.178   4.105
 7008TIP3    H120981   5.241   0.103   4.050
 7008TIP3    H220982   5.303   0.205   4.143
 7009TIP3   OH220983   2.562   6.947   1.424
 7009TIP3    H120984   2.544   7.041   1.415
 7009TIP3    H220985   2.520   6.923   1.506
 7010TIP3   OH220986   0.853   3.750   0.408
 7010TIP3    H120987   0.775   3.805   0.404
 7010TIP3    H220988   0.926   3.812   0.407
 7011TIP3   OH220989   1.313   5.997   2.150
 7011TIP3    H120990   1.305   6.016   2.057
 7011TIP3    H220991   1.334   6.082   2.190
 7012TIP3   OH220992   2.289   0.062   5.884
 7012TIP3    H120993   2.328   0.094   5.803
 7012TIP3    H220994   2.209   0.114   5.895
 7013TIP3   OH220995   1.070   4.728   0.729
 7013TIP3    H120996   1.035   4.639   0.739
 7013TIP3    H220997   0.995   4.786   0.742
 7014TIP3   OH220998   0.563   6.472   5.740
 7014TIP3    H120999   0.628   6.421   5.692
 7014TIP3    H221000   0.544   6.419   5.818
 7015TIP3   OH221001   0.522   5.701   0.437
 7015TIP3    H121002   0.447   5.647   0.462
 7015TIP3    H221003   0.483   5.776   0.391
 7016TIP3   OH221004   5.845   3.489   4.468
 7016TIP3    H121005   5.756   3.455   4.480
 7016TIP3    H221006   5.902   3.414   4.482
 7017TIP3   OH221007   0.743   1.397   2.764
 7017TIP3    H121008   0.814   1.389   2.700
 7017TIP3    H221009   0.785   1.439   2.840
 7018TIP3   OH221010   0.396   2.075   0.405
 7018TIP3    H121011   0.478   2.030   0.384
 7018TIP3    H221012   0.355   2.021   0.472
 7019TIP3   OH221013   0.174   1.809   5.055
 7019TIP3    H121014   0.251   1.810   4.998
 7019TIP3    H221015   0.145   1.900   5.059
 7020TIP3   OH221016   7.206   4.061   0.254
 7020TIP3    H121017   7.190   4.119   0.180
 7020TIP3    H221018   7.279   4.101   0.301
 7021TIP3   OH221019   0.538   7.020   1.157
 7021TIP3    H121020   0.600   7.019   1.084
 7021TIP3    H221021   0.452   7.019   1.115
 7022TIP3   OH221022   3.867   3.867   1.096
 7022TIP3    H121023   3.895   3.876   1.187
 7022TIP3    H221024   3.775   3.841   1.103
 7023TIP3   OH221025   4.668   0.316   3.338
 7023TIP3    H121026   4.718   0.297   3.417
 7023TIP3    H221027   4.733   0.340   3.273
 7024TIP3   OH221028   2.364   0.859   2.442
 7024TIP3    H121029   2.396   0.769   2.433
 7024TIP3    H221030   2.278   0.850   2.482
 7025TIP3   OH221031   4.512   0.622   1.039
 7025TIP3    H121032   4.541   0.531   1.042
 7025TIP3    H221033   4.585   0.670   0.999
 7026TIP3   OH221034   4.185   3.419   6.285
 7026TIP3    H121035   4.262   3.410   6.340
 7026TIP3    H221036   4.214   3.391   6.198
 7027TIP3   OH221037   1.468   1.862   5.015
 7027TIP3    H121038   1.425   1.807   4.949
 7027TIP3    H221039   1.464   1.810   5.095
 7028TIP3   OH221040   4.544   2.210   5.042
 7028TIP3    H121041   4.585   2.218   5.128
 7028TIP3    H221042   4.591   2.274   4.987
 7029TIP3   OH221043   0.628   3.163   2.110
 7029TIP3    H121044   0.561   3.119   2.163
 7029TIP3    H221045   0.647   3.102   2.039
 7030TIP3   OH221046   2.988   0.741   0.600
 7030TIP3    H121047   3.024   0.801   0.666
 7030TIP3    H221048   2.962   0.798   0.528
 7031TIP3   OH221049   4.892   5.019   0.614
 7031TIP3    H121050   4.917   5.017   0.706
 7031TIP3    H221051   4.807   5.063   0.613
 7032TIP3   OH221052   1.569   6.609   1.418
 7032TIP3    H121053   1.525   6.631   1.500
 7032TIP3    H221054   1.504   6.560   1.368
 7033TIP3   OH221055   7.252   2.842   3.279
 7033TIP3    H121056   7.257   2.882   3.366
 7033TIP3    H221057   7.318   2.772   3.281
 7034TIP3   OH221058   3.856   5.335   1.284
 7034TIP3    H121059   3.788   5.343   1.352
 7034TIP3    H221060   3.934   5.372   1.324
 7035TIP3   OH221061   4.513   7.145   6.800
 7035TIP3    H121062   4.418   7.138   6.807
 7035TIP3    H221063   4.529   7.178   6.712
 7036TIP3   OH221064   6.377   6.745   4.434
 7036TIP3    H121065   6.443   6.764   4.500
 7036TIP3    H221066   6.310   6.812   4.447
 7037TIP3   OH221067   1.040   1.753   6.650
 7037TIP3    H121068   1.064   1.662   6.666
 7037TIP3    H221069   1.011   1.786   6.736
 7038TIP3   OH221070   5.340   7.782   2.220
 7038TIP3    H121071   5.433   7.793   2.197
 7038TIP3    H221072   5.316   7.699   2.179
 7039TIP3   OH221073   5.445   1.224   0.690
 7039TIP3    H121074   5.512   1.292   0.691
 7039TIP3    H221075   5.493   1.144   0.666
 7040TIP3   OH221076   4.048   1.236   4.109
 7040TIP3    H121077   4.129   1.236   4.159
 7040TIP3    H221078   4.004   1.318   4.134
 7041TIP3   OH221079   1.859   4.601   6.384
 7041TIP3    H121080   1.889   4.538   6.450
 7041TIP3    H221081   1.815   4.547   6.318
 7042TIP3   OH221082   3.384   0.901   3.584
 7042TIP3    H121083   3.350   0.861   3.504
 7042TIP3    H221084   3.470   0.935   3.560
 7043TIP3   OH221085   5.036   5.705   4.711
 7043TIP3    H121086   5.066   5.777   4.766
 7043TIP3    H221087   5.105   5.695   4.645
 7044TIP3   OH221088   2.119   2.605   0.860
 7044TIP3    H121089   2.073   2.553   0.925
 7044TIP3    H221090   2.073   2.588   0.778
 7045TIP3   OH221091   3.533   7.175   2.500
 7045TIP3    H121092   3.538   7.101   2.561
 7045TIP3    H221093   3.463   7.151   2.440
 7046TIP3   OH221094   6.369   1.746   6.511
 7046TIP3    H121095   6.348   1.827   6.465
 7046TIP3    H221096   6.285   1.713   6.542
 7047TIP3   OH221097   4.663   1.784   2.887
 7047TIP3    H121098   4.653   1.877   2.908
 7047TIP3    H221099   4.746   1.759   2.927
 7048TIP3   OH221100   4.852   6.356   6.640
 7048TIP3    H121101   4.767   6.313   6.652
 7048TIP3    H221102   4.915   6.294   6.677
 7049TIP3   OH221103   5.329   4.785   4.232
 7049TIP3    H121104   5.401   4.745   4.183
 7049TIP3    H221105   5.277   4.830   4.165
 7050TIP3   OH221106   1.682   4.960   4.835
 7050TIP3    H121107   1.632   4.926   4.761
 7050TIP3    H221108   1.638   5.041   4.858
 7051TIP3   OH221109   0.235   0.785   4.183
 7051TIP3    H121110   0.330   0.797   4.177
 7051TIP3    H221111   0.223   0.725   4.256
 7052TIP3   OH221112   6.659   4.745   1.663
 7052TIP3    H121113   6.663   4.840   1.655
 7052TIP3    H221114   6.751   4.717   1.658
 7053TIP3   OH221115   8.128   5.082   5.887
 7053TIP3    H121116   8.108   5.175   5.876
 7053TIP3    H221117   8.189   5.062   5.817
 7054TIP3   OH221118   7.561   2.404   3.939
 7054TIP3    H121119   7.646   2.443   3.918
 7054TIP3    H221120   7.518   2.392   3.854
 7055TIP3   OH221121   6.909   7.793   3.358
 7055TIP3    H121122   6.864   7.818   3.438
 7055TIP3    H221123   6.897   7.698   3.352
 7056TIP3   OH221124   4.305   2.812   4.007
 7056TIP3    H121125   4.379   2.841   3.952
 7056TIP3    H221126   4.227   2.833   3.955
 7057TIP3   OH221127   2.397   1.143   3.923
 7057TIP3    H121128   2.366   1.060   3.958
 7057TIP3    H221129   2.323   1.176   3.872
 7058TIP3   OH221130   4.880   6.389   5.294
 7058TIP3    H121131   4.795   6.345   5.297
 7058TIP3    H221132   4.939   6.331   5.343
 7059TIP3   OH221133   0.336   2.377   6.470
 7059TIP3    H121134   0.350   2.375   6.564
 7059TIP3    H221135   0.360   2.466   6.443
 7060TIP3   OH221136   3.922   5.480   6.717
 7060TIP3    H121137   3.858   5.441   6.776
 7060TIP3    H221138   3.876   5.553   6.676
 7061TIP3   OH221139   5.327   3.482   2.350
 7061TIP3    H121140   5.345   3.442   2.265
 7061TIP3    H221141   5.231   3.486   2.354
 7062TIP3   OH221142   3.598   3.951   1.493
 7062TIP3    H121143   3.594   3.966   1.399
 7062TIP3    H221144   3.532   3.884   1.510
 7063TIP3   OH221145   2.612   5.724   1.437
 7063TIP3    H121146   2.654   5.742   1.521
 7063TIP3    H221147   2.663   5.653   1.398
 7064TIP3   OH221148   0.235   3.206   2.973
 7064TIP3    H121149   0.279   3.231   2.892
 7064TIP3    H221150   0.260   3.274   3.036
 7065TIP3   OH221151   4.347   5.865   1.046
 7065TIP3    H121152   4.302   5.930   1.099
 7065TIP3    H221153   4.392   5.915   0.978
 7066TIP3   OH221154   6.487   1.694   3.930
 7066TIP3    H121155   6.422   1.708   3.999
 7066TIP3    H221156   6.454   1.620   3.880
 7067TIP3   OH221157   6.981   6.628   4.599
 7067TIP3    H121158   6.928   6.645   4.677
 7067TIP3    H221159   6.924   6.652   4.526
 7068TIP3   OH221160   4.680   1.611   2.029
 7068TIP3    H121161   4.624   1.580   2.100
 7068TIP3    H221162   4.624   1.667   1.976
 7069TIP3   OH221163   5.705   7.097   5.787
 7069TIP3    H121164   5.714   7.082   5.881
 7069TIP3    H221165   5.784   7.059   5.749
 7070TIP3   OH221166   5.347   3.262   1.862
 7070TIP3    H121167   5.364   3.169   1.847
 7070TIP3    H221168   5.350   3.301   1.775
 7071TIP3   OH221169   3.860   3.525   5.110
 7071TIP3    H121170   3.845   3.454   5.172
 7071TIP3    H221171   3.867   3.483   5.025
 7072TIP3   OH221172   4.976   3.701   2.858
 7072TIP3    H121173   4.915   3.686   2.786
 7072TIP3    H221174   5.053   3.649   2.835
 7073TIP3   OH221175   0.609   5.089   2.301
 7073TIP3    H121176   0.693   5.067   2.261
 7073TIP3    H221177   0.585   5.173   2.263
 7074TIP3   OH221178   0.646   5.181   3.242
 7074TIP3    H121179   0.628   5.087   3.243
 7074TIP3    H221180   0.563   5.222   3.264
 7075TIP3   OH221181   7.841   4.642   3.792
 7075TIP3    H121182   7.914   4.612   3.848
 7075TIP3    H221183   7.768   4.585   3.816
 7076TIP3   OH221184   0.743   2.042   2.101
 7076TIP3    H121185   0.650   2.022   2.094
 7076TIP3    H221186   0.746   2.126   2.146
 7077TIP3   OH221187   2.169   3.243   6.211
 7077TIP3    H121188   2.239   3.245   6.276
 7077TIP3    H221189   2.138   3.152   6.212
 7078TIP3   OH221190   0.231   2.512   3.963
 7078TIP3    H121191   0.264   2.435   3.917
 7078TIP3    H221192   0.164   2.478   4.023
 7079TIP3   OH221193   1.962   2.458   2.831
 7079TIP3    H121194   2.038   2.401   2.817
 7079TIP3    H221195   1.899   2.431   2.764
 7080TIP3   OH221196   1.056   6.625   4.582
 7080TIP3    H121197   1.067   6.674   4.664
 7080TIP3    H221198   1.105   6.675   4.517
 7081TIP3   OH221199   7.890   0.899   4.013
 7081TIP3    H121200   7.801   0.935   4.020
 7081TIP3    H221201   7.901   0.880   3.920
 7082TIP3   OH221202   4.722   6.317   1.567
 7082TIP3    H121203   4.768   6.305   1.651
 7082TIP3    H221204   4.667   6.394   1.581
 7083TIP3   OH221205   7.226   6.777   4.095
 7083TIP3    H121206   7.188   6.830   4.025
 7083TIP3    H221207   7.153   6.726   4.130
 7084TIP3   OH221208   8.296   3.077   3.261
 7084TIP3    H121209   8.269   2.988   3.287
 7084TIP3    H221210   8.283   3.080   3.167
 7085TIP3   OH221211   5.535   4.551   3.031
 7085TIP3    H121212   5.525   4.632   2.982
 7085TIP3    H221213   5.464   4.495   3.001
 7086TIP3   OH221214   6.069   7.661   5.866
 7086TIP3    H121215   6.023   7.674   5.949
 7086TIP3    H221216   6.127   7.737   5.859
 7087TIP3   OH221217   6.246   3.897   0.239
 7087TIP3    H121218   6.200   3.832   0.186
 7087TIP3    H221219   6.177   3.934   0.295
 7088TIP3   OH221220   3.132   1.595   5.043
 7088TIP3    H121221   3.110   1.558   4.958
 7088TIP3    H221222   3.227   1.584   5.050
 7089TIP3   OH221223   4.593   6.953   2.990
 7089TIP3    H121224   4.552   6.871   3.016
 7089TIP3    H221225   4.520   7.014   2.976
 7090TIP3   OH221226   3.320   0.866   1.921
 7090TIP3    H121227   3.333   0.941   1.980
 7090TIP3    H221228   3.397   0.811   1.933
 7091TIP3   OH221229   1.449   4.033   4.896
 7091TIP3    H121230   1.456   4.094   4.970
 7091TIP3    H221231   1.355   4.021   4.883
 7092TIP3   OH221232   1.510   6.125   3.915
 7092TIP3    H121233   1.582   6.187   3.907
 7092TIP3    H221234   1.526   6.078   3.996
 7093TIP3   OH221235   4.926   1.688   3.007
 7093TIP3    H121236   4.965   1.775   3.005
 7093TIP3    H221237   4.991   1.631   2.966
 7094TIP3   OH221238   0.424   4.796   6.615
 7094TIP3    H121239   0.367   4.844   6.556
 7094TIP3    H221240   0.433   4.709   6.575
 7095TIP3   OH221241   5.118   6.751   1.556
 7095TIP3    H121242   5.067   6.682   1.598
 7095TIP3    H221243   5.150   6.805   1.629
 7096TIP3   OH221244   1.522   3.749   4.925
 7096TIP3    H121245   1.504   3.843   4.914
 7096TIP3    H221246   1.555   3.721   4.840
 7097TIP3   OH221247   1.021   3.632   5.758
 7097TIP3    H121248   1.059   3.708   5.801
 7097TIP3    H221249   1.082   3.561   5.776
 7098TIP3   OH221250   5.666   2.274   6.193
 7098TIP3    H121251   5.587   2.267   6.140
 7098TIP3    H221252   5.737   2.250   6.133
 7099TIP3   OH221253   6.612   2.481   2.761
 7099TIP3    H121254   6.638   2.504   2.672
 7099TIP3    H221255   6.530   2.528   2.775
 7100TIP3   OH221256   7.701   4.857   1.041
 7100TIP3    H121257   7.672   4.815   1.122
 7100TIP3    H221258   7.625   4.851   0.983
 7101TIP3   OH221259   0.483   2.407   3.253
 7101TIP3    H121260   0.489   2.355   3.333
 7101TIP3    H221261   0.460   2.344   3.185
 7102TIP3   OH221262   1.299   7.629   4.842
 7102TIP3    H121263   1.262   7.602   4.757
 7102TIP3    H221264   1.368   7.691   4.819
 7103TIP3   OH221265   4.542   7.770   4.043
 7103TIP3    H121266   4.609   7.813   3.990
 7103TIP3    H221267   4.477   7.837   4.059
 7104TIP3   OH221268   3.089   6.117   3.811
 7104TIP3    H121269   3.114   6.150   3.725
 7104TIP3    H221270   3.169   6.124   3.864
 7105TIP3   OH221271   6.120   6.849   3.406
 7105TIP3    H121272   6.082   6.903   3.476
 7105TIP3    H221273   6.101   6.759   3.432
 7106TIP3   OH221274   7.508   6.053   4.198
 7106TIP3    H121275   7.560   6.000   4.138
 7106TIP3    H221276   7.517   6.142   4.165
 7107TIP3   OH221277   6.923   1.733   4.471
 7107TIP3    H121278   6.923   1.704   4.380
 7107TIP3    H221279   6.863   1.806   4.473
 7108TIP3   OH221280   0.827   4.797   2.513
 7108TIP3    H121281   0.808   4.735   2.583
 7108TIP3    H221282   0.744   4.809   2.467
 7109TIP3   OH221283   4.247   5.873   5.319
 7109TIP3    H121284   4.216   5.892   5.230
 7109TIP3    H221285   4.342   5.883   5.313
 7110TIP3   OH221286   6.474   6.165   5.756
 7110TIP3    H121287   6.442   6.252   5.777
 7110TIP3    H221288   6.558   6.180   5.711
 7111TIP3   OH221289   0.265   4.701   0.550
 7111TIP3    H121290   0.344   4.652   0.572
 7111TIP3    H221291   0.194   4.637   0.555
 7112TIP3   OH221292   7.220   2.561   0.266
 7112TIP3    H121293   7.313   2.550   0.246
 7112TIP3    H221294   7.209   2.517   0.351
 7113TIP3   OH221295   2.393   6.182   0.454
 7113TIP3    H121296   2.453   6.145   0.519
 7113TIP3    H221297   2.371   6.268   0.489
 7114TIP3   OH221298   0.097   3.974   0.702
 7114TIP3    H121299   0.125   4.043   0.642
 7114TIP3    H221300   0.003   3.966   0.686
 7115TIP3   OH221301   6.106   4.636   2.620
 7115TIP3    H121302   6.040   4.702   2.602
 7115TIP3    H221303   6.119   4.641   2.715
 7116TIP3   OH221304   7.139   2.140   1.096
 7116TIP3    H121305   7.062   2.135   1.154
 7116TIP3    H221306   7.214   2.129   1.155
 7117TIP3   OH221307   5.622   6.137   2.907
 7117TIP3    H121308   5.537   6.179   2.920
 7117TIP3    H221309   5.603   6.044   2.910
 7118TIP3   OH221310   2.548   3.567   5.908
 7118TIP3    H121311   2.613   3.513   5.863
 7118TIP3    H221312   2.579   3.572   5.998
 7119TIP3   OH221313   4.145   1.618   2.911
 7119TIP3    H121314   4.125   1.525   2.916
 7119TIP3    H221315   4.192   1.627   2.827
 7120TIP3   OH221316   0.275   5.041   2.671
 7120TIP3    H121317   0.310   5.130   2.680
 7120TIP3    H221318   0.348   4.984   2.697
 7121TIP3   OH221319   7.134   2.794   2.920
 7121TIP3    H121320   7.226   2.769   2.932
 7121TIP3    H221321   7.112   2.844   2.998
 7122TIP3   OH221322   2.558   5.178   6.126
 7122TIP3    H121323   2.528   5.163   6.216
 7122TIP3    H221324   2.507   5.254   6.097
 7123TIP3   OH221325   1.394   0.211   6.529
 7123TIP3    H121326   1.333   0.274   6.492
 7123TIP3    H221327   1.475   0.260   6.543
 7124TIP3   OH221328   4.942   5.097   4.685
 7124TIP3    H121329   4.952   5.158   4.757
 7124TIP3    H221330   4.864   5.128   4.639
 7125TIP3   OH221331   4.488   6.076   5.646
 7125TIP3    H121332   4.568   6.106   5.688
 7125TIP3    H221333   4.429   6.056   5.719
 7126TIP3   OH221334   1.342   3.680   6.581
 7126TIP3    H121335   1.382   3.682   6.667
 7126TIP3    H221336   1.414   3.692   6.520
 7127TIP3   OH221337   4.914   7.696   6.752
 7127TIP3    H121338   5.001   7.705   6.792
 7127TIP3    H221339   4.882   7.786   6.746
 7128TIP3   OH221340   3.734   1.767   6.413
 7128TIP3    H121341   3.745   1.828   6.340
 7128TIP3    H221342   3.813   1.779   6.466
 7129TIP3   OH221343   7.368   3.589   5.740
 7129TIP3    H121344   7.425   3.651   5.695
 7129TIP3    H221345   7.280   3.623   5.725
 7130TIP3   OH221346   3.737   5.822   1.915
 7130TIP3    H121347   3.726   5.728   1.900
 7130TIP3    H221348   3.820   5.829   1.963
 7131TIP3   OH221349   3.062   7.080   0.479
 7131TIP3    H121350   3.030   7.028   0.405
 7131TIP3    H221351   3.118   7.019   0.528
 7132TIP3   OH221352   4.049   5.527   1.345
 7132TIP3    H121353   4.056   5.586   1.270
 7132TIP3    H221354   4.132   5.536   1.390
 7133TIP3   OH221355   3.490   5.260   5.998
 7133TIP3    H121356   3.482   5.355   6.008
 7133TIP3    H221357   3.515   5.228   6.085
 7134TIP3   OH221358   1.590   4.921   5.431
 7134TIP3    H121359   1.529   4.883   5.368
 7134TIP3    H221360   1.563   5.013   5.436
 7135TIP3   OH221361   5.097   3.079   1.591
 7135TIP3    H121362   5.127   2.988   1.604
 7135TIP3    H221363   5.003   3.071   1.576
 7136TIP3   OH221364   4.027   2.888   5.256
 7136TIP3    H121365   4.082   2.825   5.302
 7136TIP3    H221366   3.943   2.884   5.302
 7137TIP3   OH221367   4.249   4.695   2.746
 7137TIP3    H121368   4.317   4.631   2.726
 7137TIP3    H221369   4.281   4.777   2.708
 7138TIP3   OH221370   6.096   7.350   5.274
 7138TIP3    H121371   6.023   7.291   5.252
 7138TIP3    H221372   6.120   7.390   5.191
 7139TIP3   OH221373   6.836   5.317   3.477
 7139TIP3    H121374   6.895   5.243   3.486
 7139TIP3    H221375   6.883   5.379   3.421
 7140TIP3   OH221376   2.440   5.533   0.802
 7140TIP3    H121377   2.365   5.501   0.853
 7140TIP3    H221378   2.455   5.464   0.737
 7141TIP3   OH221379   5.308   1.348   1.439
 7141TIP3    H121380   5.369   1.342   1.365
 7141TIP3    H221381   5.360   1.322   1.515
 7142TIP3   OH221382   0.990   3.439   4.187
 7142TIP3    H121383   0.934   3.400   4.254
 7142TIP3    H221384   0.983   3.534   4.202
 7143TIP3   OH221385   5.115   3.626   3.673
 7143TIP3    H121386   5.150   3.663   3.593
 7143TIP3    H221387   5.029   3.591   3.648
 7144TIP3   OH221388   7.955   4.086   2.330
 7144TIP3    H121389   7.940   3.997   2.363
 7144TIP3    H221390   7.943   4.078   2.235
 7145TIP3   OH221391   5.864   7.293   4.929
 7145TIP3    H121392   5.950   7.333   4.915
 7145TIP3    H221393   5.834   7.268   4.842
 7146TIP3   OH221394   8.139   1.670   2.908
 7146TIP3    H121395   8.163   1.638   2.822
 7146TIP3    H221396   8.126   1.591   2.961
 7147TIP3   OH221397   7.086   1.526   0.188
 7147TIP3    H121398   7.114   1.566   0.106
 7147TIP3    H221399   6.991   1.534   0.188
 7148TIP3   OH221400   4.650   6.932   3.953
 7148TIP3    H121401   4.590   6.885   3.895
 7148TIP3    H221402   4.636   6.891   4.039
 7149TIP3   OH221403   6.823   5.759   6.360
 7149TIP3    H121404   6.788   5.672   6.379
 7149TIP3    H221405   6.816   5.767   6.265
 7150TIP3   OH221406   3.968   1.399   2.471
 7150TIP3    H121407   4.005   1.333   2.413
 7150TIP3    H221408   3.963   1.356   2.557
 7151TIP3   OH221409   5.853   0.964   2.033
 7151TIP3    H121410   5.930   0.919   1.997
 7151TIP3    H221411   5.845   0.930   2.122
 7152TIP3   OH221412   4.746   0.769   6.557
 7152TIP3    H121413   4.802   0.837   6.522
 7152TIP3    H221414   4.695   0.813   6.625
 7153TIP3   OH221415   3.446   6.638   1.750
 7153TIP3    H121416   3.382   6.631   1.680
 7153TIP3    H221417   3.437   6.556   1.799
 7154TIP3   OH221418   4.078   4.676   2.512
 7154TIP3    H121419   4.124   4.707   2.590
 7154TIP3    H221420   4.047   4.589   2.537
 7155TIP3   OH221421   2.173   0.233   0.383
 7155TIP3    H121422   2.230   0.189   0.446
 7155TIP3    H221423   2.209   0.321   0.374
 7156TIP3   OH221424   0.598   6.471   0.114
 7156TIP3    H121425   0.577   6.542   0.174
 7156TIP3    H221426   0.576   6.391   0.162
 7157TIP3   OH221427   3.705   2.852   1.177
 7157TIP3    H121428   3.698   2.819   1.087
 7157TIP3    H221429   3.624   2.902   1.191
 7158TIP3   OH221430   5.174   6.295   0.723
 7158TIP3    H121431   5.093   6.341   0.704
 7158TIP3    H221432   5.158   6.205   0.692
 7159TIP3   OH221433   7.111   2.579   3.258
 7159TIP3    H121434   7.033   2.581   3.204
 7159TIP3    H221435   7.131   2.671   3.276
 7160TIP3   OH221436   5.522   2.063   5.383
 7160TIP3    H121437   5.490   2.004   5.314
 7160TIP3    H221438   5.601   2.102   5.346
 7161TIP3   OH221439   6.729   2.694   3.609
 7161TIP3    H121440   6.709   2.609   3.570
 7161TIP3    H221441   6.800   2.677   3.671
 7162TIP3   OH221442   3.031   6.923   5.605
 7162TIP3    H121443   3.015   6.947   5.696
 7162TIP3    H221444   3.084   6.995   5.570
 7163TIP3   OH221445   5.800   6.123   5.992
 7163TIP3    H121446   5.810   6.173   5.910
 7163TIP3    H221447   5.708   6.098   5.993
 7164TIP3   OH221448   7.057   5.085   0.827
 7164TIP3    H121449   6.975   5.076   0.876
 7164TIP3    H221450   7.119   5.119   0.892
 7165TIP3   OH221451   1.492   5.680   2.720
 7165TIP3    H121452   1.414   5.723   2.754
 7165TIP3    H221453   1.527   5.632   2.795
 7166TIP3   OH221454   0.851   5.179   1.419
 7166TIP3    H121455   0.896   5.103   1.454
 7166TIP3    H221456   0.915   5.250   1.423
 7167TIP3   OH221457   3.547   0.578   4.379
 7167TIP3    H121458   3.499   0.561   4.460
 7167TIP3    H221459   3.639   0.563   4.402
 7168TIP3   OH221460   7.995   0.327   0.210
 7168TIP3    H121461   7.968   0.417   0.189
 7168TIP3    H221462   8.084   0.321   0.176
 7169TIP3   OH221463   0.614   2.877   4.316
 7169TIP3    H121464   0.588   2.797   4.362
 7169TIP3    H221465   0.706   2.864   4.295
 7170TIP3   OH221466   6.841   6.409   2.648
 7170TIP3    H121467   6.754   6.378   2.622
 7170TIP3    H221468   6.823   6.487   2.701
 7171TIP3   OH221469   8.025   0.661   5.667
 7171TIP3    H121470   8.022   0.756   5.666
 7171TIP3    H221471   8.074   0.639   5.746
 7172TIP3   OH221472   7.735   2.678   5.903
 7172TIP3    H121473   7.665   2.742   5.889
 7172TIP3    H221474   7.786   2.680   5.822
 7173TIP3   OH221475   8.088   1.023   5.732
 7173TIP3    H121476   8.134   0.952   5.687
 7173TIP3    H221477   8.105   1.100   5.679
 7174TIP3   OH221478   6.401   6.243   4.352
 7174TIP3    H121479   6.417   6.316   4.412
 7174TIP3    H221480   6.442   6.270   4.270
 7175TIP3   OH221481   6.745   0.670   4.479
 7175TIP3    H121482   6.826   0.697   4.438
 7175TIP3    H221483   6.763   0.582   4.513
 7176TIP3   OH221484   5.541   2.927   3.796
 7176TIP3    H121485   5.561   2.842   3.756
 7176TIP3    H221486   5.446   2.929   3.802
 7177TIP3   OH221487   1.028   1.452   1.969
 7177TIP3    H121488   1.113   1.441   1.927
 7177TIP3    H221489   1.044   1.516   2.039
 7178TIP3   OH221490   0.140   6.025   3.437
 7178TIP3    H121491   0.100   6.003   3.353
 7178TIP3    H221492   0.095   6.104   3.466
 7179TIP3   OH221493   8.053   1.268   1.642
 7179TIP3    H121494   8.110   1.310   1.707
 7179TIP3    H221495   8.002   1.340   1.605
 7180TIP3   OH221496   0.506   1.384   4.209
 7180TIP3    H121497   0.506   1.351   4.299
 7180TIP3    H221498   0.566   1.326   4.162
 7181TIP3   OH221499   2.414   5.407   6.031
 7181TIP3    H121500   2.404   5.496   6.065
 7181TIP3    H221501   2.447   5.419   5.942
 7182TIP3   OH221502   7.971   5.721   3.759
 7182TIP3    H121503   8.040   5.737   3.695
 7182TIP3    H221504   7.952   5.628   3.753
 7183TIP3   OH221505   4.497   6.786   6.117
 7183TIP3    H121506   4.552   6.821   6.047
 7183TIP3    H221507   4.475   6.861   6.171
 7184TIP3   OH221508   0.715   4.936   3.419
 7184TIP3    H121509   0.808   4.959   3.423
 7184TIP3    H221510   0.671   5.005   3.468
 7185TIP3   OH221511   6.842   6.029   4.718
 7185TIP3    H121512   6.797   6.063   4.640
 7185TIP3    H221513   6.909   6.094   4.738
 7186TIP3   OH221514   6.168   4.509   1.497
 7186TIP3    H121515   6.184   4.435   1.438
 7186TIP3    H221516   6.185   4.587   1.443
 7187TIP3   OH221517   7.985   2.251   6.414
 7187TIP3    H121518   7.959   2.165   6.380
 7187TIP3    H221519   7.974   2.309   6.339
 7188TIP3   OH221520   3.440   2.856   3.431
 7188TIP3    H121521   3.421   2.950   3.431
 7188TIP3    H221522   3.355   2.815   3.449
 7189TIP3   OH221523   4.008   6.073   2.174
 7189TIP3    H121524   3.969   6.125   2.244
 7189TIP3    H221525   3.949   6.085   2.100
 7190TIP3   OH221526   2.667   4.900   3.466
 7190TIP3    H121527   2.636   4.938   3.548
 7190TIP3    H221528   2.747   4.948   3.446
 7191TIP3   OH221529   6.136   4.899   5.726
 7191TIP3    H121530   6.151   4.825   5.785
 7191TIP3    H221531   6.082   4.960   5.778
 7192TIP3   OH221532   3.874   5.259   0.186
 7192TIP3    H121533   3.817   5.240   0.260
 7192TIP3    H221534   3.950   5.303   0.226
 7193TIP3   OH221535   3.202   0.486   5.989
 7193TIP3    H121536   3.189   0.570   6.033
 7193TIP3    H221537   3.268   0.504   5.922
 7194TIP3   OH221538   2.970   0.873   2.514
 7194TIP3    H121539   2.970   0.794   2.460
 7194TIP3    H221540   3.010   0.846   2.596
 7195TIP3   OH221541   4.933   6.156   4.766
 7195TIP3    H121542   4.875   6.086   4.736
 7195TIP3    H221543   4.943   6.140   4.860
 7196TIP3   OH221544   4.855   4.663   5.789
 7196TIP3    H121545   4.862   4.592   5.725
 7196TIP3    H221546   4.797   4.628   5.856
 7197TIP3   OH221547   7.279   7.490   5.873
 7197TIP3    H121548   7.245   7.420   5.929
 7197TIP3    H221549   7.369   7.464   5.856
 7198TIP3   OH221550   3.339   5.387   6.734
 7198TIP3    H121551   3.352   5.311   6.678
 7198TIP3    H221552   3.367   5.358   6.821
 7199TIP3   OH221553   1.193   3.074   0.504
 7199TIP3    H121554   1.272   3.087   0.451
 7199TIP3    H221555   1.169   3.162   0.532
 7200TIP3   OH221556   2.252   5.996   5.455
 7200TIP3    H121557   2.316   5.988   5.384
 7200TIP3    H221558   2.167   5.994   5.411
 7201TIP3   OH221559   7.235   2.485   4.545
 7201TIP3    H121560   7.140   2.480   4.532
 7201TIP3    H221561   7.272   2.433   4.474
 7202TIP3   OH221562   7.948   0.728   1.879
 7202TIP3    H121563   7.883   0.795   1.856
 7202TIP3    H221564   7.896   0.656   1.914
 7203TIP3   OH221565   6.356   5.158   5.825
 7203TIP3    H121566   6.286   5.168   5.760
 7203TIP3    H221567   6.311   5.129   5.904
 7204TIP3   OH221568   1.713   2.863   0.284
 7204TIP3    H121569   1.720   2.851   0.379
 7204TIP3    H221570   1.800   2.842   0.251
 7205TIP3   OH221571   6.961   1.192   5.931
 7205TIP3    H121572   7.029   1.129   5.955
 7205TIP3    H221573   6.915   1.151   5.858
 7206TIP3   OH221574   5.811   6.595   0.606
 7206TIP3    H121575   5.886   6.537   0.618
 7206TIP3    H221576   5.823   6.632   0.518
 7207TIP3   OH221577   4.347   1.972   4.493
 7207TIP3    H121578   4.392   1.900   4.536
 7207TIP3    H221579   4.292   2.010   4.562
 7208TIP3   OH221580   5.291   3.781   0.043
 7208TIP3    H121581   5.361   3.720   0.018
 7208TIP3    H221582   5.295   3.849  -0.025
 7209TIP3   OH221583   5.690   4.403   1.970
 7209TIP3    H121584   5.594   4.405   1.969
 7209TIP3    H221585   5.716   4.449   1.891
 7210TIP3   OH221586   0.534   0.631   3.792
 7210TIP3    H121587   0.607   0.633   3.729
 7210TIP3    H221588   0.507   0.722   3.800
 7211TIP3   OH221589   0.062   1.136   0.447
 7211TIP3    H121590   0.074   1.166   0.356
 7211TIP3    H221591   0.029   1.046   0.438
 7212TIP3   OH221592   6.927   7.544   4.971
 7212TIP3    H121593   6.996   7.479   4.955
 7212TIP3    H221594   6.856   7.518   4.912
 7213TIP3   OH221595   6.658   4.148   3.235
 7213TIP3    H121596   6.693   4.067   3.272
 7213TIP3    H221597   6.618   4.194   3.309
 7214TIP3   OH221598   5.516   2.524   1.394
 7214TIP3    H121599   5.574   2.486   1.461
 7214TIP3    H221600   5.428   2.500   1.422
 7215TIP3   OH221601   6.204   6.919   6.186
 7215TIP3    H121602   6.279   6.859   6.188
 7215TIP3    H221603   6.140   6.875   6.131
 7216TIP3   OH221604   5.242   1.805   1.632
 7216TIP3    H121605   5.241   1.889   1.586
 7216TIP3    H221606   5.251   1.739   1.562
 7217TIP3   OH221607   2.061   2.071   0.259
 7217TIP3    H121608   2.069   1.980   0.230
 7217TIP3    H221609   2.148   2.108   0.246
 7218TIP3   OH221610   5.172   1.407   6.097
 7218TIP3    H121611   5.098   1.435   6.152
 7218TIP3    H221612   5.234   1.480   6.101
 7219TIP3   OH221613   2.008   1.765   1.135
 7219TIP3    H121614   1.998   1.859   1.150
 7219TIP3    H221615   2.102   1.749   1.144
 7220TIP3   OH221616   5.500   3.341   2.575
 7220TIP3    H121617   5.527   3.271   2.515
 7220TIP3    H221618   5.448   3.399   2.520
 7221TIP3   OH221619   7.976   5.935   4.704
 7221TIP3    H121620   7.923   6.012   4.729
 7221TIP3    H221621   7.911   5.871   4.676
 7222TIP3   OH221622   7.125   4.064   2.868
 7222TIP3    H121623   7.035   4.037   2.886
 7222TIP3    H221624   7.178   4.014   2.929
 7223TIP3   OH221625   1.141   3.183   5.880
 7223TIP3    H121626   1.219   3.178   5.936
 7223TIP3    H221627   1.101   3.096   5.886
 7224TIP3   OH221628   5.026   1.934   3.324
 7224TIP3    H121629   5.110   1.951   3.366
 7224TIP3    H221630   5.045   1.933   3.230
 7225TIP3   OH221631   4.186   7.819   1.574
 7225TIP3    H121632   4.104   7.865   1.563
 7225TIP3    H221633   4.195   7.807   1.669
 7226TIP3   OH221634   6.810   2.672   2.336
 7226TIP3    H121635   6.797   2.765   2.317
 7226TIP3    H221636   6.901   2.655   2.310
 7227TIP3   OH221637   5.177   5.110   4.567
 7227TIP3    H121638   5.097   5.090   4.616
 7227TIP3    H221639   5.248   5.077   4.622
 7228TIP3   OH221640   1.357   4.102   0.645
 7228TIP3    H121641   1.450   4.080   0.637
 7228TIP3    H221642   1.346   4.182   0.593
 7229TIP3   OH221643   3.605   2.767   3.909
 7229TIP3    H121644   3.537   2.735   3.849
 7229TIP3    H221645   3.626   2.691   3.964
 7230TIP3   OH221646   0.134   4.505   4.645
 7230TIP3    H121647   0.209   4.501   4.586
 7230TIP3    H221648   0.099   4.416   4.646
 7231TIP3   OH221649   2.519   1.793   4.277
 7231TIP3    H121650   2.598   1.758   4.318
 7231TIP3    H221651   2.525   1.767   4.186
 7232TIP3   OH221652   3.100   4.239   6.381
 7232TIP3    H121653   3.026   4.218   6.438
 7232TIP3    H221654   3.177   4.211   6.430
 7233TIP3   OH221655   7.621   0.242   3.380
 7233TIP3    H121656   7.609   0.147   3.374
 7233TIP3    H221657   7.677   0.254   3.457
 7234TIP3   OH221658   1.002   0.110   1.458
 7234TIP3    H121659   0.949   0.189   1.462
 7234TIP3    H221660   1.066   0.120   1.528
 7235TIP3   OH221661   1.042   0.391   0.706
 7235TIP3    H121662   0.950   0.392   0.732
 7235TIP3    H221663   1.040   0.386   0.610
 7236TIP3   OH221664   4.107   1.448   0.350
 7236TIP3    H121665   4.175   1.480   0.291
 7236TIP3    H221666   4.091   1.521   0.410
 7237TIP3   OH221667   6.106   6.318   1.843
 7237TIP3    H121668   6.040   6.314   1.774
 7237TIP3    H221669   6.108   6.230   1.881
 7238TIP3   OH221670   4.176   4.538   4.321
 7238TIP3    H121671   4.116   4.549   4.248
 7238TIP3    H221672   4.197   4.627   4.349
 7239TIP3   OH221673   2.747   6.169   1.962
 7239TIP3    H121674   2.812   6.227   1.923
 7239TIP3    H221675   2.797   6.110   2.018
 7240TIP3   OH221676   7.054   3.472   5.693
 7240TIP3    H121677   6.993   3.534   5.652
 7240TIP3    H221678   7.102   3.434   5.619
 7241TIP3   OH221679   3.968   7.182   2.670
 7241TIP3    H121680   3.897   7.163   2.731
 7241TIP3    H221681   3.974   7.104   2.615
 7242TIP3   OH221682   0.214   6.697   4.419
 7242TIP3    H121683   0.200   6.761   4.489
 7242TIP3    H221684   0.249   6.620   4.464
 7243TIP3   OH221685   8.116   2.388   3.102
 7243TIP3    H121686   8.139   2.300   3.069
 7243TIP3    H221687   8.199   2.425   3.130
 7244TIP3   OH221688   6.954   6.087   2.279
 7244TIP3    H121689   7.033   6.138   2.260
 7244TIP3    H221690   6.974   5.999   2.248
 7245TIP3   OH221691   4.093   0.387   0.098
 7245TIP3    H121692   4.061   0.323   0.162
 7245TIP3    H221693   4.183   0.360   0.080
 7246TIP3   OH221694   3.642   6.003   2.411
 7246TIP3    H121695   3.617   5.976   2.323
 7246TIP3    H221696   3.723   6.053   2.398
 7247TIP3   OH221697   4.485   7.740   1.489
 7247TIP3    H121698   4.392   7.753   1.504
 7247TIP3    H221699   4.491   7.658   1.441
 7248TIP3   OH221700   5.123   4.243   1.828
 7248TIP3    H121701   5.204   4.220   1.874
 7248TIP3    H221702   5.116   4.177   1.758
 7249TIP3   OH221703   2.410   7.128   0.303
 7249TIP3    H121704   2.405   7.152   0.396
 7249TIP3    H221705   2.326   7.088   0.283
 7250TIP3   OH221706   0.365   5.088   5.910
 7250TIP3    H121707   0.282   5.101   5.956
 7250TIP3    H221708   0.381   5.170   5.865
 7251TIP3   OH221709   1.435   0.396   3.217
 7251TIP3    H121710   1.499   0.462   3.245
 7251TIP3    H221711   1.415   0.418   3.126
 7252TIP3   OH221712   0.385   3.391   5.806
 7252TIP3    H121713   0.388   3.296   5.815
 7252TIP3    H221714   0.302   3.408   5.761
 7253TIP3   OH221715   0.566   5.660   5.423
 7253TIP3    H121716   0.596   5.578   5.382
 7253TIP3    H221717   0.549   5.718   5.349
 7254TIP3   OH221718   3.448   2.340   0.960
 7254TIP3    H121719   3.362   2.299   0.953
 7254TIP3    H221720   3.503   2.291   0.898
 7255TIP3   OH221721   1.490   4.717   2.177
 7255TIP3    H121722   1.459   4.639   2.222
 7255TIP3    H221723   1.418   4.744   2.121
 7256TIP3   OH221724   3.564   5.338   3.024
 7256TIP3    H121725   3.640   5.393   3.043
 7256TIP3    H221726   3.596   5.248   3.033
 7257TIP3   OH221727   2.450   0.253   0.904
 7257TIP3    H121728   2.478   0.339   0.872
 7257TIP3    H221729   2.407   0.213   0.828
 7258TIP3   OH221730   1.297   6.350   3.947
 7258TIP3    H121731   1.352   6.281   3.909
 7258TIP3    H221732   1.316   6.428   3.895
 7259TIP3   OH221733   5.818   4.198   4.784
 7259TIP3    H121734   5.852   4.286   4.798
 7259TIP3    H221735   5.875   4.161   4.715
 7260TIP3   OH221736   5.720   1.254   1.376
 7260TIP3    H121737   5.768   1.210   1.446
 7260TIP3    H221738   5.651   1.303   1.422
 7261TIP3   OH221739   1.664   4.771   4.282
 7261TIP3    H121740   1.597   4.703   4.290
 7261TIP3    H221741   1.741   4.725   4.248
 7262TIP3   OH221742   4.125   4.213   1.643
 7262TIP3    H121743   4.078   4.245   1.720
 7262TIP3    H221744   4.214   4.198   1.674
 7263TIP3   OH221745   6.462   6.291   3.294
 7263TIP3    H121746   6.456   6.296   3.389
 7263TIP3    H221747   6.375   6.317   3.263
 7264TIP3   OH221748   6.680   2.157   0.916
 7264TIP3    H121749   6.665   2.249   0.939
 7264TIP3    H221750   6.612   2.137   0.852
 7265TIP3   OH221751   7.775   0.613   0.775
 7265TIP3    H121752   7.683   0.639   0.775
 7265TIP3    H221753   7.814   0.662   0.702
 7266TIP3   OH221754   3.687   5.838   4.701
 7266TIP3    H121755   3.724   5.924   4.720
 7266TIP3    H221756   3.734   5.807   4.624
 7267TIP3   OH221757   8.110   1.977   5.691
 7267TIP3    H121758   8.124   1.929   5.773
 7267TIP3    H221759   8.193   2.022   5.674
 7268TIP3   OH221760   6.387   6.168   0.336
 7268TIP3    H121761   6.482   6.168   0.329
 7268TIP3    H221762   6.356   6.131   0.254
 7269TIP3   OH221763   5.249   2.663   1.840
 7269TIP3    H121764   5.313   2.732   1.824
 7269TIP3    H221765   5.270   2.595   1.775
 7270TIP3   OH221766   1.406   6.902   1.038
 7270TIP3    H121767   1.346   6.840   1.080
 7270TIP3    H221768   1.491   6.884   1.079
 7271TIP3   OH221769   1.553   4.021   4.642
 7271TIP3    H121770   1.525   4.031   4.733
 7271TIP3    H221771   1.472   4.008   4.593
 7272TIP3   OH221772   5.869   3.721   6.568
 7272TIP3    H121773   5.953   3.690   6.537
 7272TIP3    H221774   5.834   3.774   6.496
 7273TIP3   OH221775   4.964   5.340   1.883
 7273TIP3    H121776   4.944   5.417   1.936
 7273TIP3    H221777   4.879   5.308   1.854
 7274TIP3   OH221778   4.788   1.466   2.897
 7274TIP3    H121779   4.838   1.482   2.817
 7274TIP3    H221780   4.832   1.520   2.963
 7275TIP3   OH221781   6.073   3.654   1.545
 7275TIP3    H121782   6.050   3.597   1.618
 7275TIP3    H221783   6.000   3.647   1.484
 7276TIP3   OH221784   5.132   2.389   3.685
 7276TIP3    H121785   5.110   2.409   3.776
 7276TIP3    H221786   5.062   2.430   3.634
 7277TIP3   OH221787   3.043   1.647   2.363
 7277TIP3    H121788   3.081   1.561   2.374
 7277TIP3    H221789   3.117   1.704   2.340
 7278TIP3   OH221790   3.724   2.625   2.196
 7278TIP3    H121791   3.740   2.594   2.107
 7278TIP3    H221792   3.761   2.557   2.252
 7279TIP3   OH221793   1.517   6.294   2.832
 7279TIP3    H121794   1.499   6.338   2.748
 7279TIP3    H221795   1.610   6.271   2.827
 7280TIP3   OH221796   1.260   5.644   1.022
 7280TIP3    H121797   1.213   5.586   0.962
 7280TIP3    H221798   1.240   5.610   1.109
 7281TIP3   OH221799   4.672   6.212   5.365
 7281TIP3    H121800   4.592   6.191   5.316
 7281TIP3    H221801   4.662   6.166   5.448
 7282TIP3   OH221802   7.229   3.164   0.363
 7282TIP3    H121803   7.308   3.177   0.310
 7282TIP3    H221804   7.167   3.122   0.303
 7283TIP3   OH221805   4.280   6.169   0.697
 7283TIP3    H121806   4.250   6.250   0.740
 7283TIP3    H221807   4.271   6.187   0.603
 7284TIP3   OH221808   5.258   6.394   2.461
 7284TIP3    H121809   5.349   6.366   2.471
 7284TIP3    H221810   5.233   6.362   2.374
 7285TIP3   OH221811   5.974   4.734   0.844
 7285TIP3    H121812   5.978   4.671   0.772
 7285TIP3    H221813   5.905   4.795   0.818
 7286TIP3   OH221814   5.893   1.280   3.722
 7286TIP3    H121815   5.847   1.202   3.752
 7286TIP3    H221816   5.825   1.346   3.712
 7287TIP3   OH221817   1.974   2.143   3.991
 7287TIP3    H121818   2.022   2.214   3.946
 7287TIP3    H221819   1.891   2.184   4.018
 7288TIP3   OH221820   4.168   1.530   1.394
 7288TIP3    H121821   4.152   1.544   1.487
 7288TIP3    H221822   4.179   1.436   1.384
 7289TIP3   OH221823   0.119   2.669   1.598
 7289TIP3    H121824   0.066   2.590   1.597
 7289TIP3    H221825   0.172   2.662   1.677
 7290TIP3   OH221826   3.815   5.360   5.301
 7290TIP3    H121827   3.734   5.357   5.249
 7290TIP3    H221828   3.885   5.345   5.238
 7291TIP3   OH221829   7.072   3.417   3.886
 7291TIP3    H121830   7.165   3.440   3.887
 7291TIP3    H221831   7.032   3.481   3.829
 7292TIP3   OH221832   6.728   5.064   0.980
 7292TIP3    H121833   6.714   5.131   0.914
 7292TIP3    H221834   6.710   4.982   0.934
 7293TIP3   OH221835   5.400   1.496   0.934
 7293TIP3    H121836   5.400   1.534   0.846
 7293TIP3    H221837   5.424   1.405   0.921
 7294TIP3   OH221838   1.598   1.654   3.674
 7294TIP3    H121839   1.524   1.712   3.687
 7294TIP3    H221840   1.595   1.630   3.582
 7295TIP3   OH221841   6.711   0.730   0.684
 7295TIP3    H121842   6.700   0.727   0.780
 7295TIP3    H221843   6.653   0.799   0.655
 7296TIP3   OH221844   2.839   7.303   3.862
 7296TIP3    H121845   2.783   7.380   3.874
 7296TIP3    H221846   2.878   7.315   3.776
 7297TIP3   OH221847   5.807   4.897   6.352
 7297TIP3    H121848   5.761   4.888   6.269
 7297TIP3    H221849   5.766   4.833   6.410
 7298TIP3   OH221850   3.095   2.926   5.346
 7298TIP3    H121851   3.167   2.868   5.323
 7298TIP3    H221852   3.137   3.002   5.385
 7299TIP3   OH221853   4.914   1.631   1.682
 7299TIP3    H121854   4.944   1.540   1.694
 7299TIP3    H221855   4.972   1.683   1.739
 7300TIP3   OH221856   3.838   6.969   1.717
 7300TIP3    H121857   3.863   7.057   1.687
 7300TIP3    H221858   3.815   6.980   1.809
 7301TIP3   OH221859   4.860   1.287   4.198
 7301TIP3    H121860   4.808   1.229   4.142
 7301TIP3    H221861   4.796   1.345   4.238
 7302TIP3   OH221862   6.356   1.480   3.859
 7302TIP3    H121863   6.398   1.395   3.850
 7302TIP3    H221864   6.296   1.469   3.933
 7303TIP3   OH221865   3.007   3.426   4.597
 7303TIP3    H121866   3.096   3.405   4.568
 7303TIP3    H221867   2.982   3.502   4.544
 7304TIP3   OH221868   3.355   0.327   5.213
 7304TIP3    H121869   3.402   0.409   5.203
 7304TIP3    H221870   3.283   0.332   5.150
 7305TIP3   OH221871   1.302   6.298   2.186
 7305TIP3    H121872   1.330   6.337   2.102
 7305TIP3    H221873   1.208   6.311   2.189
 7306TIP3   OH221874   2.590   0.272   2.464
 7306TIP3    H121875   2.544   0.356   2.468
 7306TIP3    H221876   2.530   0.210   2.505
 7307TIP3   OH221877   5.936   1.782   1.318
 7307TIP3    H121878   5.898   1.840   1.252
 7307TIP3    H221879   5.907   1.694   1.292
 7308TIP3   OH221880   2.347   3.346   5.841
 7308TIP3    H121881   2.360   3.262   5.796
 7308TIP3    H221882   2.404   3.407   5.795
 7309TIP3   OH221883   5.333   5.671   6.140
 7309TIP3    H121884   5.410   5.652   6.194
 7309TIP3    H221885   5.259   5.656   6.198
 7310TIP3   OH221886   3.074   6.092   1.701
 7310TIP3    H121887   3.012   6.038   1.750
 7310TIP3    H221888   3.021   6.134   1.633
 7311TIP3   OH221889   4.620   5.996   2.810
 7311TIP3    H121890   4.586   6.067   2.864
 7311TIP3    H221891   4.665   6.040   2.738
 7312TIP3   OH221892   1.757   5.856   5.682
 7312TIP3    H121893   1.822   5.819   5.742
 7312TIP3    H221894   1.808   5.886   5.607
 7313TIP3   OH221895   1.851   7.544   6.360
 7313TIP3    H121896   1.886   7.621   6.315
 7313TIP3    H221897   1.879   7.470   6.306
 7314TIP3   OH221898   0.390   7.488   6.523
 7314TIP3    H121899   0.370   7.397   6.502
 7314TIP3    H221900   0.351   7.539   6.452
 7315TIP3   OH221901   1.929   3.940   2.540
 7315TIP3    H121902   1.948   4.033   2.551
 7315TIP3    H221903   2.011   3.902   2.508
 7316TIP3   OH221904   1.914   4.954   3.146
 7316TIP3    H121905   1.848   5.023   3.141
 7316TIP3    H221906   1.979   4.987   3.208
 7317TIP3   OH221907   7.296   0.463   3.891
 7317TIP3    H121908   7.367   0.427   3.944
 7317TIP3    H221909   7.321   0.444   3.801
 7318TIP3   OH221910   5.177   2.901   4.480
 7318TIP3    H121911   5.145   2.981   4.521
 7318TIP3    H221912   5.265   2.888   4.518
 7319TIP3   OH221913   4.759   2.904   5.239
 7319TIP3    H121914   4.837   2.935   5.284
 7319TIP3    H221915   4.768   2.937   5.149
 7320TIP3   OH221916   8.296   0.809   2.905
 7320TIP3    H121917   8.356   0.773   2.970
 7320TIP3    H221918   8.223   0.747   2.902
 7321TIP3   OH221919   4.544   0.025   6.136
 7321TIP3    H121920   4.493  -0.046   6.097
 7321TIP3    H221921   4.505   0.040   6.222
 7322TIP3   OH221922   3.878   7.032   3.241
 7322TIP3    H121923   3.875   7.004   3.333
 7322TIP3    H221924   3.792   7.073   3.226
 7323TIP3   OH221925   6.562   7.268   5.301
 7323TIP3    H121926   6.542   7.270   5.207
 7323TIP3    H221927   6.652   7.301   5.306
 7324TIP3   OH221928   4.399   0.429   3.366
 7324TIP3    H121929   4.382   0.470   3.281
 7324TIP3    H221930   4.485   0.389   3.357
 7325TIP3   OH221931   7.365   2.302   1.367
 7325TIP3    H121932   7.317   2.254   1.434
 7325TIP3    H221933   7.383   2.236   1.299
 7326TIP3   OH221934   6.794   1.380   5.637
 7326TIP3    H121935   6.888   1.387   5.618
 7326TIP3    H221936   6.751   1.413   5.559
 7327TIP3   OH221937   7.068   2.144   3.944
 7327TIP3    H121938   7.125   2.220   3.935
 7327TIP3    H221939   7.112   2.088   4.008
 7328TIP3   OH221940   2.710   3.712   1.798
 7328TIP3    H121941   2.699   3.784   1.735
 7328TIP3    H221942   2.801   3.721   1.828
 7329TIP3   OH221943   1.399   6.504   2.021
 7329TIP3    H121944   1.387   6.477   1.930
 7329TIP3    H221945   1.474   6.564   2.018
 7330TIP3   OH221946   7.755   4.050   3.080
 7330TIP3    H121947   7.818   4.056   3.008
 7330TIP3    H221948   7.758   4.135   3.123
 7331TIP3   OH221949   1.235   5.539   3.126
 7331TIP3    H121950   1.245   5.466   3.065
 7331TIP3    H221951   1.163   5.513   3.184
 7332TIP3   OH221952   0.461   0.998   6.393
 7332TIP3    H121953   0.485   0.961   6.308
 7332TIP3    H221954   0.407   0.930   6.434
 7333TIP3   OH221955   3.539   1.407   5.647
 7333TIP3    H121956   3.521   1.500   5.632
 7333TIP3    H221957   3.625   1.406   5.688
 7334TIP3   OH221958   3.584   0.705   2.873
 7334TIP3    H121959   3.670   0.743   2.893
 7334TIP3    H221960   3.567   0.645   2.946
 7335TIP3   OH221961   6.576   7.158   5.939
 7335TIP3    H121962   6.542   7.152   6.029
 7335TIP3    H221963   6.498   7.157   5.884
 7336TIP3   OH221964   7.905   7.311   2.128
 7336TIP3    H121965   7.838   7.293   2.061
 7336TIP3    H221966   7.900   7.405   2.143
 7337TIP3   OH221967   1.837   1.091   4.695
 7337TIP3    H121968   1.859   1.091   4.789
 7337TIP3    H221969   1.854   1.000   4.668
 7338TIP3   OH221970   2.846   3.629   5.666
 7338TIP3    H121971   2.776   3.572   5.698
 7338TIP3    H221972   2.814   3.659   5.581
 7339TIP3   OH221973   7.653   7.140   3.966
 7339TIP3    H121974   7.709   7.106   3.896
 7339TIP3    H221975   7.655   7.235   3.955
 7340TIP3   OH221976   3.550   3.595   3.884
 7340TIP3    H121977   3.599   3.675   3.869
 7340TIP3    H221978   3.580   3.535   3.816
 7341TIP3   OH221979   6.951   4.758   1.619
 7341TIP3    H121980   6.924   4.696   1.551
 7341TIP3    H221981   7.038   4.728   1.646
 7342TIP3   OH221982   8.278   3.984   1.959
 7342TIP3    H121983   8.193   3.995   1.918
 7342TIP3    H221984   8.340   3.977   1.886
 7343TIP3   OH221985   4.110   5.411   0.168
 7343TIP3    H121986   4.153   5.338   0.124
 7343TIP3    H221987   4.178   5.479   0.173
 7344TIP3   OH221988   4.689   2.541   2.991
 7344TIP3    H121989   4.648   2.577   2.913
 7344TIP3    H221990   4.771   2.591   3.000
 7345TIP3   OH221991   7.887   7.045   1.682
 7345TIP3    H121992   7.979   7.040   1.657
 7345TIP3    H221993   7.885   7.022   1.775
 7346TIP3   OH221994   3.384   6.098   6.026
 7346TIP3    H121995   3.337   6.168   5.981
 7346TIP3    H221996   3.455   6.074   5.966
 7347TIP3   OH221997   5.726   0.435   2.525
 7347TIP3    H121998   5.664   0.425   2.597
 7347TIP3    H221999   5.671   0.451   2.448
 7348TIP3   OH222000   8.182   1.114   2.471
 7348TIP3    H122001   8.246   1.109   2.399
 7348TIP3    H222002   8.120   1.043   2.452
 7349TIP3   OH222003   4.805   7.078   0.740
 7349TIP3    H122004   4.875   7.012   0.737
 7349TIP3    H222005   4.725   7.027   0.749
 7350TIP3   OH222006   6.222   5.062   0.730
 7350TIP3    H122007   6.131   5.032   0.724
 7350TIP3    H222008   6.274   4.982   0.733
 7351TIP3   OH222009   3.127   1.034   4.014
 7351TIP3    H122010   3.146   0.944   3.987
 7351TIP3    H222011   3.089   1.025   4.102
 7352TIP3   OH222012   4.863   2.608   1.587
 7352TIP3    H122013   4.810   2.530   1.570
 7352TIP3    H222014   4.802   2.671   1.624
 7353TIP3   OH222015   7.938   0.059   2.783
 7353TIP3    H122016   7.999   0.016   2.723
 7353TIP3    H222017   7.851   0.039   2.747
 7354TIP3   OH222018   4.765   1.429   3.522
 7354TIP3    H122019   4.751   1.448   3.430
 7354TIP3    H222020   4.859   1.444   3.536
 7355TIP3   OH222021   8.131   7.534   0.550
 7355TIP3    H122022   8.039   7.527   0.526
 7355TIP3    H222023   8.134   7.607   0.612
 7356TIP3   OH222024   7.606   5.880   3.360
 7356TIP3    H122025   7.540   5.904   3.294
 7356TIP3    H222026   7.590   5.940   3.433
 7357TIP3   OH222027   0.901   3.096   0.834
 7357TIP3    H122028   0.873   3.024   0.778
 7357TIP3    H222029   0.823   3.121   0.882
 7358TIP3   OH222030   1.592   1.919   5.988
 7358TIP3    H122031   1.587   1.924   6.084
 7358TIP3    H222032   1.511   1.959   5.957
 7359TIP3   OH222033   0.767   2.122   1.772
 7359TIP3    H122034   0.757   2.052   1.836
 7359TIP3    H222035   0.692   2.113   1.713
 7360TIP3   OH222036   0.973   2.183   1.401
 7360TIP3    H122037   1.018   2.258   1.438
 7360TIP3    H222038   1.038   2.143   1.342
 7361TIP3   OH222039   4.752   4.742   3.980
 7361TIP3    H122040   4.757   4.718   3.887
 7361TIP3    H222041   4.806   4.676   4.024
 7362TIP3   OH222042   1.390   7.349   4.862
 7362TIP3    H122043   1.311   7.399   4.879
 7362TIP3    H222044   1.452   7.377   4.929
 7363TIP3   OH222045   6.078   4.482   5.297
 7363TIP3    H122046   6.087   4.397   5.256
 7363TIP3    H222047   6.110   4.544   5.232
 7364TIP3   OH222048   5.538   5.193   0.404
 7364TIP3    H122049   5.531   5.191   0.499
 7364TIP3    H222050   5.447   5.191   0.373
 7365TIP3   OH222051   1.685   3.912   2.377
 7365TIP3    H122052   1.752   3.937   2.441
 7365TIP3    H222053   1.610   3.884   2.429
 7366TIP3   OH222054   3.054   6.766   0.430
 7366TIP3    H122055   3.103   6.794   0.508
 7366TIP3    H222056   3.095   6.812   0.357
 7367TIP3   OH222057   4.868   6.813   0.073
 7367TIP3    H122058   4.779   6.842   0.053
 7367TIP3    H222059   4.891   6.861   0.153
 7368TIP3   OH222060   5.368   1.133   2.174
 7368TIP3    H122061   5.421   1.057   2.151
 7368TIP3    H222062   5.426   1.208   2.159
 7369TIP3   OH222063   2.782   3.030   2.636
 7369TIP3    H122064   2.793   2.974   2.560
 7369TIP3    H222065   2.756   2.971   2.707
 7370TIP3   OH222066   1.624   2.019   3.410
 7370TIP3    H122067   1.568   2.084   3.453
 7370TIP3    H222068   1.708   2.063   3.399
 7371TIP3   OH222069   8.027   6.420   1.903
 7371TIP3    H122070   8.050   6.511   1.923
 7371TIP3    H222071   8.002   6.421   1.810
 7372TIP3   OH222072   3.078   4.261   1.954
 7372TIP3    H122073   2.990   4.289   1.927
 7372TIP3    H222074   3.062   4.204   2.029
 7373TIP3   OH222075   7.976   4.285   3.607
 7373TIP3    H122076   7.951   4.308   3.518
 7373TIP3    H222077   7.987   4.369   3.652
 7374TIP3   OH222078   4.951   0.922   1.335
 7374TIP3    H122079   4.893   0.986   1.376
 7374TIP3    H222080   4.903   0.840   1.337
 7375TIP3   OH222081   2.240   6.517   1.869
 7375TIP3    H122082   2.193   6.493   1.949
 7375TIP3    H222083   2.332   6.506   1.890
 7376TIP3   OH222084   7.764   0.220   0.305
 7376TIP3    H122085   7.832   0.242   0.242
 7376TIP3    H222086   7.765   0.124   0.310
 7377TIP3   OH222087   2.362   3.031   4.457
 7377TIP3    H122088   2.374   3.126   4.458
 7377TIP3    H222089   2.409   3.002   4.379
 7378TIP3   OH222090   6.590   1.742   4.860
 7378TIP3    H122091   6.596   1.738   4.956
 7378TIP3    H222092   6.631   1.825   4.837
 7379TIP3   OH222093   6.507   0.175   3.603
 7379TIP3    H122094   6.427   0.136   3.568
 7379TIP3    H222095   6.523   0.127   3.684
 7380TIP3   OH222096   6.382   3.614   3.288
 7380TIP3    H122097   6.316   3.554   3.254
 7380TIP3    H222098   6.430   3.644   3.211
 7381TIP3   OH222099   6.031   4.513   3.338
 7381TIP3    H122100   5.955   4.571   3.344
 7381TIP3    H222101   5.995   4.425   3.347
 7382TIP3   OH222102   1.887   2.400   2.236
 7382TIP3    H122103   1.796   2.384   2.211
 7382TIP3    H222104   1.937   2.331   2.190
 7383TIP3   OH222105   7.525   1.529   5.711
 7383TIP3    H122106   7.441   1.503   5.672
 7383TIP3    H222107   7.589   1.511   5.642
 7384TIP3   OH222108   0.069   4.965   1.070
 7384TIP3    H122109  -0.025   4.950   1.080
 7384TIP3    H222110   0.110   4.904   1.131
 7385TIP3   OH222111   5.721   6.762   4.986
 7385TIP3    H122112   5.814   6.780   4.999
 7385TIP3    H222113   5.681   6.848   4.974
 7386TIP3   OH222114   0.219   7.265   5.698
 7386TIP3    H122115   0.141   7.320   5.686
 7386TIP3    H222116   0.185   7.179   5.720
 7387TIP3   OH222117   6.488   0.582   4.466
 7387TIP3    H122118   6.465   0.617   4.381
 7387TIP3    H222119   6.584   0.585   4.468
 7388TIP3   OH222120   1.715   1.194   3.755
 7388TIP3    H122121   1.703   1.199   3.849
 7388TIP3    H222122   1.749   1.280   3.730
 7389TIP3   OH222123   6.404   1.679   6.152
 7389TIP3    H122124   6.405   1.755   6.094
 7389TIP3    H222125   6.479   1.627   6.125
 7390TIP3   OH222126   0.095   6.516   5.504
 7390TIP3    H122127   0.145   6.493   5.581
 7390TIP3    H222128   0.152   6.493   5.430
 7391TIP3   OH222129   6.885   3.178   3.265
 7391TIP3    H122130   6.831   3.111   3.224
 7391TIP3    H222131   6.933   3.131   3.333
 7392TIP3   OH222132   5.443   4.302   2.252
 7392TIP3    H122133   5.513   4.366   2.260
 7392TIP3    H222134   5.487   4.217   2.260
 7393TIP3   OH222135   2.591   5.290   4.768
 7393TIP3    H122136   2.516   5.340   4.800
 7393TIP3    H222137   2.663   5.316   4.825
 7394TIP3   OH222138   4.665   6.579   1.821
 7394TIP3    H122139   4.703   6.666   1.836
 7394TIP3    H222140   4.610   6.590   1.744
 7395TIP3   OH222141   5.826   1.497   1.253
 7395TIP3    H122142   5.760   1.556   1.289
 7395TIP3    H222143   5.815   1.416   1.303
 7396TIP3   OH222144   4.663   2.605   6.660
 7396TIP3    H122145   4.744   2.555   6.646
 7396TIP3    H222146   4.678   2.688   6.614
 7397TIP3   OH222147   0.332   2.733   0.757
 7397TIP3    H122148   0.387   2.706   0.683
 7397TIP3    H222149   0.307   2.650   0.799
 7398TIP3   OH222150   1.361   4.139   2.212
 7398TIP3    H122151   1.435   4.079   2.202
 7398TIP3    H222152   1.400   4.227   2.205
 7399TIP3   OH222153   3.922   5.770   5.665
 7399TIP3    H122154   3.923   5.703   5.597
 7399TIP3    H222155   4.014   5.797   5.674
 7400TIP3   OH222156   1.583   2.727   6.357
 7400TIP3    H122157   1.649   2.726   6.288
 7400TIP3    H222158   1.575   2.820   6.381
 7401TIP3   OH222159   0.341   6.164   6.423
 7401TIP3    H122160   0.282   6.156   6.348
 7401TIP3    H222161   0.378   6.076   6.433
 7402TIP3   OH222162   4.027   5.130   3.712
 7402TIP3    H122163   4.053   5.160   3.799
 7402TIP3    H222164   4.000   5.039   3.725
 7403TIP3   OH222165   3.991   0.849   6.294
 7403TIP3    H122166   4.075   0.803   6.294
 7403TIP3    H222167   3.966   0.854   6.387
 7404TIP3   OH222168   2.366   5.244   4.125
 7404TIP3    H122169   2.388   5.247   4.031
 7404TIP3    H222170   2.383   5.153   4.150
 7405TIP3   OH222171   4.491   2.482   1.173
 7405TIP3    H122172   4.463   2.445   1.257
 7405TIP3    H222173   4.430   2.445   1.109
 7406TIP3   OH222174   7.156   4.026   3.357
 7406TIP3    H122175   7.122   3.939   3.378
 7406TIP3    H222176   7.118   4.083   3.423
 7407TIP3   OH222177   3.396   2.057   3.534
 7407TIP3    H122178   3.480   2.011   3.527
 7407TIP3    H222179   3.335   1.992   3.569
 7408TIP3   OH222180   1.083   5.309   1.438
 7408TIP3    H122181   1.109   5.388   1.485
 7408TIP3    H222182   1.161   5.254   1.439
 7409TIP3   OH222183   4.499   0.607   3.951
 7409TIP3    H122184   4.526   0.605   4.043
 7409TIP3    H222185   4.496   0.515   3.925
 7410TIP3   OH222186   0.326   3.843   6.043
 7410TIP3    H122187   0.394   3.877   6.101
 7410TIP3    H222188   0.356   3.866   5.955
 7411TIP3   OH222189   4.838   2.184   0.964
 7411TIP3    H122190   4.745   2.192   0.944
 7411TIP3    H222191   4.879   2.259   0.920
 7412TIP3   OH222192   6.207   7.335   6.078
 7412TIP3    H122193   6.264   7.359   6.151
 7412TIP3    H222194   6.119   7.337   6.115
 7413TIP3   OH222195   4.570   6.290   6.704
 7413TIP3    H122196   4.592   6.349   6.777
 7413TIP3    H222197   4.494   6.331   6.663
 7414TIP3   OH222198   7.588   7.056   0.502
 7414TIP3    H122199   7.649   7.094   0.566
 7414TIP3    H222200   7.561   7.131   0.449
 7415TIP3   OH222201   7.205   0.867   3.909
 7415TIP3    H122202   7.164   0.786   3.939
 7415TIP3    H222203   7.291   0.840   3.878
 7416TIP3   OH222204   1.038   7.208   5.613
 7416TIP3    H122205   0.995   7.168   5.537
 7416TIP3    H222206   1.126   7.229   5.583
 7417TIP3   OH222207   3.270   4.823   1.474
 7417TIP3    H122208   3.284   4.734   1.506
 7417TIP3    H222209   3.180   4.823   1.442
 7418TIP3   OH222210   0.399   7.696   1.790
 7418TIP3    H122211   0.468   7.682   1.725
 7418TIP3    H222212   0.318   7.677   1.742
 7419TIP3   OH222213   1.139   6.208   1.613
 7419TIP3    H122214   1.099   6.147   1.675
 7419TIP3    H222215   1.066   6.258   1.577
 7420TIP3   OH222216   1.703   5.689   0.924
 7420TIP3    H122217   1.778   5.705   0.981
 7420TIP3    H222218   1.741   5.676   0.837
 7421TIP3   OH222219   0.526   4.867   5.264
 7421TIP3    H122220   0.455   4.930   5.255
 7421TIP3    H222221   0.574   4.871   5.181
 7422TIP3   OH222222   3.261   3.121   0.276
 7422TIP3    H122223   3.302   3.139   0.192
 7422TIP3    H222224   3.270   3.203   0.325
 7423TIP3   OH222225   5.924   6.088   0.082
 7423TIP3    H122226   5.873   6.008   0.065
 7423TIP3    H222227   6.001   6.057   0.130
 7424TIP3   OH222228   8.070   1.869   4.015
 7424TIP3    H122229   7.981   1.860   4.047
 7424TIP3    H222230   8.125   1.864   4.094
 7425TIP3   OH222231   4.218   5.182   4.273
 7425TIP3    H122232   4.212   5.185   4.369
 7425TIP3    H222233   4.192   5.093   4.250
 7426TIP3   OH222234   0.416   1.924   2.213
 7426TIP3    H122235   0.386   1.904   2.302
 7426TIP3    H222236   0.413   2.020   2.208
 7427TIP3   OH222237   4.134   4.853   2.293
 7427TIP3    H122238   4.221   4.892   2.297
 7427TIP3    H222239   4.127   4.802   2.374
 7428TIP3   OH222240   4.568   7.536   1.043
 7428TIP3    H122241   4.582   7.629   1.060
 7428TIP3    H222242   4.479   7.532   1.006
 7429TIP3   OH222243   7.117   1.542   1.575
 7429TIP3    H122244   7.162   1.487   1.511
 7429TIP3    H222245   7.149   1.511   1.660
 7430TIP3   OH222246   4.433   4.550   4.754
 7430TIP3    H122247   4.433   4.472   4.700
 7430TIP3    H222248   4.494   4.610   4.710
 7431TIP3   OH222249   3.767   1.115   4.386
 7431TIP3    H122250   3.838   1.173   4.411
 7431TIP3    H222251   3.798   1.027   4.409
 7432TIP3   OH222252   2.124   1.168   1.721
 7432TIP3    H122253   2.175   1.202   1.794
 7432TIP3    H222254   2.190   1.143   1.655
 7433TIP3   OH222255   7.709   0.803   6.685
 7433TIP3    H122256   7.652   0.870   6.722
 7433TIP3    H222257   7.656   0.723   6.688
 7434TIP3   OH222258   3.975   6.431   2.604
 7434TIP3    H122259   3.989   6.372   2.678
 7434TIP3    H222260   4.052   6.489   2.605
 7435TIP3   OH222261   1.442   3.107   0.406
 7435TIP3    H122262   1.499   3.163   0.458
 7435TIP3    H222263   1.498   3.075   0.335
 7436TIP3   OH222264   6.317   5.558   2.183
 7436TIP3    H122265   6.228   5.571   2.150
 7436TIP3    H222266   6.325   5.463   2.192
 7437TIP3   OH222267   7.179   1.500   6.059
 7437TIP3    H122268   7.228   1.424   6.089
 7437TIP3    H222269   7.167   1.485   5.965
 7438TIP3   OH222270   0.031   7.709   3.658
 7438TIP3    H122271   0.124   7.704   3.637
 7438TIP3    H222272  -0.013   7.666   3.585
 7439TIP3   OH222273   4.110   1.435   2.079
 7439TIP3    H122274   4.180   1.442   2.144
 7439TIP3    H222275   4.151   1.392   2.004
 7440TIP3   OH222276   7.825   3.219   4.261
 7440TIP3    H122277   7.812   3.312   4.244
 7440TIP3    H222278   7.790   3.175   4.183
 7441TIP3   OH222279   5.336   6.112   2.217
 7441TIP3    H122280   5.250   6.114   2.259
 7441TIP3    H222281   5.338   6.028   2.170
 7442TIP3   OH222282   6.271   4.265   1.313
 7442TIP3    H122283   6.281   4.331   1.244
 7442TIP3    H222284   6.247   4.185   1.267
 7443TIP3   OH222285   1.635   0.651   1.698
 7443TIP3    H122286   1.608   0.641   1.789
 7443TIP3    H222287   1.617   0.743   1.677
 7444TIP3   OH222288   3.376   7.360   6.120
 7444TIP3    H122289   3.407   7.407   6.198
 7444TIP3    H222290   3.316   7.421   6.078
 7445TIP3   OH222291   2.691   6.510   4.064
 7445TIP3    H122292   2.674   6.438   4.003
 7445TIP3    H222293   2.646   6.483   4.144
 7446TIP3   OH222294   3.425   0.932   2.311
 7446TIP3    H122295   3.402   0.843   2.335
 7446TIP3    H222296   3.342   0.980   2.311
 7447TIP3   OH222297   6.988   0.972   0.662
 7447TIP3    H122298   7.002   1.049   0.607
 7447TIP3    H222299   6.893   0.967   0.672
 7448TIP3   OH222300   5.636   0.309   1.896
 7448TIP3    H122301   5.602   0.221   1.878
 7448TIP3    H222302   5.698   0.325   1.825
 7449TIP3   OH222303   0.941   5.418   6.709
 7449TIP3    H122304   0.856   5.389   6.741
 7449TIP3    H222305   0.992   5.436   6.788
 7450TIP3   OH222306   0.211   6.510   0.917
 7450TIP3    H122307   0.194   6.553   0.833
 7450TIP3    H222308   0.214   6.417   0.896
 7451TIP3   OH222309   0.697   7.833   3.218
 7451TIP3    H122310   0.748   7.770   3.167
 7451TIP3    H222311   0.720   7.814   3.309
 7452TIP3   OH222312   4.605   6.576   2.188
 7452TIP3    H122313   4.529   6.549   2.135
 7452TIP3    H222314   4.639   6.653   2.143
 7453TIP3   OH222315   1.575   3.319   6.278
 7453TIP3    H122316   1.637   3.253   6.247
 7453TIP3    H222317   1.489   3.280   6.262
 7454TIP3   OH222318   0.813   1.564   0.312
 7454TIP3    H122319   0.846   1.522   0.391
 7454TIP3    H222320   0.751   1.630   0.344
 7455TIP3   OH222321   7.774   5.776   4.948
 7455TIP3    H122322   7.682   5.801   4.960
 7455TIP3    H222323   7.770   5.687   4.915
 7456TIP3   OH222324   4.244   2.578   6.573
 7456TIP3    H122325   4.168   2.562   6.630
 7456TIP3    H222326   4.213   2.557   6.485
 7457TIP3   OH222327   2.740   5.392   0.185
 7457TIP3    H122328   2.693   5.353   0.259
 7457TIP3    H222329   2.758   5.318   0.127
 7458TIP3   OH222330   4.225   3.636   3.356
 7458TIP3    H122331   4.231   3.725   3.321
 7458TIP3    H222332   4.305   3.625   3.408
 7459TIP3   OH222333   4.192   2.889   3.513
 7459TIP3    H122334   4.132   2.877   3.439
 7459TIP3    H222335   4.271   2.842   3.489
 7460TIP3   OH222336   2.506   4.646   4.779
 7460TIP3    H122337   2.461   4.716   4.732
 7460TIP3    H222338   2.598   4.674   4.782
 7461TIP3   OH222339   2.939   2.019   3.951
 7461TIP3    H122340   2.913   1.937   3.910
 7461TIP3    H222341   2.857   2.064   3.970
 7462TIP3   OH222342   6.760   2.759   6.112
 7462TIP3    H122343   6.773   2.669   6.142
 7462TIP3    H222344   6.665   2.766   6.100
 7463TIP3   OH222345   5.615   1.785   0.958
 7463TIP3    H122346   5.542   1.732   0.988
 7463TIP3    H222347   5.575   1.851   0.901
 7464TIP3   OH222348   3.935   1.307   5.049
 7464TIP3    H122349   3.892   1.298   5.134
 7464TIP3    H222350   3.969   1.220   5.030
 7465TIP3   OH222351   3.161   2.819   0.581
 7465TIP3    H122352   3.096   2.852   0.518
 7465TIP3    H222353   3.218   2.894   0.598
 7466TIP3   OH222354   7.594   0.259   0.819
 7466TIP3    H122355   7.546   0.185   0.855
 7466TIP3    H222356   7.671   0.268   0.875
 7467TIP3   OH222357   5.102   3.963   3.525
 7467TIP3    H122358   5.193   3.946   3.548
 7467TIP3    H222359   5.092   3.927   3.437
 7468TIP3   OH222360   6.638   4.307   2.097
 7468TIP3    H122361   6.629   4.250   2.173
 7468TIP3    H222362   6.651   4.246   2.023
 7469TIP3   OH222363   7.535   1.513   0.846
 7469TIP3    H122364   7.441   1.526   0.837
 7469TIP3    H222365   7.574   1.576   0.785
 7470TIP3   OH222366   2.111   6.749   5.001
 7470TIP3    H122367   2.081   6.747   4.910
 7470TIP3    H222368   2.192   6.800   4.999
 7471TIP3   OH222369   1.489   7.274   3.225
 7471TIP3    H122370   1.458   7.245   3.139
 7471TIP3    H222371   1.584   7.275   3.217
 7472TIP3   OH222372   4.900   2.080   3.609
 7472TIP3    H122373   4.984   2.096   3.567
 7472TIP3    H222374   4.903   1.988   3.636
 7473TIP3   OH222375   4.618   2.871   0.216
 7473TIP3    H122376   4.571   2.904   0.294
 7473TIP3    H222377   4.663   2.793   0.247
 7474TIP3   OH222378   5.138   5.918   4.869
 7474TIP3    H122379   5.131   5.967   4.787
 7474TIP3    H222380   5.077   5.963   4.928
 7475TIP3   OH222381   5.566   7.692   1.055
 7475TIP3    H122382   5.558   7.610   1.104
 7475TIP3    H222383   5.476   7.717   1.035
 7476TIP3   OH222384   6.479   2.846   1.352
 7476TIP3    H122385   6.488   2.919   1.292
 7476TIP3    H222386   6.511   2.770   1.303
 7477TIP3   OH222387   3.429   2.175   3.957
 7477TIP3    H122388   3.406   2.243   4.020
 7477TIP3    H222389   3.346   2.132   3.937
 7478TIP3   OH222390   6.048   2.380   4.936
 7478TIP3    H122391   6.064   2.299   4.887
 7478TIP3    H222392   6.134   2.421   4.943
 7479TIP3   OH222393   4.008   7.224   6.084
 7479TIP3    H122394   4.007   7.140   6.038
 7479TIP3    H222395   3.966   7.285   6.023
 7480TIP3   OH222396   3.192   1.009   5.267
 7480TIP3    H122397   3.194   0.976   5.357
 7480TIP3    H222398   3.139   1.089   5.273
 7481TIP3   OH222399   5.431   0.888   5.371
 7481TIP3    H122400   5.408   0.795   5.368
 7481TIP3    H222401   5.514   0.891   5.419
 7482TIP3   OH222402   2.484   5.450   6.752
 7482TIP3    H122403   2.541   5.378   6.779
 7482TIP3    H222404   2.423   5.461   6.825
 7483TIP3   OH222405   8.007   3.128   0.811
 7483TIP3    H122406   8.067   3.098   0.880
 7483TIP3    H222407   7.939   3.061   0.808
 7484TIP3   OH222408   4.747   3.550   0.126
 7484TIP3    H122409   4.735   3.583   0.215
 7484TIP3    H222410   4.775   3.625   0.075
 7485TIP3   OH222411   2.313   1.849   4.814
 7485TIP3    H122412   2.248   1.805   4.760
 7485TIP3    H222413   2.368   1.896   4.752
 7486TIP3   OH222414   3.057   5.827   1.480
 7486TIP3    H122415   3.087   5.873   1.558
 7486TIP3    H222416   2.974   5.788   1.506
 7487TIP3   OH222417   8.010   4.865   0.785
 7487TIP3    H122418   7.996   4.815   0.866
 7487TIP3    H222419   7.922   4.893   0.759
 7488TIP3   OH222420   6.643   5.874   3.786
 7488TIP3    H122421   6.555   5.838   3.796
 7488TIP3    H222422   6.701   5.801   3.805
 7489TIP3   OH222423   5.374   6.959   3.696
 7489TIP3    H122424   5.452   6.950   3.640
 7489TIP3    H222425   5.300   6.940   3.638
 7490TIP3   OH222426   3.900   7.278   3.710
 7490TIP3    H122427   3.948   7.247   3.634
 7490TIP3    H222428   3.819   7.315   3.674
 7491TIP3   OH222429   4.582   0.091   3.576
 7491TIP3    H122430   4.528   0.170   3.576
 7491TIP3    H222431   4.672   0.123   3.582
 7492TIP3   OH222432   0.023   4.064   1.385
 7492TIP3    H122433  -0.058   4.086   1.430
 7492TIP3    H222434   0.071   4.147   1.380
 7493TIP3   OH222435   5.423   3.183   2.369
 7493TIP3    H122436   5.412   3.258   2.311
 7493TIP3    H222437   5.456   3.113   2.312
 7494TIP3   OH222438   0.323   1.898   2.481
 7494TIP3    H122439   0.376   1.968   2.517
 7494TIP3    H222440   0.360   1.818   2.517
 7495TIP3   OH222441   6.935   4.376   5.443
 7495TIP3    H122442   6.962   4.438   5.511
 7495TIP3    H222443   7.004   4.310   5.442
 7496TIP3   OH222444   0.389   2.022   4.222
 7496TIP3    H122445   0.426   2.092   4.168
 7496TIP3    H222446   0.381   1.947   4.163
 7497TIP3   OH222447   1.282   2.453   5.996
 7497TIP3    H122448   1.278   2.533   6.048
 7497TIP3    H222449   1.329   2.391   6.052
 7498TIP3   OH222450   4.390   3.369   6.455
 7498TIP3    H122451   4.435   3.454   6.451
 7498TIP3    H222452   4.382   3.351   6.548
 7499TIP3   OH222453   3.265   6.553   5.664
 7499TIP3    H122454   3.289   6.465   5.634
 7499TIP3    H222455   3.346   6.588   5.701
 7500TIP3   OH222456   7.076   1.266   3.872
 7500TIP3    H122457   7.133   1.276   3.796
 7500TIP3    H222458   7.092   1.345   3.924
 7501TIP3   OH222459   2.572   4.077   2.826
 7501TIP3    H122460   2.653   4.111   2.864
 7501TIP3    H222461   2.558   3.993   2.870
 7502TIP3   OH222462   3.130   2.480   0.981
 7502TIP3    H122463   3.212   2.524   1.005
 7502TIP3    H222464   3.133   2.473   0.886
 7503TIP3   OH222465   7.833   6.389   0.716
 7503TIP3    H122466   7.760   6.328   0.729
 7503TIP3    H222467   7.854   6.420   0.804
 7504TIP3   OH222468   6.240   2.352   0.248
 7504TIP3    H122469   6.333   2.328   0.257
 7504TIP3    H222470   6.226   2.356   0.154
 7505TIP3   OH222471   4.926   6.042   2.979
 7505TIP3    H122472   5.018   6.019   2.992
 7505TIP3    H222473   4.918   6.055   2.885
 7506TIP3   OH222474   4.598   0.443   5.331
 7506TIP3    H122475   4.570   0.395   5.408
 7506TIP3    H222476   4.651   0.382   5.281
 7507TIP3   OH222477   4.026   5.747   3.720
 7507TIP3    H122478   4.104   5.697   3.743
 7507TIP3    H222479   3.981   5.761   3.803
 7508TIP3   OH222480   2.491   3.054   0.072
 7508TIP3    H122481   2.528   3.114   0.136
 7508TIP3    H222482   2.559   2.988   0.059
 7509TIP3   OH222483   7.479   0.107   2.935
 7509TIP3    H122484   7.521   0.179   2.889
 7509TIP3    H222485   7.477   0.134   3.027
 7510TIP3   OH222486   3.270   5.556   0.202
 7510TIP3    H122487   3.299   5.488   0.141
 7510TIP3    H222488   3.351   5.597   0.233
 7511TIP3   OH222489   5.194   6.479   6.292
 7511TIP3    H122490   5.214   6.396   6.248
 7511TIP3    H222491   5.271   6.534   6.277
 7512TIP3   OH222492   7.312   1.065   0.816
 7512TIP3    H122493   7.353   1.140   0.773
 7512TIP3    H222494   7.289   1.006   0.744
 7513TIP3   OH222495   7.724   3.331   3.789
 7513TIP3    H122496   7.796   3.368   3.738
 7513TIP3    H222497   7.660   3.302   3.724
 7514TIP3   OH222498   8.178   3.777   4.147
 7514TIP3    H122499   8.152   3.689   4.175
 7514TIP3    H222500   8.196   3.823   4.228
 7515TIP3   OH222501   6.335   3.529   1.990
 7515TIP3    H122502   6.274   3.584   1.940
 7515TIP3    H222503   6.312   3.440   1.966
 7516TIP3   OH222504   3.695   2.025   1.354
 7516TIP3    H122505   3.622   2.007   1.295
 7516TIP3    H222506   3.742   2.098   1.313
 7517TIP3   OH222507   0.775   4.396   1.667
 7517TIP3    H122508   0.746   4.305   1.677
 7517TIP3    H222509   0.868   4.394   1.690
 7518TIP3   OH222510   0.116   2.881   5.469
 7518TIP3    H122511   0.027   2.908   5.491
 7518TIP3    H222512   0.149   2.840   5.548
 7519TIP3   OH222513   5.429   7.154   2.515
 7519TIP3    H122514   5.445   7.081   2.575
 7519TIP3    H222515   5.411   7.229   2.572
 7520TIP3   OH222516   0.387   0.426   2.622
 7520TIP3    H122517   0.341   0.431   2.706
 7520TIP3    H222518   0.317   0.431   2.556
 7521TIP3   OH222519   7.055   3.642   5.965
 7521TIP3    H122520   7.124   3.591   6.007
 7521TIP3    H222521   7.080   3.646   5.873
 7522TIP3   OH222522   2.899   5.984   4.421
 7522TIP3    H122523   2.963   5.999   4.491
 7522TIP3    H222524   2.952   5.979   4.341
 7523TIP3   OH222525   4.646   2.384   1.602
 7523TIP3    H122526   4.629   2.297   1.638
 7523TIP3    H222527   4.584   2.392   1.529
 7524TIP3   OH222528   6.977   0.752   6.420
 7524TIP3    H122529   7.066   0.784   6.404
 7524TIP3    H222530   6.921   0.827   6.403
 7525TIP3   OH222531   0.752   4.334   5.248
 7525TIP3    H122532   0.806   4.412   5.237
 7525TIP3    H222533   0.684   4.341   5.181
 7526TIP3   OH222534   8.166   0.252   2.537
 7526TIP3    H122535   8.183   0.262   2.630
 7526TIP3    H222536   8.234   0.191   2.507
 7527TIP3   OH222537   4.244   3.399   3.603
 7527TIP3    H122538   4.211   3.422   3.516
 7527TIP3    H222539   4.298   3.322   3.588
 7528TIP3   OH222540   3.982   1.156   3.878
 7528TIP3    H122541   4.046   1.086   3.867
 7528TIP3    H222542   4.006   1.197   3.961
 7529TIP3   OH222543   3.168   0.164   2.579
 7529TIP3    H122544   3.192   0.152   2.671
 7529TIP3    H222545   3.245   0.205   2.540
 7530TIP3   OH222546   5.628   7.610   2.408
 7530TIP3    H122547   5.552   7.556   2.385
 7530TIP3    H222548   5.685   7.551   2.457
 7531TIP3   OH222549   5.761   1.170   4.878
 7531TIP3    H122550   5.793   1.230   4.945
 7531TIP3    H222551   5.666   1.187   4.874
 7532TIP3   OH222552   0.406   4.648   1.788
 7532TIP3    H122553   0.344   4.649   1.861
 7532TIP3    H222554   0.489   4.621   1.827
 7533TIP3   OH222555   7.504   3.830   4.604
 7533TIP3    H122556   7.572   3.792   4.549
 7533TIP3    H222557   7.423   3.817   4.554
 7534TIP3   OH222558   6.685   6.369   6.743
 7534TIP3    H122559   6.610   6.383   6.685
 7534TIP3    H222560   6.716   6.281   6.722
 7535TIP3   OH222561   2.449   0.411   0.554
 7535TIP3    H122562   2.434   0.317   0.569
 7535TIP3    H222563   2.464   0.447   0.642
 7536TIP3   OH222564   3.126   2.189   4.990
 7536TIP3    H122565   3.131   2.198   5.086
 7536TIP3    H222566   3.177   2.263   4.957
 7537TIP3   OH222567   6.916   6.170   3.219
 7537TIP3    H122568   6.900   6.169   3.125
 7537TIP3    H222569   6.986   6.106   3.232
 7538TIP3   OH222570   5.689   4.335   6.637
 7538TIP3    H122571   5.597   4.326   6.613
 7538TIP3    H222572   5.736   4.333   6.554
 7539TIP3   OH222573   4.775   0.719   2.497
 7539TIP3    H122574   4.816   0.789   2.446
 7539TIP3    H222575   4.744   0.656   2.432
 7540TIP3   OH222576   8.258   0.679   0.820
 7540TIP3    H122577   8.351   0.700   0.825
 7540TIP3    H222578   8.221   0.716   0.900
 7541TIP3   OH222579   0.193   3.946   1.745
 7541TIP3    H122580   0.225   3.944   1.835
 7541TIP3    H222581   0.200   3.856   1.715
 7542TIP3   OH222582   7.913   4.017   5.429
 7542TIP3    H122583   8.001   4.002   5.464
 7542TIP3    H222584   7.927   4.052   5.342
 7543TIP3   OH222585   0.450   1.788   1.777
 7543TIP3    H122586   0.534   1.781   1.731
 7543TIP3    H222587   0.415   1.873   1.753
 7544TIP3   OH222588   0.477   4.690   3.991
 7544TIP3    H122589   0.572   4.703   3.988
 7544TIP3    H222590   0.463   4.609   3.943
 7545TIP3   OH222591   1.017   0.542   2.317
 7545TIP3    H122592   0.971   0.505   2.392
 7545TIP3    H222593   0.982   0.494   2.242
 7546TIP3   OH222594   2.486   0.312   1.781
 7546TIP3    H122595   2.509   0.292   1.871
 7546TIP3    H222596   2.406   0.261   1.764
 7547TIP3   OH222597   1.002   5.051   1.213
 7547TIP3    H122598   0.948   5.076   1.288
 7547TIP3    H222599   1.088   5.033   1.251
 7548TIP3   OH222600   3.140   2.272   2.669
 7548TIP3    H122601   3.182   2.214   2.732
 7548TIP3    H222602   3.053   2.287   2.705
 7549TIP3   OH222603   0.081   0.013   3.376
 7549TIP3    H122604  -0.013   0.003   3.361
 7549TIP3    H222605   0.098   0.106   3.365
 7550TIP3   OH222606   6.144   4.949   2.752
 7550TIP3    H122607   6.205   4.881   2.723
 7550TIP3    H222608   6.058   4.909   2.744
 7551TIP3   OH222609   4.628   1.079   0.950
 7551TIP3    H122610   4.638   1.169   0.919
 7551TIP3    H222611   4.711   1.037   0.926
 7552TIP3   OH222612   3.433   2.667   2.588
 7552TIP3    H122613   3.511   2.666   2.644
 7552TIP3    H222614   3.445   2.743   2.531
 7553TIP3   OH222615   7.883   7.037   6.378
 7553TIP3    H122616   7.838   6.995   6.451
 7553TIP3    H222617   7.974   7.009   6.386
 7554TIP3   OH222618   7.111   7.017   1.022
 7554TIP3    H122619   7.028   7.032   1.066
 7554TIP3    H222620   7.146   7.105   1.006
 7555TIP3   OH222621   6.293   6.026   1.033
 7555TIP3    H122622   6.228   6.016   1.103
 7555TIP3    H222623   6.293   6.119   1.014
 7556TIP3   OH222624   1.415   1.392   2.928
 7556TIP3    H122625   1.337   1.398   2.873
 7556TIP3    H222626   1.421   1.477   2.971
 7557TIP3   OH222627   4.310   5.953   5.825
 7557TIP3    H122628   4.347   5.865   5.831
 7557TIP3    H222629   4.241   5.945   5.758
 7558TIP3   OH222630   0.315   3.106   3.584
 7558TIP3    H122631   0.404   3.077   3.604
 7558TIP3    H222632   0.265   3.087   3.663
 7559TIP3   OH222633   0.560   3.440   2.180
 7559TIP3    H122634   0.571   3.347   2.160
 7559TIP3    H222635   0.511   3.441   2.262
 7560TIP3   OH222636   5.051   2.918   4.247
 7560TIP3    H122637   5.094   2.889   4.328
 7560TIP3    H222638   5.120   2.962   4.198
 7561TIP3   OH222639   0.457   0.838   5.847
 7561TIP3    H122640   0.531   0.817   5.905
 7561TIP3    H222641   0.387   0.778   5.876
 7562TIP3   OH222642   1.928   2.945   2.650
 7562TIP3    H122643   1.970   2.864   2.624
 7562TIP3    H222644   1.975   3.013   2.602
 7563TIP3   OH222645   3.342   7.053   2.329
 7563TIP3    H122646   3.333   6.965   2.365
 7563TIP3    H222647   3.337   7.041   2.234
 7564TIP3   OH222648   2.975   3.869   0.928
 7564TIP3    H122649   3.060   3.865   0.883
 7564TIP3    H222650   2.939   3.781   0.918
 7565TIP3   OH222651   4.332   5.525   2.578
 7565TIP3    H122652   4.303   5.611   2.608
 7565TIP3    H222653   4.253   5.484   2.543
 7566TIP3   OH222654   1.597   7.222   6.073
 7566TIP3    H122655   1.586   7.140   6.120
 7566TIP3    H222656   1.690   7.241   6.079
 7567TIP3   OH222657   0.676   7.213   1.720
 7567TIP3    H122658   0.739   7.141   1.716
 7567TIP3    H222659   0.673   7.237   1.813
 7568TIP3   OH222660   1.399   0.367   5.415
 7568TIP3    H122661   1.313   0.364   5.372
 7568TIP3    H222662   1.461   0.342   5.346
 7569TIP3   OH222663   5.607   6.696   2.639
 7569TIP3    H122664   5.590   6.735   2.725
 7569TIP3    H222665   5.671   6.627   2.656
 7570TIP3   OH222666   6.152   5.848   5.142
 7570TIP3    H122667   6.151   5.941   5.119
 7570TIP3    H222668   6.244   5.824   5.139
 7571TIP3   OH222669   2.856   3.438   6.428
 7571TIP3    H122670   2.824   3.351   6.452
 7571TIP3    H222671   2.905   3.424   6.347
 7572TIP3   OH222672   3.712   3.299   0.197
 7572TIP3    H122673   3.705   3.276   0.104
 7572TIP3    H222674   3.683   3.221   0.243
 7573TIP3   OH222675   5.949   1.247   6.473
 7573TIP3    H122676   5.942   1.193   6.552
 7573TIP3    H222677   6.006   1.319   6.499
 7574TIP3   OH222678   5.056   6.951   2.479
 7574TIP3    H122679   5.101   6.881   2.527
 7574TIP3    H222680   5.087   6.942   2.389
 7575TIP3   OH222681   4.070   7.163   1.405
 7575TIP3    H122682   4.154   7.118   1.394
 7575TIP3    H222683   4.070   7.192   1.496
 7576TIP3   OH222684   4.721   6.514   3.566
 7576TIP3    H122685   4.741   6.599   3.603
 7576TIP3    H222686   4.805   6.480   3.537
 7577TIP3   OH222687   3.586   3.433   3.654
 7577TIP3    H122688   3.562   3.345   3.627
 7577TIP3    H222689   3.513   3.488   3.627
 7578TIP3   OH222690   1.066   5.217   6.109
 7578TIP3    H122691   1.157   5.210   6.079
 7578TIP3    H222692   1.036   5.126   6.113
 7579TIP3   OH222693   0.219   7.146   6.025
 7579TIP3    H122694   0.177   7.216   6.075
 7579TIP3    H222695   0.311   7.171   6.021
 7580TIP3   OH222696   2.400   6.999   0.571
 7580TIP3    H122697   2.495   7.007   0.573
 7580TIP3    H222698   2.375   6.978   0.661
 7581TIP3   OH222699   3.465   5.316   1.503
 7581TIP3    H122700   3.440   5.310   1.595
 7581TIP3    H222701   3.406   5.382   1.466
 7582TIP3   OH222702   1.124   5.691   4.899
 7582TIP3    H122703   1.092   5.769   4.946
 7582TIP3    H222704   1.079   5.695   4.814
 7583TIP3   OH222705   3.145   3.600   1.239
 7583TIP3    H122706   3.240   3.603   1.243
 7583TIP3    H222707   3.125   3.523   1.186
 7584TIP3   OH222708   6.677   1.758   2.354
 7584TIP3    H122709   6.655   1.725   2.266
 7584TIP3    H222710   6.773   1.751   2.358
 7585TIP3   OH222711   3.427   7.525   2.015
 7585TIP3    H122712   3.407   7.597   2.075
 7585TIP3    H222713   3.506   7.554   1.968
 7586TIP3   OH222714   6.775   6.307   3.003
 7586TIP3    H122715   6.720   6.240   3.041
 7586TIP3    H222716   6.718   6.384   2.995
 7587TIP3   OH222717   0.569   2.463   6.714
 7587TIP3    H122718   0.643   2.507   6.673
 7587TIP3    H222719   0.498   2.527   6.710
 7588TIP3   OH222720   3.903   2.714   4.912
 7588TIP3    H122721   3.895   2.632   4.960
 7588TIP3    H222722   3.847   2.775   4.961
 7589TIP3   OH222723   1.443   0.961   6.605
 7589TIP3    H122724   1.471   0.927   6.690
 7589TIP3    H222725   1.372   0.902   6.578
 7590TIP3   OH222726   6.921   5.251   0.141
 7590TIP3    H122727   6.897   5.206   0.060
 7590TIP3    H222728   6.844   5.304   0.162
 7591TIP3   OH222729   6.260   2.568   6.083
 7591TIP3    H122730   6.183   2.591   6.134
 7591TIP3    H222731   6.225   2.527   6.004
 7592TIP3   OH222732   5.144   0.821   5.114
 7592TIP3    H122733   5.066   0.852   5.161
 7592TIP3    H222734   5.207   0.892   5.126
 7593TIP3   OH222735   3.989   5.935   1.325
 7593TIP3    H122736   4.033   6.019   1.331
 7593TIP3    H222737   4.052   5.879   1.278
 7594TIP3   OH222738   7.829   1.668   0.537
 7594TIP3    H122739   7.735   1.684   0.548
 7594TIP3    H222740   7.871   1.745   0.575
 7595TIP3   OH222741   2.326   3.664   1.983
 7595TIP3    H122742   2.410   3.654   2.027
 7595TIP3    H222743   2.343   3.726   1.912
 7596TIP3   OH222744   0.773   1.773   1.105
 7596TIP3    H122745   0.801   1.820   1.026
 7596TIP3    H222746   0.853   1.731   1.137
 7597TIP3   OH222747   0.853   2.341   5.957
 7597TIP3    H122748   0.767   2.354   5.995
 7597TIP3    H222749   0.865   2.246   5.959
 7598TIP3   OH222750   4.291   2.889   2.487
 7598TIP3    H122751   4.271   2.817   2.427
 7598TIP3    H222752   4.323   2.959   2.431
 7599TIP3   OH222753   6.408   7.782   5.704
 7599TIP3    H122754   6.469   7.729   5.755
 7599TIP3    H222755   6.437   7.872   5.716
 7600TIP3   OH222756   0.855   1.891   0.555
 7600TIP3    H122757   0.835   1.929   0.641
 7600TIP3    H222758   0.890   1.804   0.575
 7601TIP3   OH222759   4.443   3.661   6.492
 7601TIP3    H122760   4.527   3.706   6.500
 7601TIP3    H222761   4.386   3.705   6.555
 7602TIP3   OH222762   7.782   4.344   2.103
 7602TIP3    H122763   7.716   4.306   2.161
 7602TIP3    H222764   7.733   4.407   2.050
 7603TIP3   OH222765   2.905   3.653   3.249
 7603TIP3    H122766   2.901   3.747   3.231
 7603TIP3    H222767   2.817   3.621   3.232
 7604TIP3   OH222768   1.448   5.258   0.780
 7604TIP3    H122769   1.370   5.207   0.760
 7604TIP3    H222770   1.443   5.276   0.874
 7605TIP3   OH222771   1.377   7.387   2.914
 7605TIP3    H122772   1.297   7.366   2.865
 7605TIP3    H222773   1.362   7.474   2.949
 7606TIP3   OH222774   5.965   3.549   2.608
 7606TIP3    H122775   5.936   3.561   2.699
 7606TIP3    H222776   6.040   3.608   2.599
 7607TIP3   OH222777   1.729   4.375   2.853
 7607TIP3    H122778   1.765   4.335   2.773
 7607TIP3    H222779   1.635   4.376   2.839
 7608TIP3   OH222780   5.370   4.200   0.586
 7608TIP3    H122781   5.438   4.259   0.553
 7608TIP3    H222782   5.387   4.117   0.540
 7609TIP3   OH222783   5.193   5.267   3.355
 7609TIP3    H122784   5.140   5.188   3.365
 7609TIP3    H222785   5.166   5.303   3.270
 7610TIP3   OH222786   0.288   2.942   2.928
 7610TIP3    H122787   0.308   2.942   3.022
 7610TIP3    H222788   0.255   3.031   2.911
 7611TIP3   OH222789   4.442   5.769   2.819
 7611TIP3    H122790   4.357   5.779   2.776
 7611TIP3    H222791   4.476   5.858   2.824
 7612TIP3   OH222792   5.719   3.198   4.357
 7612TIP3    H122793   5.742   3.106   4.365
 7612TIP3    H222794   5.626   3.198   4.337
 7613TIP3   OH222795   0.776   7.209   4.844
 7613TIP3    H122796   0.871   7.214   4.829
 7613TIP3    H222797   0.762   7.122   4.881
 7614TIP3   OH222798   7.984   0.554   0.425
 7614TIP3    H122799   8.071   0.521   0.446
 7614TIP3    H222800   7.925   0.480   0.443
 7615TIP3   OH222801   3.283   1.805   5.189
 7615TIP3    H122802   3.268   1.841   5.102
 7615TIP3    H222803   3.319   1.717   5.172
 7616TIP3   OH222804   3.099   0.514   0.483
 7616TIP3    H122805   3.082   0.527   0.389
 7616TIP3    H222806   3.051   0.584   0.526
 7617TIP3   OH222807   5.879   1.773   5.626
 7617TIP3    H122808   5.798   1.733   5.658
 7617TIP3    H222809   5.940   1.766   5.700
 7618TIP3   OH222810   5.606   7.012   4.290
 7618TIP3    H122811   5.530   7.041   4.340
 7618TIP3    H222812   5.568   6.967   4.214
 7619TIP3   OH222813   6.178   6.885   2.652
 7619TIP3    H122814   6.267   6.857   2.673
 7619TIP3    H222815   6.155   6.946   2.722
 7620TIP3   OH222816   7.013   7.713   4.731
 7620TIP3    H122817   6.998   7.619   4.718
 7620TIP3    H222818   6.927   7.753   4.720
 7621TIP3   OH222819   6.918   1.760   1.146
 7621TIP3    H122820   6.941   1.783   1.056
 7621TIP3    H222821   6.853   1.825   1.172
 7622TIP3   OH222822   7.985   3.463   5.657
 7622TIP3    H122823   7.891   3.463   5.671
 7622TIP3    H222824   8.020   3.413   5.731
 7623TIP3   OH222825   1.821   5.629   4.377
 7623TIP3    H122826   1.902   5.647   4.424
 7623TIP3    H222827   1.771   5.710   4.382
 7624TIP3   OH222828   2.159   3.088   3.316
 7624TIP3    H122829   2.208   3.028   3.259
 7624TIP3    H222830   2.201   3.079   3.402
 7625TIP3   OH222831   1.939   5.919   5.489
 7625TIP3    H122832   1.932   5.952   5.400
 7625TIP3    H222833   1.994   5.841   5.482
 7626TIP3   OH222834   4.772   2.022   4.892
 7626TIP3    H122835   4.836   2.069   4.946
 7626TIP3    H222836   4.735   2.089   4.835
 7627TIP3   OH222837   8.217   4.013   0.343
 7627TIP3    H122838   8.244   4.103   0.327
 7627TIP3    H222839   8.167   3.989   0.265
 7628TIP3   OH222840   5.524   1.357   6.201
 7628TIP3    H122841   5.471   1.408   6.263
 7628TIP3    H222842   5.596   1.322   6.254
 7629TIP3   OH222843   3.244   3.159   4.204
 7629TIP3    H122844   3.302   3.190   4.134
 7629TIP3    H222845   3.296   3.094   4.251
 7630TIP3   OH222846   4.700   1.375   6.083
 7630TIP3    H122847   4.630   1.315   6.107
 7630TIP3    H222848   4.714   1.358   5.989
 7631TIP3   OH222849   8.170   6.975   6.683
 7631TIP3    H122850   8.076   6.984   6.696
 7631TIP3    H222851   8.210   7.022   6.757
 7632TIP3   OH222852   4.277   7.400   4.259
 7632TIP3    H122853   4.284   7.424   4.351
 7632TIP3    H222854   4.344   7.453   4.215
 7633TIP3   OH222855   4.046   2.273   5.679
 7633TIP3    H122856   4.122   2.257   5.734
 7633TIP3    H222857   4.041   2.369   5.672
 7634TIP3   OH222858   4.356   7.106   1.398
 7634TIP3    H122859   4.436   7.100   1.347
 7634TIP3    H222860   4.370   7.180   1.457
 7635TIP3   OH222861   6.837   0.817   2.383
 7635TIP3    H122862   6.929   0.818   2.357
 7635TIP3    H222863   6.835   0.862   2.468
 7636TIP3   OH222864   6.977   7.131   5.837
 7636TIP3    H122865   7.048   7.185   5.871
 7636TIP3    H222866   7.011   7.042   5.839
 7637TIP3   OH222867   4.802   7.442   0.909
 7637TIP3    H122868   4.789   7.408   0.820
 7637TIP3    H222869   4.714   7.442   0.947
 7638TIP3   OH222870   7.158   3.006   6.048
 7638TIP3    H122871   7.114   2.923   6.032
 7638TIP3    H222872   7.199   3.027   5.964
 7639TIP3   OH222873   2.323   6.437   3.140
 7639TIP3    H122874   2.410   6.404   3.117
 7639TIP3    H222875   2.279   6.446   3.056
 7640TIP3   OH222876   0.302   7.716   0.287
 7640TIP3    H122877   0.251   7.652   0.336
 7640TIP3    H222878   0.278   7.701   0.195
 7641TIP3   OH222879   2.448   6.999   3.886
 7641TIP3    H122880   2.381   7.062   3.915
 7641TIP3    H222881   2.411   6.960   3.806
 7642TIP3   OH222882   2.843   7.020   5.280
 7642TIP3    H122883   2.892   6.947   5.319
 7642TIP3    H222884   2.875   7.097   5.327
 7643TIP3   OH222885  -0.023   6.526   3.628
 7643TIP3    H122886   0.051   6.512   3.687
 7643TIP3    H222887  -0.020   6.451   3.568
 7644TIP3   OH222888   5.677   2.621   1.759
 7644TIP3    H122889   5.637   2.598   1.843
 7644TIP3    H222890   5.730   2.699   1.779
 7645TIP3   OH222891   4.788   0.983   5.711
 7645TIP3    H122892   4.836   0.902   5.699
 7645TIP3    H222893   4.749   1.001   5.626
 7646TIP3   OH222894   7.670   2.524   3.319
 7646TIP3    H122895   7.757   2.562   3.301
 7646TIP3    H222896   7.609   2.588   3.281
 7647TIP3   OH222897   0.305   2.934   3.197
 7647TIP3    H122898   0.381   2.908   3.250
 7647TIP3    H222899   0.292   3.026   3.218
 7648TIP3   OH222900   1.231   5.076   5.536
 7648TIP3    H122901   1.168   5.148   5.540
 7648TIP3    H222902   1.177   4.997   5.534
 7649TIP3   OH222903   4.071   4.486   2.857
 7649TIP3    H122904   4.078   4.394   2.884
 7649TIP3    H222905   4.045   4.482   2.765
 7650TIP3   OH222906   4.905   6.351   5.986
 7650TIP3    H122907   4.822   6.381   6.021
 7650TIP3    H222908   4.923   6.409   5.912
 7651TIP3   OH222909   6.537   5.085   0.672
 7651TIP3    H122910   6.484   5.145   0.619
 7651TIP3    H222911   6.578   5.027   0.609
 7652TIP3   OH222912   6.547   0.103   4.333
 7652TIP3    H122913   6.500   0.181   4.365
 7652TIP3    H222914   6.634   0.109   4.373
 7653TIP3   OH222915   6.956   6.777   1.938
 7653TIP3    H122916   7.039   6.766   1.985
 7653TIP3    H222917   6.982   6.809   1.852
 7654TIP3   OH222918   0.160   7.296   3.033
 7654TIP3    H122919   0.088   7.288   2.971
 7654TIP3    H222920   0.205   7.211   3.030
 7655TIP3   OH222921   3.654   0.465   1.822
 7655TIP3    H122922   3.588   0.397   1.832
 7655TIP3    H222923   3.716   0.450   1.892
 7656TIP3   OH222924   6.961   4.358   2.585
 7656TIP3    H122925   6.946   4.382   2.494
 7656TIP3    H222926   7.010   4.276   2.580
 7657TIP3   OH222927   2.901   3.405   2.931
 7657TIP3    H122928   2.990   3.384   2.962
 7657TIP3    H222929   2.843   3.359   2.991
 7658TIP3   OH222930   6.616   1.624   0.763
 7658TIP3    H122931   6.695   1.592   0.806
 7658TIP3    H222932   6.567   1.669   0.832
 7659TIP3   OH222933   1.230   3.443   6.637
 7659TIP3    H122934   1.297   3.385   6.675
 7659TIP3    H222935   1.274   3.527   6.627
 7660TIP3   OH222936   2.937   1.506   5.663
 7660TIP3    H122937   2.847   1.529   5.685
 7660TIP3    H222938   2.989   1.580   5.694
 7661TIP3   OH222939   3.968   0.598   3.513
 7661TIP3    H122940   4.008   0.515   3.488
 7661TIP3    H222941   3.953   0.591   3.607
 7662TIP3   OH222942   7.914   4.271   2.512
 7662TIP3    H122943   7.947   4.339   2.452
 7662TIP3    H222944   7.932   4.189   2.467
 7663TIP3   OH222945   3.011   0.691   6.155
 7663TIP3    H122946   3.060   0.763   6.194
 7663TIP3    H222947   2.943   0.671   6.219
 7664TIP3   OH222948   7.441   7.356   6.664
 7664TIP3    H122949   7.368   7.405   6.626
 7664TIP3    H222950   7.460   7.401   6.747
 7665TIP3   OH222951   1.844   3.238   4.828
 7665TIP3    H122952   1.880   3.150   4.837
 7665TIP3    H222953   1.920   3.295   4.824
 7666TIP3   OH222954   4.765   4.609   1.519
 7666TIP3    H122955   4.753   4.516   1.499
 7666TIP3    H222956   4.841   4.635   1.467
 7667TIP3   OH222957   0.545   3.728   4.100
 7667TIP3    H122958   0.485   3.667   4.057
 7667TIP3    H222959   0.572   3.682   4.180
 7668TIP3   OH222960   3.915   3.697   4.882
 7668TIP3    H122961   3.894   3.747   4.961
 7668TIP3    H222962   3.876   3.749   4.811
 7669TIP3   OH222963   0.066   5.115   0.246
 7669TIP3    H122964   0.107   5.050   0.304
 7669TIP3    H222965  -0.026   5.090   0.243
 7670TIP3   OH222966   7.126   5.136   5.156
 7670TIP3    H122967   7.154   5.049   5.183
 7670TIP3    H222968   7.118   5.185   5.238
 7671TIP3   OH222969   3.305   5.745   2.986
 7671TIP3    H122970   3.270   5.656   2.985
 7671TIP3    H222971   3.274   5.784   2.904
 7672TIP3   OH222972   6.524   2.539   3.870
 7672TIP3    H122973   6.546   2.445   3.869
 7672TIP3    H222974   6.486   2.553   3.956
 7673TIP3   OH222975   3.142   2.908   3.951
 7673TIP3    H122976   3.209   2.905   3.883
 7673TIP3    H222977   3.083   2.836   3.929
 7674TIP3   OH222978   4.427   6.229   4.783
 7674TIP3    H122979   4.431   6.276   4.700
 7674TIP3    H222980   4.453   6.139   4.762
 7675TIP3   OH222981   5.580   5.461   2.420
 7675TIP3    H122982   5.601   5.367   2.426
 7675TIP3    H222983   5.644   5.497   2.359
 7676TIP3   OH222984   6.791   6.686   4.426
 7676TIP3    H122985   6.755   6.770   4.456
 7676TIP3    H222986   6.716   6.640   4.389
 7677TIP3   OH222987   3.392   0.522   5.793
 7677TIP3    H122988   3.383   0.427   5.786
 7677TIP3    H222989   3.482   0.540   5.763
 7678TIP3   OH222990   2.345   1.200   2.215
 7678TIP3    H122991   2.366   1.109   2.194
 7678TIP3    H222992   2.256   1.196   2.250
 7679TIP3   OH222993   7.273   7.134   4.314
 7679TIP3    H122994   7.263   7.129   4.219
 7679TIP3    H222995   7.367   7.126   4.328
 7680TIP3   OH222996   7.462   0.812   1.797
 7680TIP3    H122997   7.387   0.753   1.793
 7680TIP3    H222998   7.523   0.779   1.731
 7681TIP3   OH222999   7.400   4.153   3.322
 7681TIP3    H123000   7.375   4.219   3.258
 7681TIP3    H223001   7.318   4.108   3.343
 7682TIP3   OH223002   2.050   0.182   5.936
 7682TIP3    H123003   2.042   0.266   5.981
 7682TIP3    H223004   2.045   0.116   6.005
 7683TIP3   OH223005   5.308   2.222   2.219
 7683TIP3    H123006   5.334   2.193   2.131
 7683TIP3    H223007   5.376   2.186   2.276
 7684TIP3   OH223008   2.405   1.577   4.572
 7684TIP3    H123009   2.489   1.531   4.576
 7684TIP3    H223010   2.426   1.668   4.594
 7685TIP3   OH223011   2.671   6.414   6.443
 7685TIP3    H123012   2.687   6.467   6.364
 7685TIP3    H223013   2.595   6.361   6.421
 7686TIP3   OH223014   3.184   2.571   3.914
 7686TIP3    H123015   3.152   2.501   3.858
 7686TIP3    H223016   3.116   2.583   3.979
 7687TIP3   OH223017   2.858   2.729   4.208
 7687TIP3    H123018   2.788   2.778   4.166
 7687TIP3    H223019   2.877   2.657   4.148
 7688TIP3   OH223020   0.886   4.015   0.890
 7688TIP3    H123021   0.835   4.085   0.850
 7688TIP3    H223022   0.974   4.025   0.854
 7689TIP3   OH223023   7.709   1.047   3.422
 7689TIP3    H123024   7.799   1.022   3.399
 7689TIP3    H223025   7.687   1.116   3.359
 7690TIP3   OH223026   2.588   6.244   3.025
 7690TIP3    H123027   2.610   6.244   2.932
 7690TIP3    H223028   2.673   6.248   3.070
 7691TIP3   OH223029   5.254   5.952   5.443
 7691TIP3    H123030   5.240   5.954   5.537
 7691TIP3    H223031   5.214   5.869   5.414
 7692TIP3   OH223032   1.393   4.465   3.422
 7692TIP3    H123033   1.453   4.540   3.423
 7692TIP3    H223034   1.329   4.486   3.354
 7693TIP3   OH223035   0.051   6.743   6.675
 7693TIP3    H123036  -0.039   6.751   6.706
 7693TIP3    H223037   0.082   6.660   6.711
 7694TIP3   OH223038   4.566   5.782   4.748
 7694TIP3    H123039   4.538   5.709   4.803
 7694TIP3    H223040   4.591   5.742   4.665
 7695TIP3   OH223041   7.492   3.419   0.664
 7695TIP3    H123042   7.404   3.427   0.627
 7695TIP3    H223043   7.526   3.337   0.627
 7696TIP3   OH223044   6.040   3.014   4.554
 7696TIP3    H123045   6.118   2.995   4.607
 7696TIP3    H223046   6.014   2.930   4.519
 7697TIP3   OH223047   0.897   5.257   3.272
 7697TIP3    H123048   0.805   5.233   3.259
 7697TIP3    H223049   0.944   5.174   3.269
 7698TIP3   OH223050   5.611   3.255   0.554
 7698TIP3    H123051   5.677   3.260   0.623
 7698TIP3    H223052   5.660   3.235   0.475
 7699TIP3   OH223053   6.942   7.450   5.949
 7699TIP3    H123054   6.859   7.443   5.901
 7699TIP3    H223055   6.947   7.542   5.974
 7700TIP3   OH223056   2.258   2.300  -0.011
 7700TIP3    H123057   2.242   2.377   0.043
 7700TIP3    H223058   2.353   2.289  -0.011
 7701TIP3   OH223059   3.422   2.889   5.535
 7701TIP3    H123060   3.412   2.885   5.440
 7701TIP3    H223061   3.355   2.950   5.565
 7702TIP3   OH223062   0.831   3.371   0.996
 7702TIP3    H123063   0.889   3.333   1.063
 7702TIP3    H223064   0.872   3.346   0.913
 7703TIP3   OH223065   2.959   1.563   1.560
 7703TIP3    H123066   2.938   1.470   1.556
 7703TIP3    H223067   2.876   1.607   1.539
 7704TIP3   OH223068   0.698   0.256   6.415
 7704TIP3    H123069   0.670   0.215   6.497
 7704TIP3    H223070   0.759   0.324   6.442
 7705TIP3   OH223071   7.205   4.136   6.472
 7705TIP3    H123072   7.257   4.184   6.408
 7705TIP3    H223073   7.145   4.083   6.420
 7706TIP3   OH223074   3.470   2.962   2.601
 7706TIP3    H123075   3.563   2.969   2.577
 7706TIP3    H223076   3.430   3.042   2.568
 7707TIP3   OH223077   5.718   3.724   0.956
 7707TIP3    H123078   5.790   3.683   0.907
 7707TIP3    H223079   5.734   3.698   1.047
 7708TIP3   OH223080   2.096   0.890   4.949
 7708TIP3    H123081   2.106   0.851   4.862
 7708TIP3    H223082   2.077   0.815   5.007
 7709TIP3   OH223083   3.824   6.641   6.291
 7709TIP3    H123084   3.884   6.569   6.271
 7709TIP3    H223085   3.862   6.684   6.367
 7710TIP3   OH223086   4.364   2.306   6.070
 7710TIP3    H123087   4.381   2.232   6.128
 7710TIP3    H223088   4.426   2.374   6.098
 7711TIP3   OH223089   4.339   4.680   5.252
 7711TIP3    H123090   4.393   4.680   5.174
 7711TIP3    H223091   4.255   4.718   5.224
 7712TIP3   OH223092   2.269   6.814   6.217
 7712TIP3    H123093   2.310   6.782   6.297
 7712TIP3    H223094   2.281   6.742   6.154
 7713TIP3   OH223095   5.457   6.977   5.855
 7713TIP3    H123096   5.498   7.020   5.930
 7713TIP3    H223097   5.476   7.035   5.781
 7714TIP3   OH223098   5.413   6.471   4.936
 7714TIP3    H123099   5.425   6.442   5.026
 7714TIP3    H223100   5.332   6.428   4.907
 7715TIP3   OH223101   2.152   2.482   3.583
 7715TIP3    H123102   2.225   2.442   3.630
 7715TIP3    H223103   2.189   2.562   3.546
 7716TIP3   OH223104   5.470   3.949   3.131
 7716TIP3    H123105   5.393   3.980   3.083
 7716TIP3    H223106   5.509   4.028   3.169
 7717TIP3   OH223107   6.665   2.431   1.009
 7717TIP3    H123108   6.636   2.488   1.080
 7717TIP3    H223109   6.720   2.487   0.954
 7718TIP3   OH223110   0.129   5.311   4.610
 7718TIP3    H123111   0.198   5.339   4.549
 7718TIP3    H223112   0.176   5.258   4.675
 7719TIP3   OH223113   0.950   3.699   4.878
 7719TIP3    H123114   0.904   3.717   4.960
 7719TIP3    H223115   0.882   3.705   4.811
 7720TIP3   OH223116   1.879   0.293   6.286
 7720TIP3    H123117   1.954   0.343   6.253
 7720TIP3    H223118   1.895   0.285   6.380
 7721TIP3   OH223119   1.055   4.208   3.984
 7721TIP3    H123120   1.040   4.177   3.895
 7721TIP3    H223121   1.136   4.164   4.011
 7722TIP3   OH223122   5.751   1.547   6.620
 7722TIP3    H123123   5.795   1.496   6.551
 7722TIP3    H223124   5.738   1.484   6.691
 7723TIP3   OH223125   2.919   3.359   3.232
 7723TIP3    H123126   2.994   3.391   3.283
 7723TIP3    H223127   2.868   3.438   3.214
 7724TIP3   OH223128   5.839   0.800   5.050
 7724TIP3    H123129   5.829   0.859   5.125
 7724TIP3    H223130   5.933   0.803   5.030
 7725TIP3   OH223131   5.098   1.476   2.842
 7725TIP3    H123132   5.094   1.554   2.787
 7725TIP3    H223133   5.044   1.411   2.796
 7726TIP3   OH223134   3.081   2.790   2.802
 7726TIP3    H123135   3.133   2.862   2.838
 7726TIP3    H223136   3.136   2.713   2.814
 7727TIP3   OH223137   6.466   3.833   6.499
 7727TIP3    H123138   6.531   3.903   6.493
 7727TIP3    H223139   6.516   3.757   6.531
 7728TIP3   OH223140   1.761   2.845   4.210
 7728TIP3    H123141   1.802   2.777   4.157
 7728TIP3    H223142   1.833   2.881   4.262
 7729TIP3   OH223143   0.752   6.320   1.223
 7729TIP3    H123144   0.697   6.315   1.301
 7729TIP3    H223145   0.810   6.395   1.239
 7730TIP3   OH223146   5.248   3.602   4.621
 7730TIP3    H123147   5.169   3.552   4.603
 7730TIP3    H223148   5.282   3.626   4.534
 7731TIP3   OH223149   4.873   0.468   1.643
 7731TIP3    H123150   4.947   0.453   1.584
 7731TIP3    H223151   4.797   0.473   1.585
 7732TIP3   OH223152   0.339   4.295   6.141
 7732TIP3    H123153   0.403   4.360   6.112
 7732TIP3    H223154   0.389   4.214   6.151
 7733TIP3   OH223155   6.659   5.555   1.312
 7733TIP3    H123156   6.734   5.507   1.348
 7733TIP3    H223157   6.673   5.645   1.340
 7734TIP3   OH223158   5.520   7.152   5.488
 7734TIP3    H123159   5.469   7.194   5.558
 7734TIP3    H223160   5.608   7.187   5.499
 7735TIP3   OH223161   7.363   0.866   3.633
 7735TIP3    H123162   7.388   0.957   3.619
 7735TIP3    H223163   7.412   0.840   3.711
 7736TIP3   OH223164   7.753   5.534   2.141
 7736TIP3    H123165   7.681   5.483   2.104
 7736TIP3    H223166   7.772   5.601   2.075
 7737TIP3   OH223167   0.217   2.488   5.845
 7737TIP3    H123168   0.155   2.508   5.774
 7737TIP3    H223169   0.278   2.426   5.806
 7738TIP3   OH223170   1.013   3.874   0.646
 7738TIP3    H123171   1.068   3.795   0.650
 7738TIP3    H223172   1.066   3.942   0.688
 7739TIP3   OH223173   6.585   2.157   1.978
 7739TIP3    H123174   6.535   2.230   1.942
 7739TIP3    H223175   6.520   2.093   2.005
 7740TIP3   OH223176   2.699   1.298   5.977
 7740TIP3    H123177   2.626   1.357   5.993
 7740TIP3    H223178   2.688   1.271   5.886
 7741TIP3   OH223179   5.356   6.544   5.467
 7741TIP3    H123180   5.297   6.618   5.482
 7741TIP3    H223181   5.427   6.580   5.414
 7742TIP3   OH223182   3.179   4.042   6.024
 7742TIP3    H123183   3.207   4.010   6.110
 7742TIP3    H223184   3.115   4.111   6.044
 7743TIP3   OH223185   5.688   3.920   4.453
 7743TIP3    H123186   5.666   3.849   4.393
 7743TIP3    H223187   5.744   3.881   4.519
 7744TIP3   OH223188   0.253   5.710   5.807
 7744TIP3    H123189   0.196   5.641   5.772
 7744TIP3    H223190   0.329   5.711   5.748
 7745TIP3   OH223191   1.266   4.684   0.910
 7745TIP3    H123192   1.194   4.703   0.850
 7745TIP3    H223193   1.226   4.630   0.978
 7746TIP3   OH223194   6.050   4.996   6.252
 7746TIP3    H123195   5.960   4.995   6.285
 7746TIP3    H223196   6.097   5.052   6.315
 7747TIP3   OH223197   7.790   6.430   4.240
 7747TIP3    H123198   7.813   6.522   4.228
 7747TIP3    H223199   7.739   6.408   4.163
 7748TIP3   OH223200   5.219   7.260   5.231
 7748TIP3    H123201   5.189   7.338   5.277
 7748TIP3    H223202   5.218   7.191   5.297
 7749TIP3   OH223203   7.351   5.701   3.489
 7749TIP3    H123204   7.374   5.719   3.398
 7749TIP3    H223205   7.273   5.754   3.506
 7750TIP3   OH223206   4.914   4.143   6.129
 7750TIP3    H123207   4.959   4.086   6.066
 7750TIP3    H223208   4.984   4.196   6.168
 7751TIP3   OH223209   0.230   5.637   2.633
 7751TIP3    H123210   0.289   5.712   2.623
 7751TIP3    H223211   0.185   5.631   2.549
 7752TIP3   OH223212   3.621   7.350   5.581
 7752TIP3    H123213   3.618   7.258   5.557
 7752TIP3    H223214   3.618   7.350   5.677
 7753TIP3   OH223215   6.500   3.439   0.304
 7753TIP3    H123216   6.478   3.384   0.229
 7753TIP3    H223217   6.416   3.466   0.340
 7754TIP3   OH223218   7.984   7.263   3.371
 7754TIP3    H123219   7.912   7.243   3.430
 7754TIP3    H223220   8.019   7.346   3.401
 7755TIP3   OH223221   6.977   0.648   2.033
 7755TIP3    H123222   6.889   0.611   2.019
 7755TIP3    H223223   7.037   0.575   2.014
 7756TIP3   OH223224   1.945   4.414   0.839
 7756TIP3    H123225   2.027   4.463   0.832
 7756TIP3    H223226   1.942   4.388   0.931
 7757TIP3   OH223227   0.722   1.169   0.350
 7757TIP3    H123228   0.811   1.186   0.319
 7757TIP3    H223229   0.734   1.130   0.437
 7758TIP3   OH223230   5.795   1.038   3.018
 7758TIP3    H123231   5.811   1.018   2.925
 7758TIP3    H223232   5.878   1.074   3.050
 7759TIP3   OH223233   1.028   6.588   0.737
 7759TIP3    H123234   1.038   6.580   0.642
 7759TIP3    H223235   0.940   6.624   0.749
 7760TIP3   OH223236   0.923   3.868   0.085
 7760TIP3    H123237   0.994   3.848   0.146
 7760TIP3    H223238   0.951   3.948   0.040
 7761TIP3   OH223239   2.981   0.792   2.985
 7761TIP3    H123240   2.917   0.852   2.946
 7761TIP3    H223241   2.928   0.733   3.039
 7762TIP3   OH223242   3.533   0.392   0.566
 7762TIP3    H123243   3.572   0.335   0.632
 7762TIP3    H223244   3.447   0.354   0.548
 7763TIP3   OH223245   5.292   6.432   0.951
 7763TIP3    H123246   5.292   6.512   0.899
 7763TIP3    H223247   5.262   6.364   0.891
 7764TIP3   OH223248   4.690   5.620   0.262
 7764TIP3    H123249   4.721   5.648   0.348
 7764TIP3    H223250   4.626   5.687   0.236
 7765TIP3   OH223251   1.596   0.388   2.201
 7765TIP3    H123252   1.620   0.476   2.231
 7765TIP3    H223253   1.679   0.344   2.187
 7766TIP3   OH223254  -0.031   5.208   3.215
 7766TIP3    H123255   0.033   5.254   3.268
 7766TIP3    H223256   0.016   5.185   3.135
 7767TIP3   OH223257   2.029   6.792   1.143
 7767TIP3    H123258   2.032   6.755   1.055
 7767TIP3    H223259   1.942   6.768   1.175
 7768TIP3   OH223260   4.838   2.402   3.185
 7768TIP3    H123261   4.764   2.435   3.133
 7768TIP3    H223262   4.899   2.367   3.119
 7769TIP3   OH223263   8.006   5.877   4.005
 7769TIP3    H123264   7.987   5.820   3.930
 7769TIP3    H223265   7.949   5.845   4.074
 7770TIP3   OH223266   4.105   2.199   6.003
 7770TIP3    H123267   4.124   2.111   6.037
 7770TIP3    H223268   4.189   2.231   5.971
 7771TIP3   OH223269   1.145   7.543   5.887
 7771TIP3    H123270   1.189   7.469   5.846
 7771TIP3    H223271   1.099   7.505   5.962
 7772TIP3   OH223272   4.190   4.020   3.505
 7772TIP3    H123273   4.242   3.961   3.450
 7772TIP3    H223274   4.113   4.041   3.451
 7773TIP3   OH223275   6.915   2.391   4.318
 7773TIP3    H123276   6.899   2.346   4.401
 7773TIP3    H223277   6.932   2.320   4.255
 7774TIP3   OH223278   2.216   4.045   4.791
 7774TIP3    H123279   2.214   4.061   4.697
 7774TIP3    H223280   2.126   4.057   4.819
 7775TIP3   OH223281   6.278   4.030   1.166
 7775TIP3    H123282   6.285   4.010   1.072
 7775TIP3    H223283   6.188   4.005   1.189
 7776TIP3   OH223284   4.431   1.279   6.180
 7776TIP3    H123285   4.392   1.199   6.145
 7776TIP3    H223286   4.392   1.288   6.267
 7777TIP3   OH223287   2.438   6.472   5.030
 7777TIP3    H123288   2.453   6.407   5.098
 7777TIP3    H223289   2.417   6.421   4.951
 7778TIP3   OH223290   3.132   2.902   2.177
 7778TIP3    H123291   3.078   2.934   2.250
 7778TIP3    H223292   3.187   2.976   2.153
 7779TIP3   OH223293   6.982   7.700   6.022
 7779TIP3    H123294   7.056   7.717   5.964
 7779TIP3    H223295   6.991   7.764   6.092
 7780TIP3   OH223296   0.512   1.325   0.488
 7780TIP3    H123297   0.588   1.279   0.452
 7780TIP3    H223298   0.460   1.256   0.529
 7781TIP3   OH223299   5.823   2.841   1.800
 7781TIP3    H123300   5.798   2.871   1.713
 7781TIP3    H223301   5.908   2.799   1.787
 7782TIP3   OH223302   4.410   3.639   3.733
 7782TIP3    H123303   4.415   3.550   3.768
 7782TIP3    H223304   4.441   3.631   3.643
 7783TIP3   OH223305   1.334   0.707   1.309
 7783TIP3    H123306   1.330   0.623   1.355
 7783TIP3    H223307   1.252   0.751   1.332
 7784TIP3   OH223308   5.142   7.040   4.516
 7784TIP3    H123309   5.054   7.047   4.479
 7784TIP3    H223310   5.161   7.128   4.549
 7785TIP3   OH223311   3.516   2.552   4.232
 7785TIP3    H123312   3.554   2.516   4.312
 7785TIP3    H223313   3.585   2.544   4.166
 7786TIP3   OH223314   4.597   7.161   5.503
 7786TIP3    H123315   4.663   7.095   5.482
 7786TIP3    H223316   4.573   7.142   5.594
 7787TIP3   OH223317   5.412   0.041   5.294
 7787TIP3    H123318   5.401  -0.016   5.218
 7787TIP3    H223319   5.395  -0.015   5.370
 7788TIP3   OH223320   1.153   5.585   3.786
 7788TIP3    H123321   1.103   5.667   3.788
 7788TIP3    H223322   1.089   5.519   3.760
 7789TIP3   OH223323   5.835   3.110   5.143
 7789TIP3    H123324   5.909   3.055   5.169
 7789TIP3    H223325   5.794   3.136   5.225
 7790TIP3   OH223326   2.259   1.224   6.258
 7790TIP3    H123327   2.327   1.165   6.226
 7790TIP3    H223328   2.275   1.230   6.352
 7791TIP3   OH223329   2.269   1.579   6.155
 7791TIP3    H123330   2.199   1.644   6.169
 7791TIP3    H223331   2.234   1.498   6.189
 7792TIP3   OH223332   7.433   1.634   1.752
 7792TIP3    H123333   7.421   1.709   1.810
 7792TIP3    H223334   7.373   1.568   1.785
 7793TIP3   OH223335   6.106   0.635   1.739
 7793TIP3    H123336   6.048   0.667   1.670
 7793TIP3    H223337   6.183   0.692   1.735
 7794TIP3   OH223338   5.655   1.418   1.588
 7794TIP3    H123339   5.677   1.393   1.678
 7794TIP3    H223340   5.624   1.508   1.595
 7795TIP3   OH223341   0.130   7.606   2.162
 7795TIP3    H123342   0.138   7.532   2.102
 7795TIP3    H223343   0.216   7.613   2.203
 7796TIP3   OH223344   5.129   3.883   2.199
 7796TIP3    H123345   5.123   3.888   2.294
 7796TIP3    H223346   5.210   3.836   2.183
 7797TIP3   OH223347   1.947   1.906   4.143
 7797TIP3    H123348   1.937   1.959   4.063
 7797TIP3    H223349   1.996   1.829   4.114
 7798TIP3   OH223350   4.221   4.659   0.557
 7798TIP3    H123351   4.281   4.732   0.573
 7798TIP3    H223352   4.172   4.685   0.478
 7799TIP3   OH223353   2.410   5.951   1.629
 7799TIP3    H123354   2.495   5.989   1.655
 7799TIP3    H223355   2.411   5.863   1.667
 7800TIP3   OH223356   7.305   1.634   0.837
 7800TIP3    H123357   7.227   1.657   0.786
 7800TIP3    H223358   7.316   1.708   0.897
 7801TIP3   OH223359   2.781   0.244   3.553
 7801TIP3    H123360   2.865   0.234   3.598
 7801TIP3    H223361   2.776   0.169   3.494
 7802TIP3   OH223362   7.116   1.026   6.652
 7802TIP3    H123363   7.141   1.114   6.622
 7802TIP3    H223364   7.039   1.041   6.707
 7803TIP3   OH223365   5.561   0.424   1.638
 7803TIP3    H123366   5.508   0.392   1.712
 7803TIP3    H223367   5.551   0.519   1.643
 7804TIP3   OH223368   4.299   3.866   3.900
 7804TIP3    H123369   4.357   3.808   3.852
 7804TIP3    H223370   4.254   3.809   3.962
 7805TIP3   OH223371   0.405   7.479   5.339
 7805TIP3    H123372   0.346   7.544   5.377
 7805TIP3    H223373   0.350   7.402   5.324
 7806TIP3   OH223374   7.833   1.280   2.570
 7806TIP3    H123375   7.751   1.296   2.616
 7806TIP3    H223376   7.823   1.324   2.485
 7807TIP3   OH223377   6.238   5.637   5.358
 7807TIP3    H123378   6.330   5.657   5.375
 7807TIP3    H223379   6.202   5.718   5.323
 7808TIP3   OH223380   5.266   1.783   6.322
 7808TIP3    H123381   5.277   1.717   6.253
 7808TIP3    H223382   5.347   1.835   6.318
 7809TIP3   OH223383   6.995   3.678   2.580
 7809TIP3    H123384   6.975   3.604   2.637
 7809TIP3    H223385   6.940   3.749   2.614
 7810TIP3   OH223386   8.109   7.069   4.949
 7810TIP3    H123387   8.072   7.047   5.034
 7810TIP3    H223388   8.071   7.155   4.928
 7811TIP3   OH223389   8.058   1.646   1.534
 7811TIP3    H123390   8.040   1.695   1.454
 7811TIP3    H223391   8.015   1.562   1.522
 7812TIP3   OH223392   2.124   1.696   4.706
 7812TIP3    H123393   2.152   1.638   4.635
 7812TIP3    H223394   2.094   1.637   4.775
 7813TIP3   OH223395   6.746   4.696   6.700
 7813TIP3    H123396   6.664   4.711   6.654
 7813TIP3    H223397   6.814   4.716   6.636
 7814TIP3   OH223398   3.012   2.168   6.250
 7814TIP3    H123399   2.981   2.184   6.339
 7814TIP3    H223400   2.933   2.178   6.196
 7815TIP3   OH223401   7.084   4.573   5.569
 7815TIP3    H123402   7.164   4.580   5.517
 7815TIP3    H223403   7.116   4.564   5.659
 7816TIP3   OH223404   2.407   6.076   4.934
 7816TIP3    H123405   2.444   5.990   4.952
 7816TIP3    H223406   2.340   6.060   4.867
 7817TIP3   OH223407   7.961   0.985   0.602
 7817TIP3    H123408   8.045   0.940   0.589
 7817TIP3    H223409   7.895   0.918   0.583
 7818TIP3   OH223410   7.199   5.014   0.444
 7818TIP3    H123411   7.253   5.077   0.397
 7818TIP3    H223412   7.240   5.006   0.530
 7819TIP3   OH223413   4.009   0.009   3.501
 7819TIP3    H123414   3.968   0.051   3.576
 7819TIP3    H223415   3.956   0.037   3.426
 7820TIP3   OH223416   2.952   7.300   4.120
 7820TIP3    H123417   2.900   7.277   4.044
 7820TIP3    H223418   3.010   7.370   4.090
 7821TIP3   OH223419   7.979   6.354   2.727
 7821TIP3    H123420   8.061   6.338   2.680
 7821TIP3    H223421   7.911   6.317   2.671
 7822TIP3   OH223422   7.081   5.161   3.465
 7822TIP3    H123423   7.090   5.079   3.514
 7822TIP3    H223424   7.166   5.204   3.476
 7823TIP3   OH223425   7.009   6.065   1.706
 7823TIP3    H123426   7.000   5.989   1.764
 7823TIP3    H223427   7.030   6.028   1.620
 7824TIP3   OH223428   1.002   5.932   6.415
 7824TIP3    H123429   1.055   5.857   6.442
 7824TIP3    H223430   0.942   5.896   6.348
 7825TIP3   OH223431   6.814   1.563   0.252
 7825TIP3    H123432   6.794   1.474   0.224
 7825TIP3    H223433   6.788   1.565   0.345
 7826TIP3   OH223434   7.810   2.770   6.470
 7826TIP3    H123435   7.864   2.849   6.475
 7826TIP3    H223436   7.825   2.736   6.381
 7827TIP3   OH223437   6.779   5.355   2.357
 7827TIP3    H123438   6.718   5.338   2.285
 7827TIP3    H223439   6.764   5.282   2.418
 7828TIP3   OH223440   6.413   2.400   1.862
 7828TIP3    H123441   6.442   2.408   1.771
 7828TIP3    H223442   6.331   2.349   1.856
 7829TIP3   OH223443   3.084   5.585   5.398
 7829TIP3    H123444   3.086   5.654   5.331
 7829TIP3    H223445   3.032   5.623   5.469
 7830TIP3   OH223446   8.206   5.763   3.626
 7830TIP3    H123447   8.247   5.724   3.703
 7830TIP3    H223448   8.252   5.723   3.552
 7831TIP3   OH223449   6.160   2.565   3.821
 7831TIP3    H123450   6.158   2.487   3.877
 7831TIP3    H223451   6.241   2.610   3.845
 7832TIP3   OH223452   2.172   0.793   1.422
 7832TIP3    H123453   2.133   0.829   1.501
 7832TIP3    H223454   2.162   0.862   1.356
 7833TIP3   OH223455   3.867   4.511   5.932
 7833TIP3    H123456   3.933   4.458   5.890
 7833TIP3    H223457   3.856   4.587   5.875
 7834TIP3   OH223458   2.993   1.571   6.284
 7834TIP3    H123459   3.045   1.503   6.328
 7834TIP3    H223460   2.930   1.522   6.231
 7835TIP3   OH223461   1.125   5.713   0.297
 7835TIP3    H123462   1.164   5.799   0.313
 7835TIP3    H223463   1.031   5.730   0.290
 7836TIP3   OH223464   0.313   5.384   4.409
 7836TIP3    H123465   0.369   5.462   4.401
 7836TIP3    H223466   0.308   5.349   4.321
 7837TIP3   OH223467   6.925   0.705   5.589
 7837TIP3    H123468   7.005   0.670   5.548
 7837TIP3    H223469   6.911   0.649   5.666
 7838TIP3   OH223470   6.565   5.287   5.533
 7838TIP3    H123471   6.653   5.266   5.501
 7838TIP3    H223472   6.507   5.235   5.477
 7839TIP3   OH223473   4.643   5.610   6.384
 7839TIP3    H123474   4.584   5.537   6.364
 7839TIP3    H223475   4.730   5.576   6.362
 7840TIP3   OH223476   6.154  -0.008   5.967
 7840TIP3    H123477   6.203   0.073   5.981
 7840TIP3    H223478   6.121  -0.001   5.877
 7841TIP3   OH223479   2.973   4.995   0.522
 7841TIP3    H123480   2.936   4.983   0.610
 7841TIP3    H223481   3.067   5.007   0.537
 7842TIP3   OH223482   7.232   1.762   2.912
 7842TIP3    H123483   7.179   1.682   2.915
 7842TIP3    H223484   7.184   1.824   2.967
 7843TIP3   OH223485   7.659   5.646   1.429
 7843TIP3    H123486   7.637   5.720   1.486
 7843TIP3    H223487   7.662   5.571   1.488
 7844TIP3   OH223488   7.953   2.489   2.325
 7844TIP3    H123489   7.936   2.583   2.325
 7844TIP3    H223490   7.987   2.472   2.413
 7845TIP3   OH223491   0.922   2.915   6.412
 7845TIP3    H123492   0.903   3.006   6.434
 7845TIP3    H223493   0.920   2.870   6.497
 7846TIP3   OH223494   3.368   2.901   5.247
 7846TIP3    H123495   3.322   2.858   5.175
 7846TIP3    H223496   3.420   2.969   5.205
 7847TIP3   OH223497   5.287   0.569   4.722
 7847TIP3    H123498   5.373   0.560   4.762
 7847TIP3    H223499   5.285   0.501   4.654
 7848TIP3   OH223500   5.894   1.333   0.108
 7848TIP3    H123501   5.909   1.392   0.034
 7848TIP3    H223502   5.946   1.255   0.087
 7849TIP3   OH223503   3.860   0.883   3.873
 7849TIP3    H123504   3.924   0.949   3.899
 7849TIP3    H223505   3.781   0.933   3.854
 7850TIP3   OH223506   5.899   3.222   6.167
 7850TIP3    H123507   5.968   3.186   6.112
 7850TIP3    H223508   5.904   3.172   6.248
 7851TIP3   OH223509   3.351   3.673   4.092
 7851TIP3    H123510   3.406   3.626   4.029
 7851TIP3    H223511   3.367   3.766   4.073
 7852TIP3   OH223512   7.184   2.418   0.497
 7852TIP3    H123513   7.193   2.335   0.543
 7852TIP3    H223514   7.264   2.466   0.517
 7853TIP3   OH223515   0.916   6.712   6.766
 7853TIP3    H123516   0.885   6.722   6.676
 7853TIP3    H223517   0.992   6.771   6.772
 7854TIP3   OH223518   2.656   0.215   6.384
 7854TIP3    H123519   2.717   0.162   6.332
 7854TIP3    H223520   2.601   0.259   6.320
 7855TIP3   OH223521   7.524   3.522   0.261
 7855TIP3    H123522   7.541   3.564   0.346
 7855TIP3    H223523   7.457   3.576   0.220
 7856TIP3   OH223524   2.085   7.049   4.622
 7856TIP3    H123525   2.005   7.034   4.572
 7856TIP3    H223526   2.056   7.065   4.712
 7857TIP3   OH223527   7.330   4.630   5.451
 7857TIP3    H123528   7.407   4.596   5.495
 7857TIP3    H223529   7.339   4.599   5.361
 7858TIP3   OH223530   7.375   4.853   1.150
 7858TIP3    H123531   7.420   4.778   1.111
 7858TIP3    H223532   7.439   4.923   1.148
 7859TIP3   OH223533   3.111   1.676   4.067
 7859TIP3    H123534   3.171   1.740   4.104
 7859TIP3    H223535   3.166   1.618   4.013
 7860TIP3   OH223536   1.543   6.623   4.592
 7860TIP3    H123537   1.473   6.597   4.534
 7860TIP3    H223538   1.615   6.648   4.534
 7861TIP3   OH223539   1.372   2.177   0.000
 7861TIP3    H123540   1.423   2.105  -0.035
 7861TIP3    H223541   1.344   2.147   0.087
 7862TIP3   OH223542   1.987   0.134   1.892
 7862TIP3    H123543   1.902   0.091   1.893
 7862TIP3    H223544   2.037   0.091   1.962
 7863TIP3   OH223545   8.067   7.017   3.702
 7863TIP3    H123546   8.081   6.951   3.634
 7863TIP3    H223547   8.144   7.075   3.695
 7864TIP3   OH223548   3.766   2.662   4.454
 7864TIP3    H123549   3.701   2.719   4.496
 7864TIP3    H223550   3.815   2.720   4.396
 7865TIP3   OH223551   6.993   7.454   0.927
 7865TIP3    H123552   6.960   7.394   0.860
 7865TIP3    H223553   6.959   7.540   0.901
 7866TIP3   OH223554   0.523   2.461   4.876
 7866TIP3    H123555   0.495   2.543   4.916
 7866TIP3    H223556   0.576   2.487   4.801
 7867TIP3   OH223557   3.281   4.596   1.615
 7867TIP3    H123558   3.359   4.548   1.587
 7867TIP3    H223559   3.295   4.613   1.708
 7868TIP3   OH223560   2.821   3.386   4.268
 7868TIP3    H123561   2.865   3.304   4.290
 7868TIP3    H223562   2.854   3.407   4.180
 7869TIP3   OH223563   2.804   2.620   0.155
 7869TIP3    H123564   2.865   2.549   0.172
 7869TIP3    H223565   2.727   2.578   0.116
 7870TIP3   OH223566   4.825   3.632   2.645
 7870TIP3    H123567   4.761   3.681   2.593
 7870TIP3    H223568   4.897   3.614   2.585
 7871TIP3   OH223569   6.251   3.184   0.898
 7871TIP3    H123570   6.223   3.118   0.833
 7871TIP3    H223571   6.255   3.136   0.980
 7872TIP3   OH223572   2.242   0.629   3.463
 7872TIP3    H123573   2.202   0.545   3.484
 7872TIP3    H223574   2.271   0.664   3.547
 7873TIP3   OH223575   4.020   2.165   4.118
 7873TIP3    H123576   3.982   2.172   4.030
 7873TIP3    H223577   4.105   2.123   4.103
 7874TIP3   OH223578   3.362   1.088   4.824
 7874TIP3    H123579   3.433   1.145   4.793
 7874TIP3    H223580   3.333   1.041   4.746
 7875TIP3   OH223581   2.741   3.254   1.258
 7875TIP3    H123582   2.728   3.200   1.180
 7875TIP3    H223583   2.653   3.284   1.280
 7876TIP3   OH223584   5.240   4.218   4.704
 7876TIP3    H123585   5.242   4.195   4.797
 7876TIP3    H223586   5.295   4.296   4.697
 7877TIP3   OH223587   4.949   6.589   1.710
 7877TIP3    H123588   4.860   6.624   1.708
 7877TIP3    H223589   4.937   6.494   1.718
 7878TIP3   OH223590   3.868   6.434   1.993
 7878TIP3    H123591   3.819   6.471   2.066
 7878TIP3    H223592   3.882   6.507   1.933
 7879TIP3   OH223593   3.094   6.635   4.571
 7879TIP3    H123594   3.114   6.680   4.489
 7879TIP3    H223595   3.024   6.687   4.610
 7880TIP3   OH223596   0.293   0.494   1.663
 7880TIP3    H123597   0.249   0.412   1.685
 7880TIP3    H223598   0.346   0.514   1.740
 7881TIP3   OH223599   1.973   5.298   2.000
 7881TIP3    H123600   1.891   5.289   2.048
 7881TIP3    H223601   1.991   5.210   1.967
 7882TIP3   OH223602   6.121   3.625   1.856
 7882TIP3    H123603   6.104   3.709   1.812
 7882TIP3    H223604   6.039   3.577   1.848
 7883TIP3   OH223605   2.357   7.080   5.684
 7883TIP3    H123606   2.303   7.062   5.607
 7883TIP3    H223607   2.299   7.065   5.758
 7884TIP3   OH223608   4.154   1.258   1.333
 7884TIP3    H123609   4.221   1.269   1.266
 7884TIP3    H223610   4.074   1.239   1.284
 7885TIP3   OH223611   5.067   1.164   1.654
 7885TIP3    H123612   5.100   1.105   1.722
 7885TIP3    H223613   4.973   1.166   1.667
 7886TIP3   OH223614   4.882   4.663   4.770
 7886TIP3    H123615   4.943   4.720   4.722
 7886TIP3    H223616   4.880   4.582   4.719
 7887TIP3   OH223617   1.054   1.284   6.585
 7887TIP3    H123618   1.055   1.310   6.493
 7887TIP3    H223619   1.145   1.262   6.604
 7888TIP3   OH223620   2.723   2.661   4.461
 7888TIP3    H123621   2.781   2.625   4.528
 7888TIP3    H223622   2.780   2.681   4.387
 7889TIP3   OH223623   4.195   1.253   5.933
 7889TIP3    H123624   4.177   1.250   6.027
 7889TIP3    H223625   4.210   1.345   5.915
 7890TIP3   OH223626   6.173   3.540   6.078
 7890TIP3    H123627   6.081   3.566   6.072
 7890TIP3    H223628   6.189   3.532   6.172
 7891TIP3   OH223629   5.213   3.761   6.663
 7891TIP3    H123630   5.292   3.728   6.621
 7891TIP3    H223631   5.225   3.740   6.756
 7892TIP3   OH223632   7.920   2.992   0.539
 7892TIP3    H123633   7.935   3.086   0.534
 7892TIP3    H223634   7.900   2.976   0.631
 7893TIP3   OH223635   0.433   7.548   1.241
 7893TIP3    H123636   0.415   7.544   1.147
 7893TIP3    H223637   0.397   7.466   1.276
 7894TIP3   OH223638   4.989   4.033   1.695
 7894TIP3    H123639   4.912   4.068   1.740
 7894TIP3    H223640   5.010   3.953   1.742
 7895TIP3   OH223641   1.587   0.366   6.378
 7895TIP3    H123642   1.535   0.398   6.304
 7895TIP3    H223643   1.661   0.321   6.338
 7896TIP3   OH223644   2.039   4.184   2.514
 7896TIP3    H123645   2.019   4.222   2.428
 7896TIP3    H223646   2.133   4.193   2.524
 7897TIP3   OH223647   1.687   5.144   0.853
 7897TIP3    H123648   1.656   5.076   0.912
 7897TIP3    H223649   1.611   5.166   0.799
 7898TIP3   OH223650   1.736   4.235   3.255
 7898TIP3    H123651   1.824   4.213   3.284
 7898TIP3    H223652   1.678   4.191   3.317
 7899TIP3   OH223653   5.263   7.784   1.586
 7899TIP3    H123654   5.186   7.731   1.605
 7899TIP3    H223655   5.319   7.773   1.664
 7900TIP3   OH223656   2.668   3.511   3.188
 7900TIP3    H123657   2.628   3.585   3.234
 7900TIP3    H223658   2.632   3.433   3.231
 7901TIP3   OH223659   3.490   1.187   1.592
 7901TIP3    H123660   3.519   1.272   1.560
 7901TIP3    H223661   3.543   1.171   1.669
 7902TIP3   OH223662   4.952   5.443   1.223
 7902TIP3    H123663   4.948   5.350   1.201
 7902TIP3    H223664   4.897   5.452   1.301
 7903TIP3   OH223665   5.176   1.305   3.039
 7903TIP3    H123666   5.149   1.383   2.990
 7903TIP3    H223667   5.153   1.232   2.982
 7904TIP3   OH223668   1.812   7.500   3.701
 7904TIP3    H123669   1.894   7.455   3.683
 7904TIP3    H223670   1.752   7.469   3.633
 7905TIP3   OH223671   6.233   0.222   6.435
 7905TIP3    H123672   6.246   0.138   6.390
 7905TIP3    H223673   6.196   0.198   6.520
 7906TIP3   OH223674   2.121   7.850   2.513
 7906TIP3    H123675   2.215   7.844   2.496
 7906TIP3    H223676   2.080   7.800   2.442
 7907TIP3   OH223677   4.227   6.445   1.072
 7907TIP3    H123678   4.261   6.400   1.150
 7907TIP3    H223679   4.137   6.468   1.095
 7908TIP3   OH223680   7.750   5.477   2.949
 7908TIP3    H123681   7.824   5.519   2.993
 7908TIP3    H223682   7.791   5.413   2.891
 7909TIP3   OH223683   0.431   5.643   4.399
 7909TIP3    H123684   0.417   5.664   4.492
 7909TIP3    H223685   0.410   5.724   4.352
 7910TIP3   OH223686   3.361   6.538   6.376
 7910TIP3    H123687   3.448   6.501   6.363
 7910TIP3    H223688   3.308   6.464   6.406
 7911TIP3   OH223689   1.346   7.488   2.610
 7911TIP3    H123690   1.325   7.399   2.637
 7911TIP3    H223691   1.292   7.503   2.532
 7912TIP3   OH223692   1.152   1.714   0.244
 7912TIP3    H123693   1.235   1.698   0.290
 7912TIP3    H223694   1.125   1.627   0.213
 7913TIP3   OH223695   6.615   1.377   3.548
 7913TIP3    H123696   6.663   1.378   3.631
 7913TIP3    H223697   6.566   1.295   3.551
 7914TIP3   OH223698   3.165   0.598   5.366
 7914TIP3    H123699   3.162   0.592   5.462
 7914TIP3    H223700   3.250   0.636   5.348
 7915TIP3   OH223701   5.001   6.644   2.572
 7915TIP3    H123702   4.938   6.658   2.643
 7915TIP3    H223703   5.086   6.635   2.616
 7916TIP3   OH223704   6.942   4.125   1.827
 7916TIP3    H123705   7.031   4.116   1.792
 7916TIP3    H223706   6.932   4.219   1.843
 7917TIP3   OH223707   5.028   3.359   6.325
 7917TIP3    H123708   5.092   3.370   6.395
 7917TIP3    H223709   4.943   3.367   6.367
 7918TIP3   OH223710   5.795   0.179   1.663
 7918TIP3    H123711   5.841   0.121   1.603
 7918TIP3    H223712   5.716   0.205   1.617
 7919TIP3   OH223713   3.119   5.511   6.635
 7919TIP3    H123714   3.190   5.482   6.692
 7919TIP3    H223715   3.072   5.431   6.611
 7920TIP3   OH223716   2.003   0.520   4.948
 7920TIP3    H123717   2.075   0.458   4.962
 7920TIP3    H223718   2.017   0.587   5.015
 7921TIP3   OH223719   4.734   5.606   6.047
 7921TIP3    H123720   4.665   5.570   5.992
 7921TIP3    H223721   4.719   5.701   6.046
 7922TIP3   OH223722   0.204   5.642   1.339
 7922TIP3    H123723   0.240   5.616   1.254
 7922TIP3    H223724   0.265   5.709   1.371
 7923TIP3   OH223725   7.921   2.739   0.970
 7923TIP3    H123726   7.921   2.653   1.012
 7923TIP3    H223727   7.828   2.764   0.967
 7924TIP3   OH223728   1.434   6.359   6.049
 7924TIP3    H123729   1.529   6.348   6.038
 7924TIP3    H223730   1.397   6.277   6.019
 7925TIP3   OH223731   4.530   1.379   1.339
 7925TIP3    H123732   4.610   1.349   1.296
 7925TIP3    H223733   4.510   1.310   1.403
 7926TIP3   OH223734   6.463   0.074   2.953
 7926TIP3    H123735   6.441   0.149   2.898
 7926TIP3    H223736   6.422  -0.001   2.910
 7927TIP3   OH223737   3.687   4.460   0.783
 7927TIP3    H123738   3.615   4.520   0.801
 7927TIP3    H223739   3.753   4.482   0.849
 7928TIP3   OH223740   5.302   1.914   3.807
 7928TIP3    H123741   5.303   2.009   3.795
 7928TIP3    H223742   5.223   1.897   3.858
 7929TIP3   OH223743   5.703   1.466   3.696
 7929TIP3    H123744   5.645   1.527   3.742
 7929TIP3    H223745   5.753   1.520   3.635
 7930TIP3   OH223746   4.170   6.542   3.096
 7930TIP3    H123747   4.141   6.627   3.130
 7930TIP3    H223748   4.218   6.563   3.016
 7931TIP3   OH223749   4.527   6.094   6.319
 7931TIP3    H123750   4.547   6.094   6.413
 7931TIP3    H223751   4.581   6.164   6.283
 7932TIP3   OH223752   1.848   0.474   1.661
 7932TIP3    H123753   1.901   0.469   1.740
 7932TIP3    H223754   1.791   0.550   1.676
 7933TIP3   OH223755   6.846   1.099   4.478
 7933TIP3    H123756   6.855   1.138   4.565
 7933TIP3    H223757   6.924   1.128   4.431
 7934TIP3   OH223758   0.175   2.297   4.155
 7934TIP3    H123759   0.107   2.303   4.222
 7934TIP3    H223760   0.253   2.335   4.196
 7935TIP3   OH223761   6.388   0.412   5.496
 7935TIP3    H123762   6.464   0.459   5.462
 7935TIP3    H223763   6.350   0.370   5.419
 7936TIP3   OH223764   2.869   5.834   6.400
 7936TIP3    H123765   2.880   5.923   6.434
 7936TIP3    H223766   2.917   5.778   6.461
 7937TIP3   OH223767   8.004   4.603   1.987
 7937TIP3    H123768   7.910   4.585   1.991
 7937TIP3    H223769   8.014   4.662   1.912
 7938TIP3   OH223770   6.015   7.629   2.700
 7938TIP3    H123771   5.948   7.644   2.766
 7938TIP3    H223772   6.033   7.535   2.705
 7939TIP3   OH223773   2.947   3.415   6.170
 7939TIP3    H123774   2.933   3.509   6.162
 7939TIP3    H223775   3.026   3.398   6.119
 7940TIP3   OH223776   4.045   0.047   6.758
 7940TIP3    H123777   4.056   0.075   6.849
 7940TIP3    H223778   3.951   0.032   6.748
 7941TIP3   OH223779   3.283   1.850   2.641
 7941TIP3    H123780   3.336   1.850   2.720
 7941TIP3    H223781   3.270   1.757   2.621
 7942TIP3   OH223782   6.991   5.837   2.133
 7942TIP3    H123783   6.958   5.789   2.209
 7942TIP3    H223784   7.083   5.854   2.154
 7943TIP3   OH223785   6.365   5.164   5.386
 7943TIP3    H123786   6.333   5.095   5.444
 7943TIP3    H223787   6.361   5.126   5.298
 7944TIP3   OH223788   2.152   4.423   4.877
 7944TIP3    H123789   2.168   4.367   4.954
 7944TIP3    H223790   2.117   4.363   4.812
 7945TIP3   OH223791   6.495   1.271   2.875
 7945TIP3    H123792   6.450   1.312   2.948
 7945TIP3    H223793   6.568   1.329   2.855
 7946TIP3   OH223794   2.607   4.507   5.144
 7946TIP3    H123795   2.540   4.443   5.120
 7946TIP3    H223796   2.687   4.456   5.154
 7947TIP3   OH223797   6.761   0.026   1.240
 7947TIP3    H123798   6.812   0.105   1.254
 7947TIP3    H223799   6.827  -0.043   1.228
 7948TIP3   OH223800   2.867   3.892   3.452
 7948TIP3    H123801   2.791   3.868   3.400
 7948TIP3    H223802   2.892   3.979   3.419
 7949TIP3   OH223803   7.943   1.607   5.343
 7949TIP3    H123804   7.920   1.539   5.280
 7949TIP3    H223805   7.859   1.629   5.385
 7950TIP3   OH223806   6.615   1.490   6.146
 7950TIP3    H123807   6.682   1.433   6.184
 7950TIP3    H223808   6.555   1.430   6.102
 7951TIP3   OH223809   6.355   2.354   0.530
 7951TIP3    H123810   6.409   2.405   0.469
 7951TIP3    H223811   6.265   2.378   0.509
 7952TIP3   OH223812   0.103   2.921   2.389
 7952TIP3    H123813   0.110   2.919   2.485
 7952TIP3    H223814   0.009   2.910   2.372
 7953TIP3   OH223815   5.364   4.743   2.551
 7953TIP3    H123816   5.319   4.659   2.561
 7953TIP3    H223817   5.296   4.803   2.523
 7954TIP3   OH223818   0.728   7.794   4.554
 7954TIP3    H123819   0.654   7.736   4.575
 7954TIP3    H223820   0.687   7.872   4.517
 7955TIP3   OH223821   7.003   2.995   0.297
 7955TIP3    H123822   7.077   2.935   0.287
 7955TIP3    H223823   6.932   2.941   0.329
 7956TIP3   OH223824   3.909   6.915   3.744
 7956TIP3    H123825   3.946   6.856   3.810
 7956TIP3    H223826   3.848   6.970   3.792
 7957TIP3   OH223827   3.457   6.344   5.674
 7957TIP3    H123828   3.430   6.349   5.765
 7957TIP3    H223829   3.548   6.314   5.677
 7958TIP3   OH223830   5.862   6.946   0.084
 7958TIP3    H123831   5.776   6.984   0.067
 7958TIP3    H223832   5.846   6.879   0.151
 7959TIP3   OH223833   3.619   4.704   0.504
 7959TIP3    H123834   3.613   4.782   0.449
 7959TIP3    H223835   3.702   4.664   0.479
 7960TIP3   OH223836   4.823   1.837   2.415
 7960TIP3    H123837   4.916   1.843   2.440
 7960TIP3    H223838   4.807   1.916   2.365
 7961TIP3   OH223839   5.870   4.747   1.313
 7961TIP3    H123840   5.867   4.770   1.406
 7961TIP3    H223841   5.962   4.722   1.298
 7962TIP3   OH223842   0.399   5.634   0.789
 7962TIP3    H123843   0.338   5.594   0.851
 7962TIP3    H223844   0.391   5.582   0.710
 7963TIP3   OH223845   6.622   7.262   2.970
 7963TIP3    H123846   6.550   7.199   2.969
 7963TIP3    H223847   6.700   7.210   2.989
 7964TIP3   OH223848   5.627   5.478   5.084
 7964TIP3    H123849   5.717   5.496   5.113
 7964TIP3    H223850   5.579   5.558   5.104
 7965TIP3   OH223851   0.459   4.303   1.725
 7965TIP3    H123852   0.479   4.348   1.643
 7965TIP3    H223853   0.525   4.234   1.731
 7966TIP3   OH223854   0.791   6.175   4.485
 7966TIP3    H123855   0.724   6.149   4.549
 7966TIP3    H223856   0.853   6.101   4.485
 7967TIP3   OH223857   4.624   4.087   5.668
 7967TIP3    H123858   4.689   4.020   5.689
 7967TIP3    H223859   4.620   4.088   5.572
 7968TIP3   OH223860   4.120   2.876   1.613
 7968TIP3    H123861   4.092   2.800   1.562
 7968TIP3    H223862   4.047   2.893   1.672
 7969TIP3   OH223863   1.978   6.901   4.383
 7969TIP3    H123864   2.035   6.827   4.405
 7969TIP3    H223865   2.016   6.938   4.303
 7970TIP3   OH223866   8.233   7.411   6.268
 7970TIP3    H123867   8.219   7.405   6.362
 7970TIP3    H223868   8.304   7.350   6.250
 7971TIP3   OH223869   6.437   7.299   5.032
 7971TIP3    H123870   6.478   7.297   4.946
 7971TIP3    H223871   6.347   7.271   5.016
 7972TIP3   OH223872   4.781   0.627   4.916
 7972TIP3    H123873   4.812   0.711   4.882
 7972TIP3    H223874   4.687   0.627   4.898
 7973TIP3   OH223875   4.240   6.081   2.880
 7973TIP3    H123876   4.277   6.126   2.955
 7973TIP3    H223877   4.229   5.991   2.908
 7974TIP3   OH223878   6.239   7.283   5.603
 7974TIP3    H123879   6.333   7.275   5.590
 7974TIP3    H223880   6.230   7.346   5.675
 7975TIP3   OH223881   6.202   6.970   4.415
 7975TIP3    H123882   6.166   7.057   4.398
 7975TIP3    H223883   6.140   6.930   4.474
 7976TIP3   OH223884   8.209   6.700   3.830
 7976TIP3    H123885   8.229   6.624   3.774
 7976TIP3    H223886   8.251   6.679   3.913
 7977TIP3   OH223887   5.839   0.647   0.092
 7977TIP3    H123888   5.912   0.708   0.102
 7977TIP3    H223889   5.767   0.687   0.141
 7978TIP3   OH223890   7.475   7.731   2.228
 7978TIP3    H123891   7.543   7.781   2.184
 7978TIP3    H223892   7.480   7.644   2.187
 7979TIP3   OH223893   1.592   5.835   3.623
 7979TIP3    H123894   1.599   5.929   3.607
 7979TIP3    H223895   1.510   5.825   3.670
 7980TIP3   OH223896   4.703   3.459   5.131
 7980TIP3    H123897   4.686   3.385   5.189
 7980TIP3    H223898   4.647   3.444   5.055
 7981TIP3   OH223899   2.678   6.331   3.849
 7981TIP3    H123900   2.681   6.326   3.754
 7981TIP3    H223901   2.720   6.250   3.879
 7982TIP3   OH223902   5.015   3.016   5.310
 7982TIP3    H123903   5.011   3.056   5.397
 7982TIP3    H223904   5.102   2.977   5.305
 7983TIP3   OH223905   8.118   1.183   0.729
 7983TIP3    H123906   8.117   1.239   0.651
 7983TIP3    H223907   8.044   1.124   0.717
 7984TIP3   OH223908   3.906   4.700   3.134
 7984TIP3    H123909   3.970   4.650   3.185
 7984TIP3    H223910   3.844   4.635   3.104
 7985TIP3   OH223911   6.863   6.904   5.314
 7985TIP3    H123912   6.950   6.945   5.310
 7985TIP3    H223913   6.865   6.837   5.246
 7986TIP3   OH223914   2.527   2.588   3.395
 7986TIP3    H123915   2.598   2.533   3.362
 7986TIP3    H223916   2.472   2.528   3.445
 7987TIP3   OH223917   1.000   6.339   4.404
 7987TIP3    H123918   0.920   6.286   4.411
 7987TIP3    H223919   1.017   6.367   4.494
 7988TIP3   OH223920   3.468   7.011   4.105
 7988TIP3    H123921   3.433   7.056   4.182
 7988TIP3    H223922   3.391   6.988   4.053
 7989TIP3   OH223923   2.112   6.240   0.581
 7989TIP3    H123924   2.083   6.156   0.543
 7989TIP3    H223925   2.036   6.297   0.574
 7990TIP3   OH223926   5.787   6.710   3.323
 7990TIP3    H123927   5.726   6.749   3.260
 7990TIP3    H223928   5.872   6.748   3.300
 7991TIP3   OH223929   4.872   7.013   1.035
 7991TIP3    H123930   4.966   7.028   1.026
 7991TIP3    H223931   4.832   7.085   0.988
 7992TIP3   OH223932   6.005   1.691   1.728
 7992TIP3    H123933   5.994   1.608   1.774
 7992TIP3    H223934   5.939   1.689   1.658
 7993TIP3   OH223935   6.896   4.034   1.022
 7993TIP3    H123936   6.980   4.051   1.065
 7993TIP3    H223937   6.835   4.015   1.093
 7994TIP3   OH223938   4.189   0.238   5.907
 7994TIP3    H123939   4.098   0.266   5.909
 7994TIP3    H223940   4.224   0.275   5.826
 7995TIP3   OH223941   3.915   0.543   5.815
 7995TIP3    H123942   3.866   0.530   5.734
 7995TIP3    H223943   3.895   0.633   5.841
 7996TIP3   OH223944   7.501   1.175   4.640
 7996TIP3    H123945   7.485   1.268   4.652
 7996TIP3    H223946   7.486   1.160   4.546
 7997TIP3   OH223947   5.222   0.150   6.268
 7997TIP3    H123948   5.259   0.126   6.353
 7997TIP3    H223949   5.288   0.207   6.228
 7998TIP3   OH223950   1.742   1.095   2.198
 7998TIP3    H123951   1.679   1.028   2.171
 7998TIP3    H223952   1.723   1.111   2.290
 7999TIP3   OH223953   1.774   1.479   0.799
 7999TIP3    H123954   1.771   1.477   0.894
 7999TIP3    H223955   1.727   1.558   0.774
 8000TIP3   OH223956   2.018   0.941   1.609
 8000TIP3    H123957   1.993   0.879   1.677
 8000TIP3    H223958   2.057   1.015   1.656
 8001TIP3   OH223959   7.359   6.308   0.783
 8001TIP3    H123960   7.322   6.273   0.864
 8001TIP3    H223961   7.285   6.313   0.723
 8002TIP3   OH223962   7.212   2.397   2.030
 8002TIP3    H123963   7.297   2.382   1.987
 8002TIP3    H223964   7.213   2.339   2.106
 8003TIP3   OH223965   2.147   7.430   6.218
 8003TIP3    H123966   2.210   7.426   6.147
 8003TIP3    H223967   2.192   7.476   6.289
 8004TIP3   OH223968   2.095   2.910   1.367
 8004TIP3    H123969   2.038   2.985   1.347
 8004TIP3    H223970   2.060   2.876   1.450
 8005TIP3   OH223971   5.697   3.318   2.804
 8005TIP3    H123972   5.692   3.222   2.810
 8005TIP3    H223973   5.670   3.338   2.715
 8006TIP3   OH223974   1.677   2.225   0.466
 8006TIP3    H123975   1.695   2.264   0.552
 8006TIP3    H223976   1.756   2.240   0.415
 8007TIP3   OH223977   4.003   0.417   3.914
 8007TIP3    H123978   3.961   0.483   3.858
 8007TIP3    H223979   4.072   0.380   3.859
 8008TIP3   OH223980   1.844   3.534   0.718
 8008TIP3    H123981   1.930   3.524   0.760
 8008TIP3    H223982   1.864   3.538   0.624
 8009TIP3   OH223983   5.174   2.939   1.326
 8009TIP3    H123984   5.189   3.021   1.279
 8009TIP3    H223985   5.086   2.949   1.363
 8010TIP3   OH223986   5.704   7.626   3.184
 8010TIP3    H123987   5.779   7.590   3.136
 8010TIP3    H223988   5.737   7.644   3.272
 8011TIP3   OH223989   7.058   1.350   5.485
 8011TIP3    H123990   7.000   1.366   5.409
 8011TIP3    H223991   7.080   1.257   5.479
 8012TIP3   OH223992   3.960   3.402   2.040
 8012TIP3    H123993   3.957   3.314   2.078
 8012TIP3    H223994   3.872   3.436   2.052
 8013TIP3   OH223995   3.224   4.954   1.761
 8013TIP3    H123996   3.238   5.014   1.834
 8013TIP3    H223997   3.312   4.933   1.730
 8014TIP3   OH223998   3.566   2.737   6.007
 8014TIP3    H123999   3.579   2.643   6.024
 8014TIP3    H224000   3.476   2.743   5.976
 8015TIP3   OH224001   7.624   0.927   4.061
 8015TIP3    H124002   7.569   0.991   4.014
 8015TIP3    H224003   7.628   0.960   4.150
 8016TIP3   OH224004   0.729   5.618   1.940
 8016TIP3    H124005   0.673   5.569   1.881
 8016TIP3    H224006   0.703   5.710   1.927
 8017TIP3   OH224007   5.281   3.933   0.804
 8017TIP3    H124008   5.372   3.919   0.776
 8017TIP3    H224009   5.232   3.944   0.723
 8018TIP3   OH224010   4.707   4.034   4.077
 8018TIP3    H124011   4.715   4.129   4.081
 8018TIP3    H224012   4.616   4.016   4.100
 8019TIP3   OH224013   0.181   2.217   6.242
 8019TIP3    H124014   0.131   2.143   6.276
 8019TIP3    H224015   0.173   2.284   6.309
 8020TIP3   OH224016   6.909   0.792   1.546
 8020TIP3    H124017   7.002   0.814   1.552
 8020TIP3    H224018   6.901   0.709   1.591
 8021TIP3   OH224019   6.322   5.531   0.964
 8021TIP3    H124020   6.303   5.450   0.917
 8021TIP3    H224021   6.370   5.585   0.902
 8022TIP3   OH224022   1.027   7.080   2.021
 8022TIP3    H124023   0.972   7.041   2.089
 8022TIP3    H224024   1.100   7.120   2.069
 8023TIP3   OH224025   2.930   6.561   4.883
 8023TIP3    H124026   2.937   6.484   4.827
 8023TIP3    H224027   2.915   6.634   4.823
 8024TIP3   OH224028   3.050   7.840   2.606
 8024TIP3    H124029   3.094   7.792   2.537
 8024TIP3    H224030   3.110   7.836   2.681
 8025TIP3   OH224031   1.103   6.234   0.784
 8025TIP3    H124032   1.107   6.188   0.868
 8025TIP3    H224033   1.084   6.325   0.807
 8026TIP3   OH224034   5.000   1.384   0.783
 8026TIP3    H124035   5.081   1.368   0.736
 8026TIP3    H224036   4.938   1.413   0.716
 8027TIP3   OH224037   1.447   6.078   3.274
 8027TIP3    H124038   1.367   6.103   3.226
 8027TIP3    H224039   1.455   6.143   3.344
 8028TIP3   OH224040   1.289   4.090   4.113
 8028TIP3    H124041   1.366   4.091   4.170
 8028TIP3    H224042   1.259   3.999   4.115
 8029TIP3   OH224043   6.440   1.148   1.848
 8029TIP3    H124044   6.391   1.139   1.766
 8029TIP3    H224045   6.532   1.145   1.821
 8030TIP3   OH224046   4.742   2.288   5.940
 8030TIP3    H124047   4.808   2.297   6.008
 8030TIP3    H224048   4.757   2.362   5.882
 8031TIP3   OH224049   2.191   5.536   6.498
 8031TIP3    H124050   2.193   5.496   6.585
 8031TIP3    H224051   2.098   5.541   6.475
 8032TIP3   OH224052   6.457   1.530   1.459
 8032TIP3    H124053   6.538   1.512   1.507
 8032TIP3    H224054   6.437   1.447   1.416
 8033TIP3   OH224055   5.123   6.241   6.125
 8033TIP3    H124056   5.041   6.278   6.092
 8033TIP3    H224057   5.188   6.263   6.058
 8034TIP3   OH224058   1.469   3.898   0.294
 8034TIP3    H124059   1.564   3.891   0.306
 8034TIP3    H224060   1.443   3.812   0.262
 8035TIP3   OH224061   1.748   5.553   0.672
 8035TIP3    H124062   1.778   5.462   0.663
 8035TIP3    H224063   1.813   5.604   0.625
 8036TIP3   OH224064   2.259   2.693   5.745
 8036TIP3    H124065   2.306   2.619   5.707
 8036TIP3    H224066   2.249   2.671   5.837
 8037TIP3   OH224067   2.042   3.641   5.611
 8037TIP3    H124068   2.094   3.712   5.647
 8037TIP3    H224069   2.003   3.598   5.687
 8038TIP3   OH224070   6.097   6.406   2.857
 8038TIP3    H124071   6.002   6.399   2.873
 8038TIP3    H224072   6.128   6.315   2.861
 8039TIP3   OH224073   7.533   1.804   1.130
 8039TIP3    H124074   7.551   1.880   1.185
 8039TIP3    H224075   7.489   1.742   1.189
 8040TIP3   OH224076   5.558   5.967   3.491
 8040TIP3    H124077   5.639   5.955   3.542
 8040TIP3    H224078   5.549   6.062   3.482
 8041TIP3   OH224079   1.626   1.490   2.145
 8041TIP3    H124080   1.693   1.455   2.204
 8041TIP3    H224081   1.564   1.534   2.203
 8042TIP3   OH224082   7.013   3.613   1.995
 8042TIP3    H124083   7.025   3.692   2.049
 8042TIP3    H224084   7.009   3.541   2.058
 8043TIP3   OH224085   0.302   1.097   2.814
 8043TIP3    H124086   0.290   1.009   2.778
 8043TIP3    H224087   0.227   1.147   2.781
 8044TIP3   OH224088   7.143   5.604   1.741
 8044TIP3    H124089   7.181   5.623   1.656
 8044TIP3    H224090   7.089   5.526   1.726
 8045TIP3   OH224091   4.280   7.737   1.181
 8045TIP3    H124092   4.242   7.676   1.244
 8045TIP3    H224093   4.294   7.684   1.103
 8046TIP3   OH224094   3.300   3.729   0.494
 8046TIP3    H124095   3.327   3.733   0.403
 8046TIP3    H224096   3.291   3.821   0.521
 8047TIP3   OH224097   7.480   5.570   2.866
 8047TIP3    H124098   7.523   5.587   2.950
 8047TIP3    H224099   7.551   5.551   2.806
 8048TIP3   OH224100   7.856   0.059   0.676
 8048TIP3    H124101   7.769   0.030   0.649
 8048TIP3    H224102   7.856   0.050   0.771
 8049TIP3   OH224103   2.775   5.816   5.201
 8049TIP3    H124104   2.743   5.767   5.277
 8049TIP3    H224105   2.726   5.898   5.203
 8050TIP3   OH224106   3.067   0.366   1.921
 8050TIP3    H124107   3.102   0.455   1.923
 8050TIP3    H224108   3.119   0.319   1.985
 8051TIP3   OH224109   6.121   5.748   4.720
 8051TIP3    H124110   6.155   5.837   4.719
 8051TIP3    H224111   6.055   5.746   4.651
 8052TIP3   OH224112   7.505   4.450   5.567
 8052TIP3    H124113   7.508   4.469   5.661
 8052TIP3    H224114   7.477   4.358   5.563
 8053TIP3   OH224115   5.555   3.895   1.618
 8053TIP3    H124116   5.577   3.816   1.569
 8053TIP3    H224117   5.620   3.898   1.688
 8054TIP3   OH224118   0.654   2.704   6.348
 8054TIP3    H124119   0.600   2.780   6.370
 8054TIP3    H224120   0.591   2.638   6.320
 8055TIP3   OH224121   1.632   0.650   2.248
 8055TIP3    H124122   1.549   0.661   2.202
 8055TIP3    H224123   1.642   0.731   2.299
 8056TIP3   OH224124   0.296   1.257   4.681
 8056TIP3    H124125   0.213   1.270   4.728
 8056TIP3    H224126   0.270   1.231   4.593
 8057TIP3   OH224127   1.911   2.733   4.019
 8057TIP3    H124128   1.876   2.693   3.939
 8057TIP3    H224129   1.993   2.686   4.036
 8058TIP3   OH224130   3.885   6.619   4.157
 8058TIP3    H124131   3.902   6.619   4.251
 8058TIP3    H224132   3.797   6.655   4.149
 8059TIP3   OH224133   1.721   5.603   3.589
 8059TIP3    H124134   1.723   5.592   3.494
 8059TIP3    H224135   1.705   5.696   3.602
 8060TIP3   OH224136   6.632   2.714   5.161
 8060TIP3    H124137   6.644   2.621   5.139
 8060TIP3    H224138   6.571   2.713   5.235
 8061TIP3   OH224139   0.810   3.425   0.693
 8061TIP3    H124140   0.738   3.417   0.630
 8061TIP3    H224141   0.823   3.519   0.702
 8062TIP3   OH224142   5.540   6.962   4.873
 8062TIP3    H124143   5.454   6.951   4.833
 8062TIP3    H224144   5.602   6.951   4.801
 8063TIP3   OH224145   0.131   5.980   6.716
 8063TIP3    H124146   0.084   6.062   6.706
 8063TIP3    H224147   0.182   5.972   6.635
 8064TIP3   OH224148   3.801   2.470   2.416
 8064TIP3    H124149   3.786   2.443   2.507
 8064TIP3    H224150   3.756   2.404   2.363
 8065TIP3   OH224151   4.895   2.849   2.274
 8065TIP3    H124152   4.809   2.848   2.231
 8065TIP3    H224153   4.948   2.787   2.224
 8066TIP3   OH224154   6.471   1.923   2.509
 8066TIP3    H124155   6.457   1.871   2.589
 8066TIP3    H224156   6.538   1.874   2.461
 8067TIP3   OH224157   5.546   2.473   6.445
 8067TIP3    H124158   5.631   2.517   6.448
 8067TIP3    H224159   5.501   2.515   6.372
 8068TIP3   OH224160   4.978   4.992   3.670
 8068TIP3    H124161   5.057   5.038   3.700
 8068TIP3    H224162   4.924   4.984   3.748
 8069TIP3   OH224163   6.212   0.183   4.549
 8069TIP3    H124164   6.280   0.246   4.526
 8069TIP3    H224165   6.248   0.134   4.624
 8070TIP3   OH224166   1.925   2.829   1.605
 8070TIP3    H124167   1.952   2.798   1.692
 8070TIP3    H224168   1.896   2.919   1.620
 8071TIP3   OH224169   8.311   7.548   2.889
 8071TIP3    H124170   8.301   7.630   2.937
 8071TIP3    H224171   8.275   7.481   2.948
 8072TIP3   OH224172   7.826   4.805   5.228
 8072TIP3    H124173   7.912   4.846   5.223
 8072TIP3    H224174   7.827   4.738   5.159
 8073TIP3   OH224175   3.986   7.278   4.469
 8073TIP3    H124176   4.015   7.255   4.381
 8073TIP3    H224177   3.916   7.216   4.489
 8074TIP3   OH224178   7.891   3.651   1.612
 8074TIP3    H124179   7.908   3.589   1.541
 8074TIP3    H224180   7.948   3.622   1.684
 8075TIP3   OH224181   5.560   1.946   3.818
 8075TIP3    H124182   5.467   1.923   3.813
 8075TIP3    H224183   5.606   1.863   3.809
 8076TIP3   OH224184   1.093   1.415   1.100
 8076TIP3    H124185   1.163   1.462   1.054
 8076TIP3    H224186   1.129   1.327   1.114
 8077TIP3   OH224187   0.031   5.614   3.125
 8077TIP3    H124188  -0.017   5.558   3.064
 8077TIP3    H224189   0.064   5.685   3.071
 8078TIP3   OH224190   6.688   4.252   6.081
 8078TIP3    H124191   6.630   4.276   6.010
 8078TIP3    H224192   6.690   4.329   6.138
 8079TIP3   OH224193   5.543   7.091   6.104
 8079TIP3    H124194   5.547   7.109   6.198
 8079TIP3    H224195   5.539   7.177   6.063
 8080TIP3   OH224196   5.479   6.788   4.544
 8080TIP3    H124197   5.500   6.716   4.604
 8080TIP3    H224198   5.467   6.746   4.459
 8081TIP3   OH224199   0.793   0.334   3.761
 8081TIP3    H124200   0.703   0.368   3.756
 8081TIP3    H224201   0.786   0.245   3.725
 8082TIP3   OH224202   3.408   0.603   4.101
 8082TIP3    H124203   3.464   0.679   4.083
 8082TIP3    H224204   3.440   0.569   4.185
 8083TIP3   OH224205   8.063   1.058   5.319
 8083TIP3    H124206   8.047   0.978   5.371
 8083TIP3    H224207   8.023   1.039   5.234
 8084TIP3   OH224208   2.445   0.328   3.248
 8084TIP3    H124209   2.486   0.339   3.163
 8084TIP3    H224210   2.351   0.338   3.231
 8085TIP3   OH224211   8.282   0.174   5.514
 8085TIP3    H124212   8.340   0.098   5.526
 8085TIP3    H224213   8.240   0.160   5.429
 8086TIP3   OH224214   4.144   5.493   6.253
 8086TIP3    H124215   4.060   5.454   6.228
 8086TIP3    H224216   4.121   5.556   6.322
 8087TIP3   OH224217   3.019   7.768   6.346
 8087TIP3    H124218   3.112   7.747   6.341
 8087TIP3    H224219   3.013   7.856   6.309
 8088TIP3   OH224220   3.263   5.861   1.083
 8088TIP3    H124221   3.344   5.885   1.037
 8088TIP3    H224222   3.195   5.867   1.016
 8089TIP3   OH224223   7.614   0.684   4.213
 8089TIP3    H124224   7.619   0.774   4.183
 8089TIP3    H224225   7.623   0.631   4.134
 8090TIP3   OH224226   7.262   4.904   3.826
 8090TIP3    H124227   7.225   4.817   3.810
 8090TIP3    H224228   7.193   4.964   3.799
 8091TIP3   OH224229   6.106   6.040   5.995
 8091TIP3    H124230   6.163   5.979   5.949
 8091TIP3    H224231   6.017   6.009   5.975
 8092TIP3   OH224232   7.221   5.416   6.697
 8092TIP3    H124233   7.270   5.375   6.626
 8092TIP3    H224234   7.180   5.493   6.657
 8093TIP3   OH224235   3.484   5.925   3.362
 8093TIP3    H124236   3.487   5.851   3.422
 8093TIP3    H224237   3.390   5.945   3.354
 8094TIP3   OH224238   2.058   0.304   0.086
 8094TIP3    H124239   1.983   0.277   0.139
 8094TIP3    H224240   2.073   0.396   0.111
 8095TIP3   OH224241   5.924   1.993   3.770
 8095TIP3    H124242   5.924   1.914   3.717
 8095TIP3    H224243   5.973   2.057   3.719
 8096TIP3   OH224244   1.722   6.138   2.511
 8096TIP3    H124245   1.674   6.060   2.540
 8096TIP3    H224246   1.737   6.188   2.592
 8097TIP3   OH224247   4.340   1.192   5.225
 8097TIP3    H124248   4.402   1.174   5.296
 8097TIP3    H224249   4.285   1.263   5.258
 8098TIP3   OH224250   5.832   5.506   6.735
 8098TIP3    H124251   5.831   5.547   6.821
 8098TIP3    H224252   5.902   5.551   6.688
 8099TIP3   OH224253   3.895   1.945   0.142
 8099TIP3    H124254   3.941   1.926   0.224
 8099TIP3    H224255   3.887   2.041   0.141
 8100TIP3   OH224256   1.096   0.914   5.946
 8100TIP3    H124257   1.049   0.856   5.886
 8100TIP3    H224258   1.128   0.857   6.015
 8101TIP3   OH224259   0.126   1.056   5.576
 8101TIP3    H124260   0.098   1.079   5.665
 8101TIP3    H224261   0.121   1.138   5.527
 8102TIP3   OH224262   6.550   0.862   2.129
 8102TIP3    H124263   6.507   0.853   2.044
 8102TIP3    H224264   6.554   0.773   2.164
 8103TIP3   OH224265   6.933   0.199   1.378
 8103TIP3    H124266   6.972   0.121   1.418
 8103TIP3    H224267   6.981   0.211   1.296
 8104TIP3   OH224268   2.436   6.440   2.513
 8104TIP3    H124269   2.511   6.380   2.514
 8104TIP3    H224270   2.369   6.394   2.462
 8105TIP3   OH224271   1.497   5.854   3.123
 8105TIP3    H124272   1.509   5.916   3.051
 8105TIP3    H224273   1.461   5.908   3.194
 8106TIP3   OH224274   7.765   2.800   3.142
 8106TIP3    H124275   7.732   2.736   3.078
 8106TIP3    H224276   7.733   2.884   3.109
 8107TIP3   OH224277   2.499   2.059   4.313
 8107TIP3    H124278   2.515   1.965   4.301
 8107TIP3    H224279   2.404   2.068   4.307
 8108TIP3   OH224280   4.311   1.684   5.256
 8108TIP3    H124281   4.290   1.663   5.165
 8108TIP3    H224282   4.397   1.727   5.251
 8109TIP3   OH224283   5.304   4.695   3.193
 8109TIP3    H124284   5.294   4.778   3.240
 8109TIP3    H224285   5.259   4.710   3.109
 8110TIP3   OH224286   6.673   5.202   2.759
 8110TIP3    H124287   6.735   5.131   2.740
 8110TIP3    H224288   6.712   5.249   2.832
 8111TIP3   OH224289   4.242   2.934   4.843
 8111TIP3    H124290   4.201   2.847   4.844
 8111TIP3    H224291   4.183   2.988   4.896
 8112TIP3   OH224292   2.397   4.620   1.330
 8112TIP3    H124293   2.483   4.612   1.371
 8112TIP3    H224294   2.374   4.530   1.307
 8113TIP3   OH224295   7.927   2.194   4.094
 8113TIP3    H124296   7.957   2.174   4.005
 8113TIP3    H224297   8.008   2.197   4.146
 8114TIP3   OH224298   1.505   0.904   0.776
 8114TIP3    H124299   1.569   0.949   0.722
 8114TIP3    H224300   1.537   0.915   0.866
 8115TIP3   OH224301   7.118   2.118   6.427
 8115TIP3    H124302   7.050   2.155   6.371
 8115TIP3    H224303   7.097   2.025   6.432
 8116TIP3   OH224304   0.613   1.581   5.701
 8116TIP3    H124305   0.570   1.597   5.618
 8116TIP3    H224306   0.558   1.625   5.766
 8117TIP3   OH224307   5.132   6.120   1.836
 8117TIP3    H124308   5.098   6.050   1.892
 8117TIP3    H224309   5.140   6.079   1.750
 8118TIP3   OH224310   7.003   7.676   0.763
 8118TIP3    H124311   7.030   7.744   0.701
 8118TIP3    H224312   7.086   7.638   0.793
 8119TIP3   OH224313   5.726   1.260   2.736
 8119TIP3    H124314   5.680   1.243   2.654
 8119TIP3    H224315   5.710   1.182   2.789
 8120TIP3   OH224316   7.215   6.001   2.131
 8120TIP3    H124317   7.192   6.025   2.041
 8120TIP3    H224318   7.298   6.045   2.147
 8121TIP3   OH224319   1.187   0.353   5.247
 8121TIP3    H124320   1.264   0.362   5.191
 8121TIP3    H224321   1.116   0.328   5.188
 8122TIP3   OH224322   8.154   6.135   0.361
 8122TIP3    H124323   8.117   6.215   0.400
 8122TIP3    H224324   8.230   6.165   0.311
 8123TIP3   OH224325   3.047   1.316   3.672
 8123TIP3    H124326   3.040   1.221   3.662
 8123TIP3    H224327   3.072   1.328   3.763
 8124TIP3   OH224328   0.226   7.712   5.321
 8124TIP3    H124329   0.208   7.776   5.251
 8124TIP3    H224330   0.221   7.763   5.402
 8125TIP3   OH224331   3.261   7.749   4.904
 8125TIP3    H124332   3.215   7.682   4.956
 8125TIP3    H224333   3.225   7.739   4.815
 8126TIP3   OH224334   6.019   3.941   0.408
 8126TIP3    H124335   5.984   3.926   0.497
 8126TIP3    H224336   5.942   3.942   0.352
 8127TIP3   OH224337   6.761   1.576   0.520
 8127TIP3    H124338   6.826   1.507   0.537
 8127TIP3    H224339   6.716   1.588   0.604
 8128TIP3   OH224340   3.727   4.056   4.868
 8128TIP3    H124341   3.731   3.990   4.798
 8128TIP3    H224342   3.766   4.012   4.944
 8129TIP3   OH224343   2.593   7.443   0.824
 8129TIP3    H124344   2.500   7.446   0.800
 8129TIP3    H224345   2.597   7.481   0.912
 8130TIP3   OH224346   4.997   6.606   5.427
 8130TIP3    H124347   5.008   6.549   5.350
 8130TIP3    H224348   4.905   6.595   5.451
 8131TIP3   OH224349   2.198   6.206   1.393
 8131TIP3    H124350   2.128   6.194   1.329
 8131TIP3    H224351   2.153   6.210   1.478
 8132TIP3   OH224352   6.050   4.695   2.304
 8132TIP3    H124353   6.130   4.747   2.297
 8132TIP3    H224354   6.080   4.607   2.327
 8133TIP3   OH224355   6.157   1.399   6.523
 8133TIP3    H124356   6.155   1.453   6.601
 8133TIP3    H224357   6.210   1.448   6.460
 8134TIP3   OH224358   0.912   6.423   5.378
 8134TIP3    H124359   0.847   6.410   5.447
 8134TIP3    H224360   0.995   6.434   5.424
 8135TIP3   OH224361   4.917   6.060   0.894
 8135TIP3    H124362   4.836   6.024   0.932
 8135TIP3    H224363   4.908   6.155   0.903
 8136TIP3   OH224364   4.351   4.217   0.279
 8136TIP3    H124365   4.272   4.167   0.260
 8136TIP3    H224366   4.393   4.170   0.351
 8137TIP3   OH224367   7.481   0.561   2.007
 8137TIP3    H124368   7.424   0.583   1.933
 8137TIP3    H224369   7.423   0.515   2.069
 8138TIP3   OH224370   5.348   0.777   3.665
 8138TIP3    H124371   5.255   0.798   3.666
 8138TIP3    H224372   5.352   0.688   3.629
 8139TIP3   OH224373   5.082   2.320   2.103
 8139TIP3    H124374   5.089   2.415   2.106
 8139TIP3    H224375   5.162   2.289   2.145
 8140TIP3   OH224376   5.341   7.626   3.232
 8140TIP3    H124377   5.318   7.539   3.263
 8140TIP3    H224378   5.366   7.613   3.140
 8141TIP3   OH224379   5.957   6.628   0.358
 8141TIP3    H124380   6.047   6.629   0.325
 8141TIP3    H224381   5.903   6.605   0.282
 8142TIP3   OH224382   2.783   3.836   2.773
 8142TIP3    H124383   2.820   3.749   2.764
 8142TIP3    H224384   2.690   3.821   2.788
 8143TIP3   OH224385   6.149   4.737   1.306
 8143TIP3    H124386   6.119   4.790   1.232
 8143TIP3    H224387   6.241   4.719   1.286
 8144TIP3   OH224388   0.023   1.676   0.140
 8144TIP3    H124389   0.005   1.678   0.046
 8144TIP3    H224390   0.119   1.678   0.145
 8145TIP3   OH224391   7.931   2.003   2.388
 8145TIP3    H124392   8.016   2.046   2.380
 8145TIP3    H224393   7.903   1.987   2.298
 8146TIP3   OH224394   2.661   5.709   2.636
 8146TIP3    H124395   2.627   5.797   2.620
 8146TIP3    H224396   2.589   5.651   2.614
 8147TIP3   OH224397   5.431   6.271   0.526
 8147TIP3    H124398   5.487   6.342   0.556
 8147TIP3    H224399   5.363   6.265   0.593
 8148TIP3   OH224400   3.577   6.176   2.791
 8148TIP3    H124401   3.490   6.139   2.809
 8148TIP3    H224402   3.587   6.245   2.856
 8149TIP3   OH224403   0.026   0.293   3.331
 8149TIP3    H124404  -0.065   0.288   3.303
 8149TIP3    H224405   0.058   0.376   3.295
 8150TIP3   OH224406   6.426   3.908   0.625
 8150TIP3    H124407   6.428   3.817   0.595
 8150TIP3    H224408   6.502   3.949   0.585
 8151TIP3   OH224409   5.710   2.817   4.013
 8151TIP3    H124410   5.640   2.851   3.958
 8151TIP3    H224411   5.764   2.893   4.034
 8152TIP3   OH224412   1.261   0.381   5.989
 8152TIP3    H124413   1.230   0.308   6.043
 8152TIP3    H224414   1.356   0.378   5.997
 8153TIP3   OH224415   1.270   1.623   5.920
 8153TIP3    H124416   1.209   1.697   5.925
 8153TIP3    H224417   1.357   1.664   5.930
 8154TIP3   OH224418   2.759   0.970   1.766
 8154TIP3    H124419   2.852   0.968   1.789
 8154TIP3    H224420   2.720   1.033   1.827
 8155TIP3   OH224421   0.200   7.355   0.361
 8155TIP3    H124422   0.279   7.402   0.336
 8155TIP3    H224423   0.138   7.424   0.385
 8156TIP3   OH224424   3.101   4.374   5.188
 8156TIP3    H124425   3.131   4.410   5.271
 8156TIP3    H224426   3.174   4.321   5.156
 8157TIP3   OH224427   3.543   2.467   1.518
 8157TIP3    H124428   3.636   2.486   1.511
 8157TIP3    H224429   3.527   2.396   1.456
 8158TIP3   OH224430   4.288   3.944   1.691
 8158TIP3    H124431   4.295   3.980   1.779
 8158TIP3    H224432   4.289   4.020   1.633
 8159TIP3   OH224433   7.742   5.117   5.815
 8159TIP3    H124434   7.817   5.075   5.773
 8159TIP3    H224435   7.672   5.113   5.749
 8160TIP3   OH224436   2.769   1.250   0.748
 8160TIP3    H124437   2.828   1.323   0.766
 8160TIP3    H224438   2.746   1.261   0.655
 8161TIP3   OH224439   2.477   7.752   2.698
 8161TIP3    H124440   2.571   7.765   2.684
 8161TIP3    H224441   2.439   7.760   2.610
 8162TIP3   OH224442   3.107   5.234   3.089
 8162TIP3    H124443   3.079   5.206   3.001
 8162TIP3    H224444   3.116   5.152   3.138
 8163TIP3   OH224445   1.107   5.216   4.438
 8163TIP3    H124446   1.114   5.168   4.356
 8163TIP3    H224447   1.013   5.227   4.452
 8164TIP3   OH224448   1.558   2.916   4.973
 8164TIP3    H124449   1.616   2.959   5.035
 8164TIP3    H224450   1.614   2.888   4.901
 8165TIP3   OH224451   3.235   1.377   2.186
 8165TIP3    H124452   3.205   1.333   2.266
 8165TIP3    H224453   3.321   1.411   2.208
 8166TIP3   OH224454   5.343   2.517   4.826
 8166TIP3    H124455   5.357   2.581   4.896
 8166TIP3    H224456   5.298   2.566   4.757
 8167TIP3   OH224457   4.021   5.343   4.169
 8167TIP3    H124458   3.956   5.410   4.191
 8167TIP3    H224459   4.021   5.283   4.243
 8168TIP3   OH224460   4.303   3.137   3.529
 8168TIP3    H124461   4.244   3.063   3.517
 8168TIP3    H224462   4.354   3.142   3.448
 8169TIP3   OH224463   5.684   7.211   1.422
 8169TIP3    H124464   5.749   7.141   1.420
 8169TIP3    H224465   5.608   7.175   1.377
 8170TIP3   OH224466   5.765   2.828   2.961
 8170TIP3    H124467   5.774   2.822   2.866
 8170TIP3    H224468   5.671   2.828   2.977
 8171TIP3   OH224469   5.560   4.365   5.586
 8171TIP3    H124470   5.584   4.456   5.604
 8171TIP3    H224471   5.643   4.323   5.564
 8172TIP3   OH224472   1.986   0.691   0.924
 8172TIP3    H124473   1.936   0.737   0.856
 8172TIP3    H224474   1.924   0.684   0.997
 8173TIP3   OH224475   6.036   4.534   1.015
 8173TIP3    H124476   6.005   4.620   0.987
 8173TIP3    H224477   5.957   4.480   1.018
 8174TIP3   OH224478   2.422   0.961   2.114
 8174TIP3    H124479   2.395   0.885   2.062
 8174TIP3    H224480   2.465   0.924   2.191
 8175TIP3   OH224481   3.716   6.797   2.451
 8175TIP3    H124482   3.622   6.813   2.456
 8175TIP3    H224483   3.724   6.712   2.408
 8176TIP3   OH224484   1.475   0.498   6.732
 8176TIP3    H124485   1.537   0.570   6.742
 8176TIP3    H224486   1.432   0.490   6.817
 8177TIP3   OH224487   5.103   4.665   6.220
 8177TIP3    H124488   5.180   4.718   6.196
 8177TIP3    H224489   5.137   4.575   6.224
 8178TIP3   OH224490   4.459   4.166   5.013
 8178TIP3    H124491   4.374   4.187   5.052
 8178TIP3    H224492   4.499   4.251   4.995
 8179TIP3   OH224493   6.412   7.859   6.036
 8179TIP3    H124494   6.389   7.766   6.033
 8179TIP3    H224495   6.505   7.861   6.011
 8180TIP3   OH224496   5.919   7.209   0.378
 8180TIP3    H124497   5.904   7.277   0.312
 8180TIP3    H224498   5.994   7.242   0.429
 8181TIP3   OH224499   4.097   0.686   6.755
 8181TIP3    H124500   4.031   0.617   6.761
 8181TIP3    H224501   4.050   0.760   6.715
 8182TIP3   OH224502   8.269   4.965   5.690
 8182TIP3    H124503   8.363   4.974   5.678
 8182TIP3    H224504   8.237   4.928   5.608
 8183TIP3   OH224505   7.643   6.658   2.184
 8183TIP3    H124506   7.694   6.587   2.222
 8183TIP3    H224507   7.681   6.738   2.221
 8184TIP3   OH224508   7.420   2.153   2.477
 8184TIP3    H124509   7.515   2.144   2.461
 8184TIP3    H224510   7.414   2.188   2.565
 8185TIP3   OH224511   4.822   3.356   0.808
 8185TIP3    H124512   4.840   3.266   0.835
 8185TIP3    H224513   4.778   3.396   0.883
 8186TIP3   OH224514   3.186   7.665   1.316
 8186TIP3    H124515   3.261   7.622   1.276
 8186TIP3    H224516   3.160   7.733   1.253
 8187TIP3   OH224517   3.161   2.942   4.476
 8187TIP3    H124518   3.066   2.940   4.486
 8187TIP3    H224519   3.176   2.916   4.385
 8188TIP3   OH224520   0.147   4.369   6.738
 8188TIP3    H124521   0.159   4.382   6.644
 8188TIP3    H224522   0.220   4.416   6.778
 8189TIP3   OH224523   5.459   5.385   3.377
 8189TIP3    H124524   5.451   5.467   3.426
 8189TIP3    H224525   5.369   5.361   3.355
 8190TIP3   OH224526   2.458   2.930   6.062
 8190TIP3    H124527   2.550   2.904   6.062
 8190TIP3    H224528   2.413   2.859   6.107
 8191TIP3   OH224529   8.152  -0.022   1.836
 8191TIP3    H124530   8.224   0.041   1.831
 8191TIP3    H224531   8.083   0.023   1.883
 8192TIP3   OH224532   0.089   6.504   1.657
 8192TIP3    H124533   0.034   6.445   1.606
 8192TIP3    H224534   0.106   6.456   1.739
 8193TIP3   OH224535   3.640   2.954   1.926
 8193TIP3    H124536   3.591   2.993   1.854
 8193TIP3    H224537   3.573   2.931   1.991
 8194TIP3   OH224538   2.213   7.424   0.332
 8194TIP3    H124539   2.183   7.508   0.297
 8194TIP3    H224540   2.270   7.389   0.263
 8195TIP3   OH224541   3.101   0.481   1.257
 8195TIP3    H124542   3.149   0.542   1.312
 8195TIP3    H224543   3.121   0.395   1.292
 8196TIP3   OH224544   5.929   4.007   2.143
 8196TIP3    H124545   5.921   3.997   2.048
 8196TIP3    H224546   5.909   4.099   2.158
 8197TIP3   OH224547   5.165   3.261   0.698
 8197TIP3    H124548   5.134   3.213   0.774
 8197TIP3    H224549   5.261   3.252   0.702
 8198TIP3   OH224550   7.614   4.312   0.227
 8198TIP3    H124551   7.657   4.252   0.167
 8198TIP3    H224552   7.565   4.372   0.170
 8199TIP3   OH224553   6.314   0.218   6.060
 8199TIP3    H124554   6.378   0.224   5.989
 8199TIP3    H224555   6.361   0.251   6.137
 8200TIP3   OH224556   0.295   0.934   0.793
 8200TIP3    H124557   0.209   0.959   0.827
 8200TIP3    H224558   0.304   0.841   0.816
 8201TIP3   OH224559   3.539   7.689   2.381
 8201TIP3    H124560   3.538   7.595   2.367
 8201TIP3    H224561   3.598   7.723   2.314
 8202TIP3   OH224562   7.923   4.727   1.020
 8202TIP3    H124563   7.916   4.657   1.085
 8202TIP3    H224564   7.840   4.773   1.025
 8203TIP3   OH224565   2.654   3.257   5.491
 8203TIP3    H124566   2.739   3.233   5.455
 8203TIP3    H224567   2.593   3.196   5.449
 8204TIP3   OH224568   4.207   0.971   2.340
 8204TIP3    H124569   4.298   0.982   2.366
 8204TIP3    H224570   4.157   0.992   2.419
 8205TIP3   OH224571   7.017   7.417   3.198
 8205TIP3    H124572   6.984   7.435   3.110
 8205TIP3    H224573   6.950   7.453   3.257
 8206TIP3   OH224574   3.594   3.226   6.486
 8206TIP3    H124575   3.506   3.242   6.520
 8206TIP3    H224576   3.609   3.132   6.500
 8207TIP3   OH224577   0.449   4.852   5.817
 8207TIP3    H124578   0.420   4.940   5.842
 8207TIP3    H224579   0.392   4.828   5.744
 8208TIP3   OH224580   1.397   1.951   1.961
 8208TIP3    H124581   1.395   1.993   2.047
 8208TIP3    H224582   1.319   1.896   1.959
 8209TIP3   OH224583   1.075   6.501   4.195
 8209TIP3    H124584   1.169   6.517   4.187
 8209TIP3    H224585   1.068   6.435   4.264
 8210TIP3   OH224586   1.834   2.319   6.408
 8210TIP3    H124587   1.777   2.273   6.470
 8210TIP3    H224588   1.780   2.331   6.330
 8211TIP3   OH224589   5.145   5.693   5.092
 8211TIP3    H124590   5.167   5.760   5.027
 8211TIP3    H224591   5.183   5.726   5.173
 8212TIP3   OH224592   2.503   6.955   1.737
 8212TIP3    H124593   2.453   6.928   1.814
 8212TIP3    H224594   2.451   7.025   1.698
 8213TIP3   OH224595   6.760   3.874   0.591
 8213TIP3    H124596   6.747   3.796   0.646
 8213TIP3    H224597   6.855   3.888   0.592
 8214TIP3   OH224598   6.889   2.981   0.852
 8214TIP3    H124599   6.839   2.956   0.774
 8214TIP3    H224600   6.948   3.050   0.822
 8215TIP3   OH224601   4.512   1.458   4.622
 8215TIP3    H124602   4.453   1.532   4.616
 8215TIP3    H224603   4.478   1.405   4.694
 8216TIP3   OH224604   4.932   1.621   6.594
 8216TIP3    H124605   4.839   1.619   6.573
 8216TIP3    H224606   4.958   1.712   6.582
 8217TIP3   OH224607   6.978   3.772   6.676
 8217TIP3    H124608   6.907   3.722   6.714
 8217TIP3    H224609   7.057   3.736   6.716
 8218TIP3   OH224610   1.598   6.648   0.427
 8218TIP3    H124611   1.680   6.655   0.379
 8218TIP3    H224612   1.530   6.652   0.360
 8219TIP3   OH224613   4.714   3.586   3.848
 8219TIP3    H124614   4.726   3.615   3.938
 8219TIP3    H224615   4.622   3.603   3.829
 8220TIP3   OH224616   0.930   2.626   4.414
 8220TIP3    H124617   0.895   2.712   4.438
 8220TIP3    H224618   0.853   2.574   4.391
 8221TIP3   OH224619   5.246   2.674   2.489
 8221TIP3    H124620   5.161   2.650   2.526
 8221TIP3    H224621   5.280   2.593   2.451
 8222TIP3   OH224622   8.334   6.960   3.807
 8222TIP3    H124623   8.319   6.949   3.713
 8222TIP3    H224624   8.275   6.896   3.848
 8223TIP3   OH224625   3.524   3.360   3.006
 8223TIP3    H124626   3.523   3.385   2.914
 8223TIP3    H224627   3.495   3.269   3.006
 8224TIP3   OH224628   2.071   4.952   6.644
 8224TIP3    H124629   2.005   4.911   6.589
 8224TIP3    H224630   2.088   5.037   6.603
 8225TIP3   OH224631   7.487   6.153   6.031
 8225TIP3    H124632   7.427   6.217   5.991
 8225TIP3    H224633   7.434   6.108   6.097
 8226TIP3   OH224634   4.875   4.290   3.844
 8226TIP3    H124635   4.967   4.317   3.849
 8226TIP3    H224636   4.840   4.310   3.930
 8227TIP3   OH224637   6.727   3.618   1.083
 8227TIP3    H124638   6.811   3.664   1.089
 8227TIP3    H224639   6.671   3.677   1.033
 8228TIP3   OH224640   7.404   5.677   6.212
 8228TIP3    H124641   7.430   5.585   6.204
 8228TIP3    H224642   7.470   5.726   6.164
 8229TIP3   OH224643   5.378   3.425   5.730
 8229TIP3    H124644   5.384   3.505   5.678
 8229TIP3    H224645   5.414   3.448   5.816
 8230TIP3   OH224646   0.991   6.014   1.401
 8230TIP3    H124647   1.055   6.044   1.465
 8230TIP3    H224648   1.040   5.958   1.341
 8231TIP3   OH224649   2.713   4.600   2.671
 8231TIP3    H124650   2.646   4.540   2.639
 8231TIP3    H224651   2.765   4.546   2.731
 8232TIP3   OH224652   4.250   0.922   5.764
 8232TIP3    H124653   4.306   0.869   5.820
 8232TIP3    H224654   4.307   0.990   5.729
 8233TIP3   OH224655   5.469   0.408   3.001
 8233TIP3    H124656   5.421   0.374   2.925
 8233TIP3    H224657   5.441   0.352   3.073
 8234TIP3   OH224658   6.160   4.876   5.265
 8234TIP3    H124659   6.100   4.814   5.306
 8234TIP3    H224660   6.223   4.897   5.334
 8235TIP3   OH224661   3.386   4.227   5.866
 8235TIP3    H124662   3.348   4.139   5.868
 8235TIP3    H224663   3.345   4.272   5.939
 8236TIP3   OH224664   0.555   2.869   1.027
 8236TIP3    H124665   0.583   2.816   1.101
 8236TIP3    H224666   0.461   2.851   1.018
 8237TIP3   OH224667   5.313   1.023   1.162
 8237TIP3    H124668   5.316   1.077   1.083
 8237TIP3    H224669   5.242   1.060   1.214
 8238TIP3   OH224670   8.191   0.653   0.132
 8238TIP3    H124671   8.197   0.563   0.165
 8238TIP3    H224672   8.222   0.646   0.041
 8239TIP3   OH224673   7.124   0.811   3.530
 8239TIP3    H124674   7.216   0.808   3.557
 8239TIP3    H224675   7.121   0.762   3.448
 8240TIP3   OH224676   3.272   2.647   5.519
 8240TIP3    H124677   3.345   2.709   5.517
 8240TIP3    H224678   3.198   2.698   5.552
 8241TIP3   OH224679   6.107   3.490   5.749
 8241TIP3    H124680   6.066   3.409   5.720
 8241TIP3    H224681   6.100   3.549   5.674
 8242TIP3   OH224682   2.978   4.441   4.867
 8242TIP3    H124683   2.933   4.357   4.867
 8242TIP3    H224684   2.943   4.487   4.943
 8243TIP3   OH224685   1.680   5.763   4.037
 8243TIP3    H124686   1.764   5.720   4.055
 8243TIP3    H224687   1.626   5.694   3.998
 8244TIP3   OH224688   3.994   3.588   6.090
 8244TIP3    H124689   4.072   3.623   6.047
 8244TIP3    H224690   3.990   3.496   6.061
 8245TIP3   OH224691   1.749   6.310   4.463
 8245TIP3    H124692   1.787   6.234   4.420
 8245TIP3    H224693   1.727   6.370   4.392
 8246TIP3   OH224694   3.140   1.039   5.769
 8246TIP3    H124695   3.098   1.123   5.785
 8246TIP3    H224696   3.229   1.050   5.804
 8247TIP3   OH224697   2.298   2.325   6.768
 8247TIP3    H124698   2.235   2.331   6.696
 8247TIP3    H224699   2.257   2.265   6.831
 8248TIP3   OH224700   5.083   0.579   6.656
 8248TIP3    H124701   5.154   0.559   6.717
 8248TIP3    H224702   5.124   0.634   6.589
 8249TIP3   OH224703   1.862   5.225   0.300
 8249TIP3    H124704   1.782   5.202   0.348
 8249TIP3    H224705   1.832   5.275   0.225
 8250TIP3   OH224706   3.979   2.657   2.382
 8250TIP3    H124707   4.017   2.662   2.470
 8250TIP3    H224708   3.901   2.604   2.393
 8251TIP3   OH224709   4.265   4.022   4.710
 8251TIP3    H124710   4.217   3.974   4.777
 8251TIP3    H224711   4.318   4.086   4.760
 8252TIP3   OH224712   3.644   0.628   0.724
 8252TIP3    H124713   3.596   0.564   0.671
 8252TIP3    H224714   3.682   0.576   0.795
 8253TIP3   OH224715   6.916   4.443   0.308
 8253TIP3    H124716   6.829   4.484   0.301
 8253TIP3    H224717   6.974   4.503   0.261
 8254TIP3   OH224718   2.652   6.750   5.329
 8254TIP3    H124719   2.637   6.758   5.235
 8254TIP3    H224720   2.747   6.757   5.339
 8255TIP3   OH224721   3.995   2.439   0.219
 8255TIP3    H124722   4.084   2.404   0.208
 8255TIP3    H224723   3.965   2.456   0.129
 8256TIP3   OH224724   3.542   5.870   2.204
 8256TIP3    H124725   3.486   5.890   2.129
 8256TIP3    H224726   3.492   5.807   2.256
 8257TIP3   OH224727   2.169   6.658   1.618
 8257TIP3    H124728   2.253   6.690   1.586
 8257TIP3    H224729   2.191   6.598   1.689
 8258TIP3   OH224730   6.957   5.130   2.529
 8258TIP3    H124731   7.033   5.157   2.581
 8258TIP3    H224732   6.903   5.079   2.590
 8259TIP3   OH224733   7.492   1.140   1.838
 8259TIP3    H124734   7.533   1.065   1.881
 8259TIP3    H224735   7.432   1.100   1.774
 8260TIP3   OH224736   4.730   6.580   4.006
 8260TIP3    H124737   4.728   6.495   3.962
 8260TIP3    H224738   4.797   6.570   4.074
 8261TIP3   OH224739   7.904   1.888   2.644
 8261TIP3    H124740   7.925   1.797   2.622
 8261TIP3    H224741   7.913   1.936   2.562
 8262TIP3   OH224742   3.384   0.913   4.230
 8262TIP3    H124743   3.291   0.913   4.212
 8262TIP3    H224744   3.396   0.848   4.300
 8263TIP3   OH224745   0.524   4.365   0.819
 8263TIP3    H124746   0.543   4.404   0.904
 8263TIP3    H224747   0.446   4.312   0.833
 8264TIP3   OH224748   5.999   5.720   4.959
 8264TIP3    H124749   6.058   5.761   5.022
 8264TIP3    H224750   6.053   5.707   4.881
 8265TIP3   OH224751   0.134   3.546   4.929
 8265TIP3    H124752   0.171   3.610   4.990
 8265TIP3    H224753   0.039   3.556   4.937
 8266TIP3   OH224754   7.509   5.864   5.013
 8266TIP3    H124755   7.540   5.923   4.944
 8266TIP3    H224756   7.434   5.910   5.052
 8267TIP3   OH224757   6.926   4.973   0.311
 8267TIP3    H124758   7.007   5.021   0.324
 8267TIP3    H224759   6.954   4.881   0.305
 8268TIP3   OH224760   7.968   7.580   3.871
 8268TIP3    H124761   7.938   7.528   3.797
 8268TIP3    H224762   8.044   7.532   3.905
 8269TIP3   OH224763   5.208   4.482   5.153
 8269TIP3    H124764   5.284   4.468   5.210
 8269TIP3    H224765   5.146   4.531   5.207
 8270TIP3   OH224766   5.794   6.358   5.234
 8270TIP3    H124767   5.783   6.387   5.144
 8270TIP3    H224768   5.786   6.438   5.286
 8271TIP3   OH224769   7.284   5.581   1.501
 8271TIP3    H124770   7.299   5.649   1.435
 8271TIP3    H224771   7.330   5.504   1.467
 8272TIP3   OH224772   3.141   7.418   0.823
 8272TIP3    H124773   3.048   7.419   0.848
 8272TIP3    H224774   3.166   7.326   0.833
 8273TIP3   OH224775   6.756   1.045   4.809
 8273TIP3    H124776   6.761   0.961   4.764
 8273TIP3    H224777   6.841   1.056   4.850
 8274TIP3   OH224778   7.598   3.606   3.627
 8274TIP3    H124779   7.622   3.678   3.686
 8274TIP3    H224780   7.512   3.577   3.657
 8275TIP3   OH224781   7.735   0.870   2.240
 8275TIP3    H124782   7.659   0.839   2.289
 8275TIP3    H224783   7.701   0.890   2.153
 8276TIP3   OH224784   2.047   4.982   2.895
 8276TIP3    H124785   1.991   4.982   2.972
 8276TIP3    H224786   2.015   5.054   2.841
 8277TIP3   OH224787   0.231   0.526   4.305
 8277TIP3    H124788   0.155   0.493   4.353
 8277TIP3    H224789   0.276   0.447   4.274
 8278TIP3   OH224790   4.122   1.792   3.296
 8278TIP3    H124791   4.204   1.744   3.304
 8278TIP3    H224792   4.143   1.880   3.325
 8279TIP3   OH224793   3.100   4.771   0.396
 8279TIP3    H124794   3.069   4.858   0.371
 8279TIP3    H224795   3.182   4.760   0.346
 8280TIP3   OH224796   0.206   5.023   4.328
 8280TIP3    H124797   0.254   5.003   4.247
 8280TIP3    H224798   0.197   4.938   4.372
 8281TIP3   OH224799   4.776   5.888   6.017
 8281TIP3    H124800   4.847   5.950   6.034
 8281TIP3    H224801   4.698   5.943   6.009
 8282TIP3   OH224802   1.940   3.246   6.658
 8282TIP3    H124803   1.994   3.324   6.656
 8282TIP3    H224804   1.978   3.187   6.593
 8283TIP3   OH224805   5.689   2.615   3.604
 8283TIP3    H124806   5.740   2.538   3.579
 8283TIP3    H224807   5.749   2.667   3.657
 8284TIP3   OH224808   5.945   2.772   0.474
 8284TIP3    H124809   5.882   2.739   0.410
 8284TIP3    H224810   6.030   2.746   0.439
 8285TIP3   OH224811   3.085   1.664   3.248
 8285TIP3    H124812   3.142   1.617   3.309
 8285TIP3    H224813   3.000   1.622   3.258
 8286TIP3   OH224814   4.095   5.412   2.213
 8286TIP3    H124815   4.004   5.427   2.238
 8286TIP3    H224816   4.144   5.479   2.261
 8287TIP3   OH224817   1.311   6.400   0.012
 8287TIP3    H124818   1.372   6.451  -0.041
 8287TIP3    H224819   1.365   6.363   0.082
 8288TIP3   OH224820   0.362   6.367   3.073
 8288TIP3    H124821   0.386   6.275   3.080
 8288TIP3    H224822   0.276   6.367   3.030
 8289TIP3   OH224823   4.991   7.719   1.159
 8289TIP3    H124824   4.952   7.806   1.149
 8289TIP3    H224825   4.927   7.669   1.210
 8290TIP3   OH224826   7.754   5.436   6.114
 8290TIP3    H124827   7.702   5.356   6.122
 8290TIP3    H224828   7.698   5.497   6.067
 8291TIP3   OH224829   2.676   2.311   1.150
 8291TIP3    H124830   2.616   2.378   1.183
 8291TIP3    H224831   2.757   2.358   1.132
 8292TIP3   OH224832   4.883   4.720   0.712
 8292TIP3    H124833   4.898   4.814   0.699
 8292TIP3    H224834   4.818   4.697   0.646
 8293TIP3   OH224835   5.062   1.659   3.846
 8293TIP3    H124836   5.031   1.579   3.888
 8293TIP3    H224837   5.154   1.640   3.824
 8294TIP3   OH224838   4.345   6.335   1.307
 8294TIP3    H124839   4.333   6.411   1.365
 8294TIP3    H224840   4.267   6.281   1.322
 8295TIP3   OH224841   6.595   5.446   4.027
 8295TIP3    H124842   6.640   5.468   3.945
 8295TIP3    H224843   6.653   5.477   4.096
 8296TIP3   OH224844   5.584   7.110   3.337
 8296TIP3    H124845   5.650   7.156   3.285
 8296TIP3    H224846   5.562   7.172   3.406
 8297TIP3   OH224847   0.658   4.565   1.889
 8297TIP3    H124848   0.739   4.596   1.928
 8297TIP3    H224849   0.685   4.493   1.832
 8298TIP3   OH224850   2.807   1.827   2.343
 8298TIP3    H124851   2.847   1.740   2.354
 8298TIP3    H224852   2.844   1.860   2.261
 8299TIP3   OH224853   5.207   2.974   0.545
 8299TIP3    H124854   5.264   3.040   0.583
 8299TIP3    H224855   5.253   2.891   0.559
 8300TIP3   OH224856   1.316   7.484   0.251
 8300TIP3    H124857   1.286   7.429   0.323
 8300TIP3    H224858   1.325   7.571   0.289
 8301TIP3   OH224859   5.522   1.740   2.754
 8301TIP3    H124860   5.545   1.656   2.794
 8301TIP3    H224861   5.480   1.790   2.824
 8302TIP3   OH224862   1.133   1.643   3.513
 8302TIP3    H124863   1.050   1.603   3.541
 8302TIP3    H224864   1.158   1.593   3.435
 8303TIP3   OH224865   5.567   7.499   3.388
 8303TIP3    H124866   5.509   7.424   3.380
 8303TIP3    H224867   5.552   7.550   3.308
 8304TIP3   OH224868   4.175   0.574   2.707
 8304TIP3    H124869   4.212   0.518   2.775
 8304TIP3    H224870   4.241   0.642   2.693
 8305TIP3   OH224871   4.399   0.935   1.665
 8305TIP3    H124872   4.322   0.915   1.718
 8305TIP3    H224873   4.448   0.852   1.661
 8306TIP3   OH224874   6.859   7.000   2.480
 8306TIP3    H124875   6.785   6.941   2.493
 8306TIP3    H224876   6.853   7.063   2.551
 8307TIP3   OH224877   7.320   6.938   1.225
 8307TIP3    H124878   7.257   6.994   1.181
 8307TIP3    H224879   7.405   6.969   1.195
 8308TIP3   OH224880   0.190   5.803   6.078
 8308TIP3    H124881   0.203   5.762   5.993
 8308TIP3    H224882   0.097   5.792   6.097
 8309TIP3   OH224883   3.076   1.330   0.515
 8309TIP3    H124884   3.036   1.383   0.585
 8309TIP3    H224885   3.056   1.379   0.435
 8310TIP3   OH224886   5.192   2.153   6.242
 8310TIP3    H124887   5.272   2.112   6.209
 8310TIP3    H224888   5.123   2.122   6.183
 8311TIP3   OH224889   1.603   7.861   0.942
 8311TIP3    H124890   1.638   7.840   0.855
 8311TIP3    H224891   1.590   7.775   0.983
 8312TIP3   OH224892   7.624   6.212   5.056
 8312TIP3    H124893   7.697   6.220   4.994
 8312TIP3    H224894   7.663   6.232   5.142
 8313TIP3   OH224895   5.756   0.524   5.003
 8313TIP3    H124896   5.760   0.599   5.063
 8313TIP3    H224897   5.804   0.455   5.047
 8314TIP3   OH224898   5.221   4.745   3.623
 8314TIP3    H124899   5.281   4.812   3.657
 8314TIP3    H224900   5.171   4.717   3.700
 8315TIP3   OH224901   3.413   3.120   3.287
 8315TIP3    H124902   3.433   3.134   3.195
 8315TIP3    H224903   3.382   3.205   3.318
 8316TIP3   OH224904   2.277   7.547   6.449
 8316TIP3    H124905   2.370   7.550   6.472
 8316TIP3    H224906   2.231   7.570   6.530
 8317TIP3   OH224907   4.871   0.571   2.706
 8317TIP3    H124908   4.851   0.647   2.653
 8317TIP3    H224909   4.873   0.604   2.796
 8318TIP3   OH224910   3.742   6.955   0.846
 8318TIP3    H124911   3.704   6.873   0.815
 8318TIP3    H224912   3.701   6.969   0.931
 8319TIP3   OH224913   0.256   7.003   3.015
 8319TIP3    H124914   0.213   6.933   3.065
 8319TIP3    H224915   0.245   6.978   2.923
 8320TIP3   OH224916   6.285   0.427   0.501
 8320TIP3    H124917   6.380   0.416   0.496
 8320TIP3    H224918   6.271   0.487   0.574
 8321TIP3   OH224919   8.203   1.324   0.098
 8321TIP3    H124920   8.252   1.302   0.177
 8321TIP3    H224921   8.136   1.255   0.091
 8322TIP3   OH224922   8.012   6.725   3.590
 8322TIP3    H124923   7.984   6.636   3.610
 8322TIP3    H224924   8.107   6.718   3.581
 8323TIP3   OH224925   3.775   3.077   0.730
 8323TIP3    H124926   3.818   3.161   0.743
 8323TIP3    H224927   3.825   3.034   0.661
 8324TIP3   OH224928   5.459   4.625   0.669
 8324TIP3    H124929   5.526   4.625   0.737
 8324TIP3    H224930   5.452   4.716   0.643
 8325TIP3   OH224931   7.213   5.396   3.123
 8325TIP3    H124932   7.194   5.467   3.062
 8325TIP3    H224933   7.186   5.429   3.208
 8326TIP3   OH224934   2.793   7.418   1.908
 8326TIP3    H124935   2.883   7.428   1.876
 8326TIP3    H224936   2.773   7.325   1.894
 8327TIP3   OH224937   3.305   2.437   5.889
 8327TIP3    H124938   3.375   2.487   5.931
 8327TIP3    H224939   3.263   2.389   5.960
 8328TIP3   OH224940   3.653   2.354   3.856
 8328TIP3    H124941   3.636   2.405   3.776
 8328TIP3    H224942   3.577   2.297   3.865
 8329TIP3   OH224943   5.545   6.044   2.401
 8329TIP3    H124944   5.557   6.123   2.453
 8329TIP3    H224945   5.495   6.072   2.324
 8330TIP3   OH224946   5.971   1.965   1.700
 8330TIP3    H124947   5.981   1.870   1.710
 8330TIP3    H224948   6.060   2.000   1.705
 8331TIP3   OH224949   5.363   0.229   1.773
 8331TIP3    H124950   5.384   0.180   1.853
 8331TIP3    H224951   5.361   0.162   1.704
 8332TIP3   OH224952   7.263   1.396   1.732
 8332TIP3    H124953   7.348   1.354   1.742
 8332TIP3    H224954   7.208   1.356   1.800
 8333TIP3   OH224955   7.386   6.664   6.348
 8333TIP3    H124956   7.312   6.700   6.299
 8333TIP3    H224957   7.439   6.619   6.282
 8334TIP3   OH224958   6.803   4.688   5.660
 8334TIP3    H124959   6.898   4.699   5.652
 8334TIP3    H224960   6.792   4.624   5.731
 8335TIP3   OH224961   2.087   1.159   2.242
 8335TIP3    H124962   2.026   1.187   2.174
 8335TIP3    H224963   2.064   1.067   2.259
 8336TIP3   OH224964   2.805   7.607   3.828
 8336TIP3    H124965   2.883   7.606   3.773
 8336TIP3    H224966   2.737   7.646   3.772
 8337TIP3   OH224967   6.637   0.297   1.775
 8337TIP3    H124968   6.560   0.344   1.809
 8337TIP3    H224969   6.676   0.256   1.852
 8338TIP3   OH224970   8.323   5.855   5.053
 8338TIP3    H124971   8.258   5.910   5.011
 8338TIP3    H224972   8.293   5.848   5.144
 8339TIP3   OH224973   6.374   1.256   5.191
 8339TIP3    H124974   6.426   1.311   5.133
 8339TIP3    H224975   6.314   1.209   5.133
 8340TIP3   OH224976   0.725   1.238   5.079
 8340TIP3    H124977   0.819   1.223   5.064
 8340TIP3    H224978   0.708   1.199   5.165
 8341TIP3   OH224979   2.924   0.991   4.467
 8341TIP3    H124980   2.950   0.978   4.558
 8341TIP3    H224981   2.835   1.026   4.472
 8342TIP3   OH224982   4.841   7.077   3.819
 8342TIP3    H124983   4.766   7.028   3.854
 8342TIP3    H224984   4.906   7.075   3.890
 8343TIP3   OH224985   2.532   1.843   5.313
 8343TIP3    H124986   2.585   1.770   5.280
 8343TIP3    H224987   2.462   1.852   5.248
 8344TIP3   OH224988   2.861   5.879   2.710
 8344TIP3    H124989   2.778   5.831   2.716
 8344TIP3    H224990   2.851   5.950   2.773
 8345TIP3   OH224991   0.801   2.019   6.487
 8345TIP3    H124992   0.791   1.924   6.479
 8345TIP3    H224993   0.735   2.055   6.427
 8346TIP3   OH224994   7.168   6.673   3.038
 8346TIP3    H124995   7.171   6.676   2.943
 8346TIP3    H224996   7.076   6.660   3.059
 8347TIP3   OH224997   7.546   7.470   2.138
 8347TIP3    H124998   7.557   7.376   2.130
 8347TIP3    H224999   7.534   7.501   2.048
 8348TIP3   OH225000   2.099   6.503   2.958
 8348TIP3    H125001   2.068   6.593   2.974
 8348TIP3    H225002   2.127   6.503   2.866
 8349TIP3   OH225003   6.141   1.717   6.226
 8349TIP3    H125004   6.112   1.672   6.305
 8349TIP3    H225005   6.229   1.682   6.209
 8350TIP3   OH225006   5.486   1.335   1.238
 8350TIP3    H125007   5.565   1.328   1.292
 8350TIP3    H225008   5.514   1.305   1.152
 8351TIP3   OH225009   0.470   7.165   6.677
 8351TIP3    H125010   0.395   7.110   6.659
 8351TIP3    H225011   0.444   7.217   6.753
 8352TIP3   OH225012   1.691   4.715   3.937
 8352TIP3    H125013   1.766   4.700   3.995
 8352TIP3    H225014   1.724   4.779   3.873
 8353TIP3   OH225015   5.534   3.601   0.487
 8353TIP3    H125016   5.566   3.588   0.398
 8353TIP3    H225017   5.439   3.586   0.481
 8354TIP3   OH225018   6.562   6.899   5.164
 8354TIP3    H125019   6.657   6.912   5.160
 8354TIP3    H225020   6.536   6.939   5.247
 8355TIP3   OH225021   0.681   6.239   5.867
 8355TIP3    H125022   0.601   6.272   5.910
 8355TIP3    H225023   0.742   6.223   5.939
 8356TIP3   OH225024   3.258   3.831   3.845
 8356TIP3    H125025   3.277   3.762   3.782
 8356TIP3    H225026   3.341   3.879   3.854
 8357TIP3   OH225027   3.402   5.138   6.574
 8357TIP3    H125028   3.313   5.149   6.539
 8357TIP3    H225029   3.415   5.043   6.576
 8358TIP3   OH225030   6.119   2.217   2.757
 8358TIP3    H125031   6.165   2.205   2.841
 8358TIP3    H225032   6.150   2.144   2.703
 8359TIP3   OH225033   3.910   7.443   2.977
 8359TIP3    H125034   3.960   7.468   2.900
 8359TIP3    H225035   3.830   7.403   2.942
 8360TIP3   OH225036   6.066   7.000   5.296
 8360TIP3    H125037   6.036   7.087   5.270
 8360TIP3    H225038   6.143   7.016   5.351
 8361TIP3   OH225039   1.867   7.721   2.049
 8361TIP3    H125040   1.898   7.651   1.991
 8361TIP3    H225041   1.812   7.776   1.993
 8362TIP3   OH225042   5.623   7.818   2.127
 8362TIP3    H125043   5.652   7.813   2.037
 8362TIP3    H225044   5.686   7.766   2.176
 8363TIP3   OH225045   0.749   7.664   3.443
 8363TIP3    H125046   0.843   7.650   3.445
 8363TIP3    H225047   0.712   7.578   3.422
 8364TIP3   OH225048   2.070   7.347   1.282
 8364TIP3    H125049   2.012   7.386   1.217
 8364TIP3    H225050   2.089   7.259   1.248
 8365TIP3   OH225051   2.204   5.963   0.470
 8365TIP3    H125052   2.257   6.041   0.452
 8365TIP3    H225053   2.212   5.951   0.565
 8366TIP3   OH225054   1.215   4.503   5.335
 8366TIP3    H125055   1.247   4.552   5.411
 8366TIP3    H225056   1.253   4.548   5.259
 8367TIP3   OH225057   7.859   0.105   4.800
 8367TIP3    H125058   7.837   0.181   4.747
 8367TIP3    H225059   7.947   0.079   4.771
 8368TIP3   OH225060   7.760   6.141   3.106
 8368TIP3    H125061   7.783   6.049   3.091
 8368TIP3    H225062   7.665   6.142   3.100
 8369TIP3   OH225063   4.194   6.183   5.329
 8369TIP3    H125064   4.179   6.089   5.318
 8369TIP3    H225065   4.129   6.224   5.272
 8370TIP3   OH225066   1.362   7.322   4.564
 8370TIP3    H125067   1.390   7.319   4.655
 8370TIP3    H225068   1.270   7.295   4.565
 8371TIP3   OH225069   6.886   6.203   6.316
 8371TIP3    H125070   6.794   6.187   6.294
 8371TIP3    H225071   6.885   6.282   6.370
 8372TIP3   OH225072   1.180   0.503   5.762
 8372TIP3    H125073   1.270   0.533   5.769
 8372TIP3    H225074   1.165   0.451   5.841
 8373TIP3   OH225075   6.705   6.121   2.796
 8373TIP3    H125076   6.613   6.112   2.773
 8373TIP3    H225077   6.706   6.190   2.862
 8374TIP3   OH225078   0.284   3.242   1.337
 8374TIP3    H125079   0.224   3.314   1.316
 8374TIP3    H225080   0.255   3.170   1.281
 8375TIP3   OH225081   7.162   6.378   0.611
 8375TIP3    H125082   7.137   6.465   0.644
 8375TIP3    H225083   7.131   6.378   0.520
 8376TIP3   OH225084   1.707   3.098   6.690
 8376TIP3    H125085   1.685   3.054   6.608
 8376TIP3    H225086   1.791   3.141   6.673
 8377TIP3   OH225087   1.137   5.203   3.825
 8377TIP3    H125088   1.184   5.121   3.841
 8377TIP3    H225089   1.050   5.175   3.796
 8378TIP3   OH225090   3.339   1.179   3.780
 8378TIP3    H125091   3.322   1.088   3.804
 8378TIP3    H225092   3.314   1.230   3.856
 8379TIP3   OH225093   6.068   2.270   3.142
 8379TIP3    H125094   6.020   2.300   3.065
 8379TIP3    H225095   6.095   2.351   3.186
 8380TIP3   OH225096   2.033   1.366   1.094
 8380TIP3    H125097   2.068   1.293   1.041
 8380TIP3    H225098   1.980   1.323   1.161
 8381TIP3   OH225099   0.360   2.230   6.018
 8381TIP3    H125100   0.304   2.238   6.095
 8381TIP3    H225101   0.340   2.143   5.983
 8382TIP3   OH225102   6.522   7.255   1.769
 8382TIP3    H125103   6.449   7.261   1.708
 8382TIP3    H225104   6.520   7.338   1.816
 8383TIP3   OH225105   5.511   1.456   5.601
 8383TIP3    H125106   5.464   1.386   5.647
 8383TIP3    H225107   5.595   1.461   5.645
 8384TIP3   OH225108   3.311   1.918   3.092
 8384TIP3    H125109   3.252   1.875   3.029
 8384TIP3    H225110   3.390   1.864   3.091
 8385TIP3   OH225111   6.411   4.645   5.427
 8385TIP3    H125112   6.361   4.724   5.448
 8385TIP3    H225113   6.377   4.578   5.487
 8386TIP3   OH225114   1.427   4.874   3.728
 8386TIP3    H125115   1.341   4.859   3.766
 8386TIP3    H225116   1.438   4.969   3.729
 8387TIP3   OH225117   4.224   7.580   3.418
 8387TIP3    H125118   4.176   7.528   3.483
 8387TIP3    H225119   4.188   7.552   3.334
 8388TIP3   OH225120   2.105   5.196   6.503
 8388TIP3    H125121   2.197   5.219   6.491
 8388TIP3    H225122   2.068   5.197   6.414
 8389TIP3   OH225123   6.824   5.342   5.406
 8389TIP3    H125124   6.866   5.260   5.431
 8389TIP3    H225125   6.877   5.409   5.448
 8390TIP3   OH225126   1.258   3.482   5.781
 8390TIP3    H125127   1.331   3.520   5.734
 8390TIP3    H225128   1.283   3.486   5.873
 8391TIP3   OH225129   2.908   1.552   3.592
 8391TIP3    H125130   2.827   1.527   3.636
 8391TIP3    H225131   2.961   1.472   3.592
 8392TIP3   OH225132   4.470   4.151   1.548
 8392TIP3    H125133   4.476   4.247   1.548
 8392TIP3    H225134   4.442   4.128   1.459
 8393TIP3   OH225135   1.614   2.330   2.198
 8393TIP3    H125136   1.608   2.272   2.122
 8393TIP3    H225137   1.569   2.410   2.171
 8394TIP3   OH225138   7.786   7.329   2.706
 8394TIP3    H125139   7.724   7.345   2.635
 8394TIP3    H225140   7.732   7.296   2.778
 8395TIP3   OH225141   7.777   7.597   2.888
 8395TIP3    H125142   7.797   7.639   2.971
 8395TIP3    H225143   7.846   7.627   2.829
 8396TIP3   OH225144   2.081   5.753   4.752
 8396TIP3    H125145   2.001   5.761   4.804
 8396TIP3    H225146   2.053   5.708   4.672
 8397TIP3   OH225147   0.067   2.307   3.631
 8397TIP3    H125148   0.066   2.397   3.600
 8397TIP3    H225149  -0.023   2.290   3.657
 8398TIP3   OH225150   5.874   7.344   6.591
 8398TIP3    H125151   5.791   7.314   6.554
 8398TIP3    H225152   5.913   7.266   6.629
 8399TIP3   OH225153   6.238   4.850   4.389
 8399TIP3    H125154   6.241   4.761   4.353
 8399TIP3    H225155   6.324   4.887   4.368
 8400TIP3   OH225156   1.531   2.122   5.370
 8400TIP3    H125157   1.522   2.034   5.333
 8400TIP3    H225158   1.494   2.179   5.303
 8401TIP3   OH225159   4.601   4.622   1.278
 8401TIP3    H125160   4.653   4.608   1.357
 8401TIP3    H225161   4.661   4.664   1.217
 8402TIP3   OH225162   7.510   0.765   2.966
 8402TIP3    H125163   7.525   0.693   2.906
 8402TIP3    H225164   7.490   0.840   2.909
 8403TIP3   OH225165   0.214   7.174   0.089
 8403TIP3    H125166   0.149   7.143   0.025
 8403TIP3    H225167   0.173   7.251   0.128
 8404TIP3   OH225168   0.889   4.688   1.990
 8404TIP3    H125169   0.919   4.777   2.012
 8404TIP3    H225170   0.955   4.655   1.929
 8405TIP3   OH225171   2.033   7.050   4.086
 8405TIP3    H125172   2.003   6.976   4.033
 8405TIP3    H225173   2.121   7.025   4.115
 8406TIP3   OH225174   1.306   5.192   1.331
 8406TIP3    H125175   1.360   5.123   1.369
 8406TIP3    H225176   1.368   5.246   1.282
 8407TIP3   OH225177   4.812   0.997   0.480
 8407TIP3    H125178   4.805   0.933   0.409
 8407TIP3    H225179   4.879   0.961   0.539
 8408TIP3   OH225180   6.441   3.863   4.915
 8408TIP3    H125181   6.478   3.837   5.000
 8408TIP3    H225182   6.363   3.913   4.938
 8409TIP3   OH225183   5.835   3.785   2.955
 8409TIP3    H125184   5.838   3.701   2.910
 8409TIP3    H225185   5.850   3.764   3.047
 8410TIP3   OH225186   5.149   1.189   0.617
 8410TIP3    H125187   5.241   1.210   0.632
 8410TIP3    H225188   5.130   1.224   0.530
 8411TIP3   OH225189   2.418   3.483   4.592
 8411TIP3    H125190   2.495   3.537   4.572
 8411TIP3    H225191   2.345   3.528   4.550
 8412TIP3   OH225192   5.530   3.509   5.960
 8412TIP3    H125193   5.532   3.590   6.011
 8412TIP3    H225194   5.621   3.477   5.962
 8413TIP3   OH225195   1.203   3.661   3.484
 8413TIP3    H125196   1.207   3.663   3.579
 8413TIP3    H225197   1.170   3.573   3.463
 8414TIP3   OH225198   6.840   1.476   6.393
 8414TIP3    H125199   6.854   1.456   6.301
 8414TIP3    H225200   6.925   1.506   6.425
 8415TIP3   OH225201   7.190   4.855   5.219
 8415TIP3    H125202   7.117   4.807   5.258
 8415TIP3    H225203   7.218   4.800   5.145
 8416TIP3   OH225204   0.998   0.570   3.807
 8416TIP3    H125205   0.974   0.629   3.736
 8416TIP3    H225206   0.973   0.483   3.775
 8417TIP3   OH225207   6.062   2.150   4.766
 8417TIP3    H125208   6.040   2.090   4.837
 8417TIP3    H225209   6.037   2.102   4.686
 8418TIP3   OH225210   4.431   0.594   1.294
 8418TIP3    H125211   4.480   0.624   1.219
 8418TIP3    H225212   4.400   0.507   1.269
 8419TIP3   OH225213   4.151   6.936   5.679
 8419TIP3    H125214   4.110   6.884   5.610
 8419TIP3    H225215   4.200   6.873   5.731
 8420TIP3   OH225216   4.601   5.487   3.832
 8420TIP3    H125217   4.610   5.392   3.840
 8420TIP3    H225218   4.550   5.512   3.910
 8421TIP3   OH225219   3.753   6.638   1.059
 8421TIP3    H125220   3.825   6.680   1.013
 8421TIP3    H225221   3.706   6.590   0.991
 8422TIP3   OH225222   5.605   2.718   0.798
 8422TIP3    H125223   5.546   2.672   0.739
 8422TIP3    H225224   5.692   2.682   0.780
 8423TIP3   OH225225   5.690   5.615   3.772
 8423TIP3    H125226   5.757   5.552   3.798
 8423TIP3    H225227   5.661   5.655   3.854
 8424TIP3   OH225228   6.554   7.541   5.694
 8424TIP3    H125229   6.468   7.505   5.671
 8424TIP3    H225230   6.573   7.502   5.779
 8425TIP3   OH225231   2.319   5.624   3.648
 8425TIP3    H125232   2.262   5.696   3.620
 8425TIP3    H225233   2.374   5.606   3.572
 8426TIP3   OH225234   0.429   4.845   4.194
 8426TIP3    H125235   0.445   4.788   4.119
 8426TIP3    H225236   0.421   4.785   4.268
 8427TIP3   OH225237   6.084   0.651   4.916
 8427TIP3    H125238   6.121   0.563   4.915
 8427TIP3    H225239   6.010   0.647   4.855
 8428TIP3   OH225240   5.467   4.773   4.493
 8428TIP3    H125241   5.551   4.817   4.484
 8428TIP3    H225242   5.449   4.736   4.406
 8429TIP3   OH225243   5.430   2.201   3.651
 8429TIP3    H125244   5.514   2.155   3.652
 8429TIP3    H225245   5.401   2.199   3.742
 8430TIP3   OH225246   6.121   7.308   3.472
 8430TIP3    H125247   6.118   7.311   3.376
 8430TIP3    H225248   6.043   7.259   3.497
 8431TIP3   OH225249   0.724   7.335   5.470
 8431TIP3    H125250   0.746   7.248   5.504
 8431TIP3    H225251   0.637   7.354   5.505
 8432TIP3   OH225252   2.843   2.712   5.567
 8432TIP3    H125253   2.804   2.633   5.603
 8432TIP3    H225254   2.875   2.760   5.643
 8433TIP3   OH225255   4.031   4.172   1.393
 8433TIP3    H125256   3.943   4.190   1.425
 8433TIP3    H225257   4.087   4.187   1.469
 8434TIP3   OH225258   6.003   5.894   3.659
 8434TIP3    H125259   6.082   5.948   3.666
 8434TIP3    H225260   5.998   5.848   3.743
 8435TIP3   OH225261   3.798   7.372   2.269
 8435TIP3    H125262   3.856   7.299   2.289
 8435TIP3    H225263   3.857   7.446   2.252
 8436TIP3   OH225264   7.258   6.683   0.777
 8436TIP3    H125265   7.200   6.718   0.709
 8436TIP3    H225266   7.322   6.631   0.728
 8437TIP3   OH225267   2.527   6.876   6.533
 8437TIP3    H125268   2.431   6.882   6.527
 8437TIP3    H225269   2.546   6.885   6.626
 8438TIP3   OH225270   8.169   1.745   1.802
 8438TIP3    H125271   8.115   1.706   1.734
 8438TIP3    H225272   8.113   1.812   1.842
 8439TIP3   OH225273   5.328   1.142   0.916
 8439TIP3    H125274   5.359   1.148   0.826
 8439TIP3    H225275   5.392   1.194   0.966
 8440TIP3   OH225276   1.108   5.460   5.824
 8440TIP3    H125277   1.075   5.454   5.914
 8440TIP3    H225278   1.059   5.534   5.786
 8441TIP3   OH225279   5.014   2.271   3.348
 8441TIP3    H125280   5.004   2.184   3.310
 8441TIP3    H225281   4.967   2.329   3.288
 8442TIP3   OH225282   0.264   5.756   5.036
 8442TIP3    H125283   0.300   5.786   4.952
 8442TIP3    H225284   0.179   5.800   5.042
 8443TIP3   OH225285   1.747   6.767   5.962
 8443TIP3    H125286   1.757   6.672   5.963
 8443TIP3    H225287   1.699   6.786   5.881
 8444TIP3   OH225288   4.059   7.810   0.415
 8444TIP3    H125289   3.993   7.764   0.467
 8444TIP3    H225290   4.043   7.903   0.432
 8445TIP3   OH225291   7.914   1.443   0.398
 8445TIP3    H125292   7.896   1.535   0.414
 8445TIP3    H225293   7.984   1.421   0.460
 8446TIP3   OH225294   0.198   2.881   1.414
 8446TIP3    H125295   0.221   2.856   1.325
 8446TIP3    H225296   0.174   2.798   1.456
 8447TIP3   OH225297   5.079   3.853   1.931
 8447TIP3    H125298   5.167   3.836   1.897
 8447TIP3    H225299   5.093   3.871   2.024
 8448TIP3   OH225300   3.105   4.200   2.312
 8448TIP3    H125301   3.074   4.286   2.341
 8448TIP3    H225302   3.030   4.142   2.328
 8449TIP3   OH225303   4.078   7.041   5.238
 8449TIP3    H125304   4.150   6.984   5.210
 8449TIP3    H225305   4.118   7.101   5.301
 8450TIP3   OH225306   2.897   1.852   0.855
 8450TIP3    H125307   2.865   1.941   0.870
 8450TIP3    H225308   2.820   1.797   0.869
 8451TIP3   OH225309   6.625   7.085   3.588
 8451TIP3    H125310   6.663   7.012   3.539
 8451TIP3    H225311   6.534   7.059   3.601
 8452TIP3   OH225312   0.736   3.171   0.513
 8452TIP3    H125313   0.696   3.240   0.566
 8452TIP3    H225314   0.754   3.213   0.429
 8453TIP3   OH225315   0.609   7.369   4.370
 8453TIP3    H125316   0.559   7.292   4.397
 8453TIP3    H225317   0.641   7.407   4.452
 8454TIP3   OH225318   1.457   1.569   2.621
 8454TIP3    H125319   1.405   1.502   2.666
 8454TIP3    H225320   1.509   1.610   2.690
 8455TIP3   OH225321   6.004   1.191   3.490
 8455TIP3    H125322   6.075   1.252   3.470
 8455TIP3    H225323   5.967   1.223   3.572
 8456TIP3   OH225324   3.012   7.653   1.712
 8456TIP3    H125325   3.045   7.586   1.773
 8456TIP3    H225326   3.091   7.698   1.682
 8457TIP3   OH225327   3.067   4.368   0.372
 8457TIP3    H125328   3.079   4.305   0.301
 8457TIP3    H225329   2.981   4.347   0.409
 8458TIP3   OH225330   4.444   1.201   0.125
 8458TIP3    H125331   4.381   1.241   0.185
 8458TIP3    H225332   4.413   1.112   0.113
 8459TIP3   OH225333   3.696   2.496   1.206
 8459TIP3    H125334   3.732   2.562   1.265
 8459TIP3    H225335   3.632   2.544   1.152
 8460TIP3   OH225336   1.111   1.852   1.355
 8460TIP3    H125337   1.070   1.774   1.318
 8460TIP3    H225338   1.177   1.877   1.290
 8461TIP3   OH225339   2.584   1.626   2.736
 8461TIP3    H125340   2.561   1.667   2.820
 8461TIP3    H225341   2.619   1.698   2.684
 8462TIP3   OH225342   2.363   5.667   6.172
 8462TIP3    H125343   2.274   5.699   6.162
 8462TIP3    H225344   2.413   5.743   6.201
 8463TIP3   OH225345   4.883   1.446   1.937
 8463TIP3    H125346   4.854   1.383   1.871
 8463TIP3    H225347   4.803   1.486   1.969
 8464TIP3   OH225348   1.436   5.286   2.627
 8464TIP3    H125349   1.412   5.363   2.575
 8464TIP3    H225350   1.355   5.236   2.634
 8465TIP3   OH225351   7.184   4.586   5.837
 8465TIP3    H125352   7.174   4.681   5.836
 8465TIP3    H225353   7.199   4.565   5.929
 8466TIP3   OH225354   2.437   7.358   4.312
 8466TIP3    H125355   2.392   7.275   4.323
 8466TIP3    H225356   2.371   7.424   4.336
 8467TIP3   OH225357   5.001   1.348   0.210
 8467TIP3    H125358   5.018   1.291   0.135
 8467TIP3    H225359   4.906   1.345   0.221
 8468TIP3   OH225360   6.488   6.254   2.245
 8468TIP3    H125361   6.561   6.293   2.293
 8468TIP3    H225362   6.443   6.200   2.310
 8469TIP3   OH225363   1.927   7.498   1.881
 8469TIP3    H125364   1.875   7.516   1.803
 8469TIP3    H225365   1.988   7.429   1.854
 8470TIP3   OH225366   2.080   4.811   1.335
 8470TIP3    H125367   2.130   4.863   1.399
 8470TIP3    H225368   2.130   4.820   1.254
 8471TIP3   OH225369   1.870   3.072   1.290
 8471TIP3    H125370   1.811   3.071   1.215
 8471TIP3    H225371   1.814   3.050   1.365
 8472TIP3   OH225372   3.318   4.630   2.600
 8472TIP3    H125373   3.404   4.598   2.627
 8472TIP3    H225374   3.265   4.627   2.679
 8473TIP3   OH225375   4.379   3.432   4.510
 8473TIP3    H125376   4.382   3.503   4.446
 8473TIP3    H225377   4.390   3.476   4.595
 8474TIP3   OH225378   1.598   1.778   5.261
 8474TIP3    H125379   1.641   1.693   5.267
 8474TIP3    H225380   1.576   1.801   5.351
 8475TIP3   OH225381   0.836   2.415   3.820
 8475TIP3    H125382   0.850   2.489   3.762
 8475TIP3    H225383   0.742   2.400   3.818
 8476TIP3   OH225384   7.448   5.106   3.930
 8476TIP3    H125385   7.536   5.081   3.902
 8476TIP3    H225386   7.394   5.029   3.912
 8477TIP3   OH225387   1.056   5.836   0.628
 8477TIP3    H125388   0.991   5.787   0.578
 8477TIP3    H225389   1.135   5.783   0.625
 8478TIP3   OH225390   0.689   5.680   5.809
 8478TIP3    H125391   0.780   5.654   5.797
 8478TIP3    H225392   0.658   5.625   5.882
 8479TIP3   OH225393   2.332   0.749   5.337
 8479TIP3    H125394   2.264   0.814   5.350
 8479TIP3    H225395   2.372   0.738   5.424
 8480TIP3   OH225396   5.092   1.265   2.067
 8480TIP3    H125397   5.160   1.323   2.032
 8480TIP3    H225398   5.011   1.295   2.027
 8481TIP3   OH225399   7.365   4.371   2.268
 8481TIP3    H125400   7.348   4.371   2.174
 8481TIP3    H225401   7.368   4.278   2.292
 8482TIP3   OH225402   6.289   1.105   2.887
 8482TIP3    H125403   6.367   1.161   2.881
 8482TIP3    H225404   6.230   1.141   2.821
 8483TIP3   OH225405   5.624   6.330   4.065
 8483TIP3    H125406   5.537   6.360   4.094
 8483TIP3    H225407   5.607   6.289   3.980
 8484TIP3   OH225408   3.282   1.814   1.095
 8484TIP3    H125409   3.291   1.876   1.167
 8484TIP3    H225410   3.372   1.794   1.069
 8485TIP3   OH225411   1.282   6.052   2.861
 8485TIP3    H125412   1.348   6.086   2.799
 8485TIP3    H225413   1.275   6.120   2.928
 8486TIP3   OH225414   2.766   2.951   3.730
 8486TIP3    H125415   2.751   2.903   3.649
 8486TIP3    H225416   2.682   2.990   3.752
 8487TIP3   OH225417   3.621   4.731   0.801
 8487TIP3    H125418   3.664   4.814   0.818
 8487TIP3    H225419   3.599   4.734   0.708
 8488TIP3   OH225420   6.252   7.731   6.351
 8488TIP3    H125421   6.163   7.722   6.384
 8488TIP3    H225422   6.275   7.643   6.319
 8489TIP3   OH225423   2.262   1.962   0.662
 8489TIP3    H125424   2.352   1.955   0.694
 8489TIP3    H225425   2.241   1.874   0.631
 8490TIP3   OH225426   2.825   1.901   5.734
 8490TIP3    H125427   2.889   1.944   5.677
 8490TIP3    H225428   2.775   1.845   5.676
 8491TIP3   OH225429   3.990   1.152   0.743
 8491TIP3    H125430   3.917   1.174   0.684
 8491TIP3    H225431   4.064   1.202   0.709
 8492TIP3   OH225432   4.310   3.742   0.532
 8492TIP3    H125433   4.284   3.759   0.623
 8492TIP3    H225434   4.346   3.653   0.534
 8493TIP3   OH225435   2.240   7.544   2.435
 8493TIP3    H125436   2.327   7.583   2.430
 8493TIP3    H225437   2.194   7.577   2.358
 8494TIP3   OH225438   6.463   3.000   3.294
 8494TIP3    H125439   6.409   2.946   3.351
 8494TIP3    H225440   6.453   3.089   3.329
 8495TIP3   OH225441   1.082   2.947   1.044
 8495TIP3    H125442   1.120   2.962   0.958
 8495TIP3    H225443   1.143   2.888   1.087
 8496TIP3   OH225444   7.641   1.364   2.927
 8496TIP3    H125445   7.608   1.357   2.838
 8496TIP3    H225446   7.698   1.287   2.938
 8497TIP3   OH225447   2.614   2.089   3.061
 8497TIP3    H125448   2.704   2.057   3.064
 8497TIP3    H225449   2.609   2.153   3.131
 8498TIP3   OH225450   1.618   0.672   4.845
 8498TIP3    H125451   1.580   0.759   4.832
 8498TIP3    H225452   1.702   0.676   4.799
 8499TIP3   OH225453   2.755   2.954   1.654
 8499TIP3    H125454   2.726   2.907   1.576
 8499TIP3    H225455   2.679   3.003   1.683
 8500TIP3   OH225456   3.480   6.245   4.759
 8500TIP3    H125457   3.551   6.303   4.731
 8500TIP3    H225458   3.495   6.164   4.710
 8501TIP3   OH225459   0.407   7.721   5.963
 8501TIP3    H125460   0.331   7.664   5.964
 8501TIP3    H225461   0.372   7.808   5.982
 8502TIP3   OH225462   2.605   0.664   5.647
 8502TIP3    H125463   2.688   0.706   5.624
 8502TIP3    H225464   2.589   0.693   5.737
 8503TIP3   OH225465   5.883   5.998   3.403
 8503TIP3    H125466   5.877   5.949   3.321
 8503TIP3    H225467   5.949   5.952   3.455
 8504TIP3   OH225468   5.652   0.629   3.012
 8504TIP3    H125469   5.594   0.553   3.005
 8504TIP3    H225470   5.601   0.694   3.060
 8505TIP3   OH225471   2.636   2.513   0.885
 8505TIP3    H125472   2.690   2.443   0.849
 8505TIP3    H225473   2.583   2.543   0.812
 8506TIP3   OH225474   6.441   4.056   3.868
 8506TIP3    H125475   6.416   3.984   3.927
 8506TIP3    H225476   6.439   4.017   3.780
 8507TIP3   OH225477   1.832   7.542   5.611
 8507TIP3    H125478   1.774   7.557   5.536
 8507TIP3    H225479   1.774   7.547   5.687
 8508TIP3   OH225480   6.143   7.055   4.007
 8508TIP3    H125481   6.108   6.988   4.065
 8508TIP3    H225482   6.233   7.027   3.989
 8509TIP3   OH225483   1.541   7.778   3.799
 8509TIP3    H125484   1.473   7.734   3.749
 8509TIP3    H225485   1.495   7.847   3.847
 8510TIP3   OH225486   2.003   7.740   4.182
 8510TIP3    H125487   1.927   7.771   4.134
 8510TIP3    H225488   2.069   7.725   4.115
 8511TIP3   OH225489   5.361   0.115   0.526
 8511TIP3    H125490   5.269   0.096   0.546
 8511TIP3    H225491   5.405   0.030   0.530
 8512TIP3   OH225492   2.027   7.479   1.517
 8512TIP3    H125493   2.051   7.422   1.443
 8512TIP3    H225494   2.010   7.564   1.477
 8513TIP3   OH225495   2.089   1.310   5.774
 8513TIP3    H125496   2.171   1.337   5.732
 8513TIP3    H225497   2.037   1.272   5.703
 8514TIP3   OH225498   7.773   0.724   6.404
 8514TIP3    H125499   7.795   0.740   6.496
 8514TIP3    H225500   7.782   0.809   6.362
 8515TIP3   OH225501   5.695   3.787   1.850
 8515TIP3    H125502   5.701   3.701   1.808
 8515TIP3    H225503   5.785   3.820   1.850
 8516TIP3   OH225504   0.122   1.415   2.249
 8516TIP3    H125505   0.137   1.489   2.307
 8516TIP3    H225506   0.171   1.436   2.169
 8517TIP3   OH225507   4.833   3.857   2.259
 8517TIP3    H125508   4.785   3.910   2.323
 8517TIP3    H225509   4.902   3.915   2.227
 8518TIP3   OH225510   6.941   5.625   0.672
 8518TIP3    H125511   6.949   5.670   0.756
 8518TIP3    H225512   6.909   5.692   0.612
 8519TIP3   OH225513   3.553   2.463   6.078
 8519TIP3    H125514   3.478   2.404   6.091
 8519TIP3    H225515   3.591   2.435   5.994
 8520TIP3   OH225516   1.032   1.056   2.362
 8520TIP3    H125517   1.037   1.079   2.269
 8520TIP3    H225518   1.017   0.962   2.362
 8521TIP3   OH225519   5.854   5.272   4.011
 8521TIP3    H125520   5.759   5.271   4.004
 8521TIP3    H225521   5.871   5.316   4.095
 8522TIP3   OH225522   0.003   6.831   0.006
 8522TIP3    H125523  -0.053   6.803   0.078
 8522TIP3    H225524   0.080   6.775   0.012
 8523TIP3   OH225525   0.424   6.791   1.655
 8523TIP3    H125526   0.340   6.803   1.610
 8523TIP3    H225527   0.431   6.696   1.667
 8524TIP3   OH225528   0.958   1.388   0.564
 8524TIP3    H125529   0.938   1.338   0.643
 8524TIP3    H225530   1.050   1.412   0.574
 8525TIP3   OH225531   2.117   4.563   6.558
 8525TIP3    H125532   2.076   4.483   6.526
 8525TIP3    H225533   2.211   4.550   6.544
 8526TIP3   OH225534   5.653   2.747   6.277
 8526TIP3    H125535   5.563   2.765   6.306
 8526TIP3    H225536   5.644   2.670   6.220
 8527TIP3   OH225537   7.850   0.900   3.671
 8527TIP3    H125538   7.801   0.828   3.632
 8527TIP3    H225539   7.866   0.960   3.598
 8528TIP3   OH225540   7.675   2.570   0.732
 8528TIP3    H125541   7.722   2.502   0.683
 8528TIP3    H225542   7.744   2.615   0.781
 8529TIP3   OH225543   3.514   4.732   1.973
 8529TIP3    H125544   3.435   4.714   1.921
 8529TIP3    H225545   3.520   4.658   2.033
 8530TIP3   OH225546   7.267   5.047   4.284
 8530TIP3    H125547   7.218   5.050   4.202
 8530TIP3    H225548   7.206   5.078   4.350
 8531TIP3   OH225549   7.153   5.746   5.001
 8531TIP3    H125550   7.201   5.810   4.949
 8531TIP3    H225551   7.218   5.679   5.023
 8532TIP3   OH225552   6.590   2.825   4.474
 8532TIP3    H125553   6.682   2.849   4.490
 8532TIP3    H225554   6.553   2.903   4.433
 8533TIP3   OH225555   7.007   6.706   3.325
 8533TIP3    H125556   7.004   6.616   3.293
 8533TIP3    H225557   6.916   6.728   3.345
 8534TIP3   OH225558   1.183   2.393   1.339
 8534TIP3    H125559   1.211   2.468   1.392
 8534TIP3    H225560   1.120   2.429   1.277
 8535TIP3   OH225561   1.827   2.276   2.658
 8535TIP3    H125562   1.771   2.199   2.648
 8535TIP3    H225563   1.893   2.267   2.590
 8536TIP3   OH225564   6.038   4.635   1.701
 8536TIP3    H125565   6.098   4.594   1.639
 8536TIP3    H225566   6.092   4.653   1.778
 8537TIP3   OH225567   7.439   1.327   5.079
 8537TIP3    H125568   7.428   1.375   5.161
 8537TIP3    H225569   7.497   1.382   5.027
 8538TIP3   OH225570   6.363   7.318   4.544
 8538TIP3    H125571   6.278   7.286   4.576
 8538TIP3    H225572   6.341   7.366   4.464
 8539TIP3   OH225573   5.186   2.227   1.589
 8539TIP3    H125574   5.235   2.160   1.542
 8539TIP3    H225575   5.125   2.262   1.524
 8540TIP3   OH225576   5.937   5.212   2.549
 8540TIP3    H125577   6.012   5.228   2.606
 8540TIP3    H225578   5.903   5.299   2.529
 8541TIP3   OH225579   5.675   2.160   4.669
 8541TIP3    H125580   5.719   2.076   4.655
 8541TIP3    H225581   5.742   2.216   4.708
 8542TIP3   OH225582   7.893   2.535   5.712
 8542TIP3    H125583   7.856   2.475   5.647
 8542TIP3    H225584   7.900   2.482   5.792
 8543TIP3   OH225585   2.755   5.392   4.952
 8543TIP3    H125586   2.682   5.431   4.999
 8543TIP3    H225587   2.833   5.426   4.996
 8544TIP3   OH225588   5.227   3.005   0.273
 8544TIP3    H125589   5.156   3.062   0.244
 8544TIP3    H225590   5.210   2.991   0.366
 8545TIP3   OH225591   2.431   4.533   3.836
 8545TIP3    H125592   2.524   4.516   3.826
 8545TIP3    H225593   2.410   4.593   3.765
 8546TIP3   OH225594   7.269   6.371   6.168
 8546TIP3    H125595   7.206   6.422   6.219
 8546TIP3    H225596   7.341   6.353   6.230
 8547TIP3   OH225597   7.033   3.522   0.418
 8547TIP3    H125598   7.016   3.590   0.353
 8547TIP3    H225599   6.998   3.558   0.500
 8548TIP3   OH225600   1.396   2.865   6.759
 8548TIP3    H125601   1.467   2.913   6.716
 8548TIP3    H225602   1.430   2.776   6.769
 8549TIP3   OH225603   1.456   4.800   6.412
 8549TIP3    H125604   1.390   4.870   6.411
 8549TIP3    H225605   1.534   4.842   6.450
 8550TIP3   OH225606   7.630   3.721   1.652
 8550TIP3    H125607   7.723   3.699   1.657
 8550TIP3    H225608   7.588   3.658   1.710
 8551TIP3   OH225609   5.541   7.555   6.053
 8551TIP3    H125610   5.528   7.525   6.143
 8551TIP3    H225611   5.636   7.560   6.043
 8552TIP3   OH225612   3.061   7.085   6.422
 8552TIP3    H125613   3.146   7.122   6.444
 8552TIP3    H225614   3.053   7.097   6.327
 8553TIP3   OH225615   3.476   4.544   5.211
 8553TIP3    H125616   3.516   4.564   5.296
 8553TIP3    H225617   3.484   4.625   5.161
 8554TIP3   OH225618   1.408   1.612   3.071
 8554TIP3    H125619   1.425   1.681   3.136
 8554TIP3    H225620   1.363   1.656   3.000
 8555TIP3   OH225621   1.415   6.157   1.660
 8555TIP3    H125622   1.328   6.194   1.643
 8555TIP3    H225623   1.453   6.146   1.572
 8556TIP3   OH225624   5.482   1.893   1.249
 8556TIP3    H125625   5.490   1.970   1.193
 8556TIP3    H225626   5.440   1.828   1.194
 8557TIP3   OH225627   7.147   5.374   0.271
 8557TIP3    H125628   7.076   5.334   0.220
 8557TIP3    H225629   7.102   5.415   0.345
 8558TIP3   OH225630   7.180   0.134   3.810
 8558TIP3    H125631   7.147   0.216   3.774
 8558TIP3    H225632   7.267   0.125   3.773
 8559TIP3   OH225633   0.713   7.005   6.779
 8559TIP3    H125634   0.787   6.988   6.721
 8559TIP3    H225635   0.638   7.009   6.720
 8560TIP3   OH225636   1.097   1.213   6.050
 8560TIP3    H125637   1.126   1.123   6.044
 8560TIP3    H225638   1.148   1.260   5.985
 8561TIP3   OH225639   6.161   5.566   6.017
 8561TIP3    H125640   6.087   5.513   5.989
 8561TIP3    H225641   6.231   5.503   6.032
 8562TIP3   OH225642   5.747   5.716   5.723
 8562TIP3    H125643   5.749   5.630   5.681
 8562TIP3    H225644   5.769   5.699   5.814
 8563TIP3   OH225645   2.401   5.680   1.764
 8563TIP3    H125646   2.384   5.707   1.854
 8563TIP3    H225647   2.464   5.609   1.772
 8564TIP3   OH225648   1.049   0.336   2.871
 8564TIP3    H125649   1.020   0.422   2.901
 8564TIP3    H225650   0.975   0.304   2.818
 8565TIP3   OH225651   8.121   6.653   1.805
 8565TIP3    H125652   8.143   6.626   1.715
 8565TIP3    H225653   8.203   6.685   1.841
 8566TIP3   OH225654   5.134   5.106   5.525
 8566TIP3    H125655   5.072   5.169   5.561
 8566TIP3    H225656   5.125   5.029   5.580
 8567TIP3   OH225657   4.038   6.660   3.461
 8567TIP3    H125658   4.007   6.694   3.377
 8567TIP3    H225659   4.011   6.569   3.462
 8568TIP3   OH225660   3.453   2.369   1.771
 8568TIP3    H125661   3.480   2.416   1.692
 8568TIP3    H225662   3.368   2.406   1.794
 8569TIP3   OH225663   5.441   0.952   2.527
 8569TIP3    H125664   5.423   0.983   2.615
 8569TIP3    H225665   5.357   0.960   2.481
 8570TIP3   OH225666   8.078   4.671   4.889
 8570TIP3    H125667   8.169   4.644   4.893
 8570TIP3    H225668   8.032   4.612   4.948
 8571TIP3   OH225669   1.583   3.587   1.850
 8571TIP3    H125670   1.520   3.572   1.779
 8571TIP3    H225671   1.645   3.650   1.814
 8572TIP3   OH225672   5.961   2.735   5.438
 8572TIP3    H125673   5.888   2.789   5.469
 8572TIP3    H225674   5.985   2.773   5.354
 8573TIP3   OH225675   7.449   2.572   4.931
 8573TIP3    H125676   7.396   2.648   4.906
 8573TIP3    H225677   7.538   2.608   4.944
 8574TIP3   OH225678   3.435   6.597   1.344
 8574TIP3    H125679   3.459   6.672   1.398
 8574TIP3    H225680   3.342   6.585   1.359
 8575TIP3   OH225681   1.507   2.683   1.269
 8575TIP3    H125682   1.586   2.663   1.320
 8575TIP3    H225683   1.504   2.615   1.201
 8576TIP3   OH225684   8.171   6.088   3.694
 8576TIP3    H125685   8.193   6.041   3.774
 8576TIP3    H225686   8.184   6.023   3.624
 8577TIP3   OH225687   4.356   0.369   1.186
 8577TIP3    H125688   4.288   0.402   1.128
 8577TIP3    H225689   4.378   0.283   1.150
 8578TIP3   OH225690   8.171   0.603   2.725
 8578TIP3    H125691   8.092   0.649   2.751
 8578TIP3    H225692   8.155   0.576   2.634
 8579TIP3   OH225693   6.152   0.268   2.672
 8579TIP3    H125694   6.209   0.284   2.747
 8579TIP3    H225695   6.205   0.292   2.596
 8580TIP3   OH225696   2.096   1.895   2.382
 8580TIP3    H125697   2.025   1.888   2.446
 8580TIP3    H225698   2.115   1.805   2.356
 8581TIP3   OH225699   1.778   2.047   3.075
 8581TIP3    H125700   1.800   2.029   2.984
 8581TIP3    H225701   1.818   2.132   3.094
 8582TIP3   OH225702   1.216   1.941   3.803
 8582TIP3    H125703   1.227   2.036   3.809
 8582TIP3    H225704   1.123   1.927   3.818
 8583TIP3   OH225705   2.801   1.414   5.397
 8583TIP3    H125706   2.862   1.344   5.420
 8583TIP3    H225707   2.853   1.475   5.345
 8584TIP3   OH225708   2.518   5.328   0.631
 8584TIP3    H125709   2.572   5.267   0.680
 8584TIP3    H225710   2.465   5.272   0.574
 8585TIP3   OH225711   1.649   4.126   1.895
 8585TIP3    H125712   1.561   4.159   1.879
 8585TIP3    H225713   1.636   4.049   1.951
 8586TIP3   OH225714   3.573   4.051   1.204
 8586TIP3    H125715   3.640   4.116   1.183
 8586TIP3    H225716   3.492   4.102   1.212
 8587TIP3   OH225717   2.210   6.643   3.256
 8587TIP3    H125718   2.241   6.576   3.195
 8587TIP3    H225719   2.250   6.724   3.224
 8588TIP3   OH225720   4.674   7.593   5.895
 8588TIP3    H125721   4.668   7.573   5.989
 8588TIP3    H225722   4.583   7.608   5.869
 8589TIP3   OH225723   5.708   4.193   4.487
 8589TIP3    H125724   5.723   4.181   4.581
 8589TIP3    H225725   5.696   4.104   4.453
 8590TIP3   OH225726   3.387   3.376   0.169
 8590TIP3    H125727   3.322   3.421   0.115
 8590TIP3    H225728   3.464   3.369   0.112
 8591TIP3   OH225729   2.911   7.500   5.809
 8591TIP3    H125730   2.942   7.522   5.721
 8591TIP3    H225731   2.958   7.560   5.866
 8592TIP3   OH225732   7.669   0.360   0.024
 8592TIP3    H125733   7.636   0.449   0.035
 8592TIP3    H225734   7.674   0.325   0.113
 8593TIP3   OH225735   2.480   3.392   4.224
 8593TIP3    H125736   2.518   3.334   4.290
 8593TIP3    H225737   2.534   3.471   4.229
 8594TIP3   OH225738   0.843   5.671   0.936
 8594TIP3    H125739   0.782   5.617   0.987
 8594TIP3    H225740   0.844   5.631   0.849
 8595TIP3   OH225741   3.614   6.072   1.935
 8595TIP3    H125742   3.620   6.115   2.021
 8595TIP3    H225743   3.666   5.992   1.945
 8596TIP3   OH225744   7.198   0.885   4.641
 8596TIP3    H125745   7.132   0.952   4.658
 8596TIP3    H225746   7.199   0.833   4.721
 8597TIP3   OH225747   4.097   1.462   5.198
 8597TIP3    H125748   4.107   1.557   5.190
 8597TIP3    H225749   4.040   1.438   5.126
 8598TIP3   OH225750   5.727   5.377   3.457
 8598TIP3    H125751   5.649   5.329   3.486
 8598TIP3    H225752   5.799   5.314   3.469
 8599TIP3   OH225753   1.569   4.573   5.294
 8599TIP3    H125754   1.561   4.580   5.389
 8599TIP3    H225755   1.661   4.595   5.276
 8600TIP3   OH225756   5.866   5.416   3.750
 8600TIP3    H125757   5.955   5.388   3.731
 8600TIP3    H225758   5.834   5.353   3.814
 8601TIP3   OH225759   2.935   2.775   3.875
 8601TIP3    H125760   2.882   2.730   3.941
 8601TIP3    H225761   2.877   2.841   3.837
 8602TIP3   OH225762   1.538   1.234   2.707
 8602TIP3    H125763   1.537   1.301   2.775
 8602TIP3    H225764   1.504   1.155   2.749
 8603TIP3   OH225765   6.085   1.144   0.048
 8603TIP3    H125766   6.087   1.141  -0.048
 8603TIP3    H225767   6.166   1.102   0.075
 8604TIP3   OH225768   6.065   6.380   1.521
 8604TIP3    H125769   6.005   6.440   1.477
 8604TIP3    H225770   6.008   6.312   1.558
 8605TIP3   OH225771   6.338   1.971   4.461
 8605TIP3    H125772   6.372   2.053   4.425
 8605TIP3    H225773   6.378   1.902   4.408
 8606TIP3   OH225774   1.174   5.042   4.224
 8606TIP3    H125775   1.213   5.023   4.139
 8606TIP3    H225776   1.228   4.993   4.286
 8607TIP3   OH225777   5.896   1.392   2.461
 8607TIP3    H125778   5.839   1.333   2.412
 8607TIP3    H225779   5.967   1.413   2.400
 8608TIP3   OH225780   4.050   7.442   6.514
 8608TIP3    H125781   4.121   7.409   6.569
 8608TIP3    H225782   4.022   7.365   6.464
 8609TIP3   OH225783   4.207   6.139   1.465
 8609TIP3    H125784   4.289   6.091   1.454
 8609TIP3    H225785   4.185   6.128   1.558
 8610TIP3   OH225786   0.529   5.142   5.324
 8610TIP3    H125787   0.611   5.093   5.326
 8610TIP3    H225788   0.532   5.191   5.242
 8611TIP3   OH225789   1.645   7.829   4.574
 8611TIP3    H125790   1.697   7.767   4.523
 8611TIP3    H225791   1.700   7.907   4.582
 8612TIP3   OH225792   5.212   5.292   5.879
 8612TIP3    H125793   5.187   5.249   5.961
 8612TIP3    H225794   5.202   5.386   5.896
 8613TIP3   OH225795   6.789   2.181   6.794
 8613TIP3    H125796   6.749   2.253   6.745
 8613TIP3    H225797   6.883   2.196   6.787
 8614TIP3   OH225798   1.293   6.970   3.287
 8614TIP3    H125799   1.291   7.003   3.376
 8614TIP3    H225800   1.342   6.888   3.292
 8615TIP3   OH225801   2.776   7.833   2.724
 8615TIP3    H125802   2.854   7.855   2.673
 8615TIP3    H225803   2.808   7.777   2.794
 8616TIP3   OH225804   2.481   1.847   4.564
 8616TIP3    H125805   2.506   1.850   4.471
 8616TIP3    H225806   2.496   1.936   4.595
 8617TIP3   OH225807   2.514   0.407   0.210
 8617TIP3    H125808   2.430   0.412   0.166
 8617TIP3    H225809   2.512   0.323   0.256
 8618TIP3   OH225810   4.987   0.275   6.613
 8618TIP3    H125811   4.946   0.217   6.677
 8618TIP3    H225812   5.045   0.331   6.665
 8619TIP3   OH225813   2.614   0.121   5.883
 8619TIP3    H125814   2.644   0.078   5.802
 8619TIP3    H225815   2.614   0.052   5.948
 8620TIP3   OH225816   7.091   1.112   3.450
 8620TIP3    H125817   7.185   1.116   3.434
 8620TIP3    H225818   7.062   1.032   3.406
 8621TIP3   OH225819   2.690   1.374   1.024
 8621TIP3    H125820   2.628   1.326   0.970
 8621TIP3    H225821   2.640   1.450   1.055
 8622TIP3   OH225822   0.484   5.305   5.762
 8622TIP3    H125823   0.477   5.249   5.684
 8622TIP3    H225824   0.469   5.394   5.729
 8623TIP3   OH225825   4.206   3.731   4.914
 8623TIP3    H125826   4.126   3.709   4.865
 8623TIP3    H225827   4.214   3.661   4.979
 8624TIP3   OH225828   4.735   6.521   5.516
 8624TIP3    H125829   4.714   6.482   5.432
 8624TIP3    H225830   4.651   6.551   5.551
 8625TIP3   OH225831   2.597   1.775   6.605
 8625TIP3    H125832   2.610   1.870   6.604
 8625TIP3    H225833   2.512   1.763   6.647
 8626TIP3   OH225834   0.979   3.040   5.411
 8626TIP3    H125835   1.041   3.098   5.454
 8626TIP3    H225836   1.031   2.963   5.386
 8627TIP3   OH225837   6.267   3.046   6.427
 8627TIP3    H125838   6.251   3.095   6.507
 8627TIP3    H225839   6.243   2.956   6.447
 8628TIP3   OH225840   1.388   4.189   1.887
 8628TIP3    H125841   1.330   4.123   1.925
 8628TIP3    H225842   1.371   4.184   1.793
 8629TIP3   OH225843   0.501   6.644   4.645
 8629TIP3    H125844   0.591   6.616   4.664
 8629TIP3    H225845   0.451   6.562   4.646
 8630TIP3   OH225846   6.454   6.070   4.656
 8630TIP3    H125847   6.479   6.157   4.627
 8630TIP3    H225848   6.359   6.068   4.648
 8631TIP3   OH225849   2.051   5.304   3.395
 8631TIP3    H125850   2.064   5.399   3.398
 8631TIP3    H225851   2.108   5.270   3.463
 8632TIP3   OH225852   5.337   7.542   0.676
 8632TIP3    H125853   5.362   7.600   0.748
 8632TIP3    H225854   5.303   7.463   0.719
 8633TIP3   OH225855   4.681   5.264   5.068
 8633TIP3    H125856   4.610   5.327   5.058
 8633TIP3    H225857   4.723   5.261   4.982
 8634TIP3   OH225858   0.796   5.507   5.989
 8634TIP3    H125859   0.881   5.546   6.010
 8634TIP3    H225860   0.740   5.533   6.062
 8635TIP3   OH225861   0.163   6.518   6.765
 8635TIP3    H125862   0.098   6.457   6.798
 8635TIP3    H225863   0.195   6.479   6.684
 8636TIP3   OH225864   4.099   2.997   4.201
 8636TIP3    H125865   4.146   3.080   4.198
 8636TIP3    H225866   4.167   2.931   4.199
 8637TIP3   OH225867   7.399   7.783   5.360
 8637TIP3    H125868   7.392   7.722   5.433
 8637TIP3    H225869   7.350   7.860   5.388
 8638TIP3   OH225870   5.332   7.093   0.769
 8638TIP3    H125871   5.274   7.166   0.790
 8638TIP3    H225872   5.354   7.106   0.677
 8639TIP3   OH225873   3.307   6.664   2.228
 8639TIP3    H125874   3.215   6.675   2.200
 8639TIP3    H225875   3.308   6.580   2.273
 8640TIP3   OH225876   2.531   4.722   5.848
 8640TIP3    H125877   2.442   4.716   5.812
 8640TIP3    H225878   2.588   4.715   5.771
 8641TIP3   OH225879   3.100   3.932   2.089
 8641TIP3    H125880   3.165   3.999   2.110
 8641TIP3    H225881   3.039   3.934   2.162
 8642TIP3   OH225882   1.694   1.805   3.093
 8642TIP3    H125883   1.732   1.893   3.092
 8642TIP3    H225884   1.632   1.806   3.165
 8643TIP3   OH225885   2.461   1.682   5.915
 8643TIP3    H125886   2.417   1.640   5.841
 8643TIP3    H225887   2.406   1.758   5.936
 8644TIP3   OH225888   0.469   3.099   0.662
 8644TIP3    H125889   0.545   3.058   0.703
 8644TIP3    H225890   0.466   3.187   0.698
 8645TIP3   OH225891   5.068   1.762   4.645
 8645TIP3    H125892   5.093   1.699   4.713
 8645TIP3    H225893   5.062   1.846   4.692
 8646TIP3   OH225894   7.207   6.843   6.599
 8646TIP3    H125895   7.115   6.861   6.616
 8646TIP3    H225896   7.236   6.914   6.543
 8647TIP3   OH225897   6.694   1.017   0.722
 8647TIP3    H125898   6.682   1.039   0.630
 8647TIP3    H225899   6.687   1.101   0.767
 8648TIP3   OH225900   0.853   7.479   5.295
 8648TIP3    H125901   0.827   7.431   5.374
 8648TIP3    H225902   0.881   7.565   5.327
 8649TIP3   OH225903   4.255   0.139   3.610
 8649TIP3    H125904   4.304   0.071   3.656
 8649TIP3    H225905   4.191   0.091   3.557
 8650TIP3   OH225906   1.867   0.783   1.166
 8650TIP3    H125907   1.835   0.781   1.256
 8650TIP3    H225908   1.928   0.858   1.164
 8651TIP3   OH225909   2.978   6.457   4.071
 8651TIP3    H125910   3.065   6.496   4.081
 8651TIP3    H225911   2.922   6.506   4.130
 8652TIP3   OH225912   2.514   7.706   0.058
 8652TIP3    H125913   2.557   7.791   0.062
 8652TIP3    H225914   2.423   7.726   0.036
 8653TIP3   OH225915   0.594   0.419   5.949
 8653TIP3    H125916   0.570   0.435   6.040
 8653TIP3    H225917   0.512   0.393   5.907
 8654TIP3   OH225918   2.333   1.237   5.884
 8654TIP3    H125919   2.364   1.287   5.960
 8654TIP3    H225920   2.238   1.239   5.891
 8655TIP3   OH225921   5.011   5.087   5.891
 8655TIP3    H125922   4.967   5.012   5.851
 8655TIP3    H225923   4.941   5.144   5.921
 8656TIP3   OH225924   5.404   4.751   6.545
 8656TIP3    H125925   5.320   4.717   6.576
 8656TIP3    H225926   5.468   4.714   6.606
 8657TIP3   OH225927   2.404   0.143   5.193
 8657TIP3    H125928   2.423   0.159   5.100
 8657TIP3    H225929   2.313   0.112   5.194
 8658TIP3   OH225930   5.128   2.242   2.436
 8658TIP3    H125931   5.057   2.278   2.384
 8658TIP3    H225932   5.201   2.231   2.375
 8659TIP3   OH225933   4.818   5.379   3.246
 8659TIP3    H125934   4.852   5.420   3.166
 8659TIP3    H225935   4.821   5.285   3.227
 8660TIP3   OH225936   3.171   6.176   3.522
 8660TIP3    H125937   3.164   6.269   3.503
 8660TIP3    H225938   3.120   6.134   3.453
 8661TIP3   OH225939   7.582   2.741   2.156
 8661TIP3    H125940   7.610   2.826   2.188
 8661TIP3    H225941   7.487   2.740   2.170
 8662TIP3   OH225942   5.290   6.557   6.794
 8662TIP3    H125943   5.237   6.637   6.794
 8662TIP3    H225944   5.251   6.503   6.725
 8663TIP3   OH225945   2.327   0.275   4.098
 8663TIP3    H125946   2.253   0.214   4.107
 8663TIP3    H225947   2.346   0.303   4.188
 8664TIP3   OH225948   7.136   0.016   2.583
 8664TIP3    H125949   7.114  -0.041   2.657
 8664TIP3    H225950   7.052   0.034   2.541
 8665TIP3   OH225951   4.552   4.854   2.477
 8665TIP3    H125952   4.621   4.808   2.430
 8665TIP3    H225953   4.497   4.891   2.409
 8666TIP3   OH225954   2.713   5.013   1.689
 8666TIP3    H125955   2.787   4.953   1.700
 8666TIP3    H225956   2.745   5.097   1.720
 8667TIP3   OH225957   0.166   4.380   5.572
 8667TIP3    H125958   0.210   4.296   5.586
 8667TIP3    H225959   0.143   4.380   5.479
 8668TIP3   OH225960   7.466   3.166   4.717
 8668TIP3    H125961   7.491   3.161   4.625
 8668TIP3    H225962   7.479   3.077   4.750
 8669TIP3   OH225963   6.904   6.288   5.853
 8669TIP3    H125964   6.935   6.360   5.799
 8669TIP3    H225965   6.938   6.307   5.940
 8670TIP3   OH225966   1.951   2.687   2.432
 8670TIP3    H125967   2.024   2.626   2.439
 8670TIP3    H225968   1.890   2.659   2.500
 8671TIP3   OH225969   0.593   5.945   6.285
 8671TIP3    H125970   0.680   5.959   6.249
 8671TIP3    H225971   0.533   5.966   6.212
 8672TIP3   OH225972   1.111   5.028   0.961
 8672TIP3    H125973   1.058   4.960   0.920
 8672TIP3    H225974   1.056   5.061   1.032
 8673TIP3   OH225975   5.485   4.868   5.546
 8673TIP3    H125976   5.464   4.949   5.499
 8673TIP3    H225977   5.558   4.891   5.604
 8674TIP3   OH225978   6.961   7.755   2.332
 8674TIP3    H125979   6.866   7.743   2.333
 8674TIP3    H225980   6.973   7.849   2.325
 8675TIP3   OH225981   5.514   5.793   1.206
 8675TIP3    H125982   5.463   5.849   1.266
 8675TIP3    H225983   5.597   5.779   1.252
 8676TIP3   OH225984   5.637   4.123   3.476
 8676TIP3    H125985   5.549   4.098   3.449
 8676TIP3    H225986   5.672   4.045   3.520
 8677TIP3   OH225987   1.191   1.836   1.634
 8677TIP3    H125988   1.190   1.853   1.540
 8677TIP3    H225989   1.150   1.913   1.673
 8678TIP3   OH225990   3.833   4.368   2.149
 8678TIP3    H125991   3.834   4.419   2.230
 8678TIP3    H225992   3.780   4.419   2.088
 8679TIP3   OH225993   5.026   0.420   1.394
 8679TIP3    H125994   5.033   0.461   1.307
 8679TIP3    H225995   5.097   0.356   1.396
 8680TIP3   OH225996   8.170   6.205   5.787
 8680TIP3    H125997   8.178   6.291   5.747
 8680TIP3    H225998   8.115   6.219   5.864
 8681TIP3   OH225999   4.979   3.328   1.103
 8681TIP3    H126000   4.900   3.383   1.104
 8681TIP3    H226001   5.046   3.382   1.062
 8682TIP3   OH226002   5.042   7.584   0.893
 8682TIP3    H126003   4.975   7.525   0.927
 8682TIP3    H226004   5.024   7.667   0.937
 8683TIP3   OH226005   2.464   2.923   1.741
 8683TIP3    H126006   2.399   2.992   1.753
 8683TIP3    H226007   2.421   2.859   1.684
 8684TIP3   OH226008   6.282   5.798   0.391
 8684TIP3    H126009   6.218   5.732   0.417
 8684TIP3    H226010   6.266   5.871   0.451
 8685TIP3   OH226011   1.232   4.999   6.341
 8685TIP3    H126012   1.198   4.912   6.317
 8685TIP3    H226013   1.226   5.050   6.260
 8686TIP3   OH226014   6.425   1.489   5.773
 8686TIP3    H126015   6.454   1.424   5.708
 8686TIP3    H226016   6.460   1.457   5.856
 8687TIP3   OH226017   4.170   5.048   5.397
 8687TIP3    H126018   4.125   4.972   5.359
 8687TIP3    H226019   4.258   5.017   5.417
 8688TIP3   OH226020   0.277   6.860   1.203
 8688TIP3    H126021   0.327   6.788   1.241
 8688TIP3    H226022   0.267   6.923   1.274
 8689TIP3   OH226023   6.206   3.845   4.288
 8689TIP3    H126024   6.277   3.807   4.338
 8689TIP3    H226025   6.130   3.791   4.308
 8690TIP3   OH226026   1.719   2.009   3.826
 8690TIP3    H126027   1.800   1.976   3.788
 8690TIP3    H226028   1.723   2.104   3.812
 8691TIP3   OH226029   5.116   3.560   6.115
 8691TIP3    H126030   5.142   3.592   6.201
 8691TIP3    H226031   5.030   3.520   6.128
 8692TIP3   OH226032   1.550   5.636   2.440
 8692TIP3    H126033   1.515   5.639   2.530
 8692TIP3    H226034   1.617   5.568   2.443
 8693TIP3   OH226035   7.907   4.509   0.711
 8693TIP3    H126036   7.990   4.526   0.757
 8693TIP3    H226037   7.881   4.595   0.678
 8694TIP3   OH226038   7.641   2.511   2.632
 8694TIP3    H126039   7.695   2.588   2.647
 8694TIP3    H226040   7.588   2.533   2.555
 8695TIP3   OH226041   7.614   1.840   4.320
 8695TIP3    H126042   7.634   1.824   4.412
 8695TIP3    H226043   7.687   1.893   4.288
 8696TIP3   OH226044   5.647   5.211   2.497
 8696TIP3    H126045   5.724   5.186   2.547
 8696TIP3    H226046   5.588   5.136   2.504
 8697TIP3   OH226047   2.878   1.225   4.036
 8697TIP3    H126048   2.955   1.245   3.983
 8697TIP3    H226049   2.896   1.266   4.121
 8698TIP3   OH226050   3.243   6.718   5.328
 8698TIP3    H126051   3.233   6.805   5.290
 8698TIP3    H226052   3.160   6.674   5.310
 8699TIP3   OH226053   0.980   1.818   3.829
 8699TIP3    H126054   1.017   1.780   3.749
 8699TIP3    H226055   0.995   1.752   3.896
 8700TIP3   OH226056   3.873   0.197   5.205
 8700TIP3    H126057   3.877   0.156   5.292
 8700TIP3    H226058   3.788   0.170   5.170
 8701TIP3   OH226059   3.381   3.202   5.709
 8701TIP3    H126060   3.354   3.174   5.797
 8701TIP3    H226061   3.450   3.267   5.725
 8702TIP3   OH226062   7.733   5.072   5.354
 8702TIP3    H126063   7.752   5.147   5.298
 8702TIP3    H226064   7.736   4.996   5.295
 8703TIP3   OH226065   6.658   5.893   1.829
 8703TIP3    H126066   6.676   5.975   1.784
 8703TIP3    H226067   6.700   5.903   1.915
 8704TIP3   OH226068   6.413   6.350   0.742
 8704TIP3    H126069   6.345   6.330   0.806
 8704TIP3    H226070   6.495   6.350   0.792
 8705TIP3   OH226071   4.150   7.248   5.382
 8705TIP3    H126072   4.119   7.339   5.379
 8705TIP3    H226073   4.242   7.255   5.408
 8706TIP3   OH226074   4.536   1.182   4.886
 8706TIP3    H126075   4.524   1.148   4.798
 8706TIP3    H226076   4.465   1.245   4.898
 8707TIP3   OH226077   6.631   2.707   3.048
 8707TIP3    H126078   6.621   2.640   2.980
 8707TIP3    H226079   6.548   2.704   3.096
 8708TIP3   OH226080   7.233   7.238   5.992
 8708TIP3    H126081   7.326   7.224   6.008
 8708TIP3    H226082   7.193   7.233   6.079
 8709TIP3   OH226083   3.139   2.551   0.677
 8709TIP3    H126084   3.226   2.525   0.708
 8709TIP3    H226085   3.151   2.639   0.642
 8710TIP3   OH226086   3.597   4.699   1.716
 8710TIP3    H126087   3.549   4.778   1.691
 8710TIP3    H226088   3.618   4.711   1.808
 8711TIP3   OH226089   8.134   7.403   5.257
 8711TIP3    H126090   8.161   7.321   5.217
 8711TIP3    H226091   8.169   7.471   5.200
 8712TIP3   OH226092   1.731   4.031   6.700
 8712TIP3    H126093   1.819   4.003   6.725
 8712TIP3    H226094   1.699   3.961   6.644
 8713TIP3   OH226095   0.096   4.785   2.193
 8713TIP3    H126096   0.143   4.866   2.212
 8713TIP3    H226097   0.081   4.745   2.278
 8714TIP3   OH226098   3.919   3.904   4.424
 8714TIP3    H126099   3.994   3.928   4.370
 8714TIP3    H226100   3.877   3.987   4.446
 8715TIP3   OH226101   6.948   3.628   5.016
 8715TIP3    H126102   7.039   3.602   5.032
 8715TIP3    H226103   6.911   3.555   4.965
 8716TIP3   OH226104   3.809   4.227   3.215
 8716TIP3    H126105   3.802   4.155   3.152
 8716TIP3    H226106   3.779   4.304   3.166
 8717TIP3   OH226107   4.048   3.045   5.035
 8717TIP3    H126108   3.957   3.063   5.012
 8717TIP3    H226109   4.042   2.980   5.106
 8718TIP3   OH226110   5.340   1.010   5.945
 8718TIP3    H126111   5.296   1.023   6.030
 8718TIP3    H226112   5.334   0.916   5.929
 8719TIP3   OH226113   0.939   7.505   1.678
 8719TIP3    H126114   1.010   7.563   1.651
 8719TIP3    H226115   0.944   7.502   1.773
 8720TIP3   OH226116   4.136   5.649   5.041
 8720TIP3    H126117   4.217   5.611   5.006
 8720TIP3    H226118   4.138   5.627   5.135
 8721TIP3   OH226119   4.309   3.694   1.539
 8721TIP3    H126120   4.246   3.730   1.477
 8721TIP3    H226121   4.340   3.770   1.588
 8722TIP3   OH226122   2.333   3.309   6.723
 8722TIP3    H126123   2.307   3.218   6.709
 8722TIP3    H226124   2.294   3.332   6.807
 8723TIP3   OH226125   6.416   0.290   1.121
 8723TIP3    H126126   6.338   0.284   1.067
 8723TIP3    H226127   6.486   0.252   1.067
 8724TIP3   OH226128   0.208   4.030   5.463
 8724TIP3    H126129   0.224   3.936   5.469
 8724TIP3    H226130   0.187   4.057   5.552
 8725TIP3   OH226131   4.094   7.172   2.340
 8725TIP3    H126132   4.021   7.127   2.381
 8725TIP3    H226133   4.128   7.110   2.276
 8726TIP3   OH226134   7.710   2.472   3.574
 8726TIP3    H126135   7.695   2.470   3.479
 8726TIP3    H226136   7.714   2.565   3.595
 8727TIP3   OH226137   6.215   5.160  -0.011
 8727TIP3    H126138   6.239   5.085   0.044
 8727TIP3    H226139   6.164   5.217   0.047
 8728TIP3   OH226140   1.304   7.409   4.010
 8728TIP3    H126141   1.243   7.340   4.037
 8728TIP3    H226142   1.252   7.464   3.951
 8729TIP3   OH226143   3.262   1.594   1.793
 8729TIP3    H126144   3.282   1.679   1.832
 8729TIP3    H226145   3.336   1.539   1.816
 8730TIP3   OH226146   2.467   4.448   2.576
 8730TIP3    H126147   2.421   4.365   2.584
 8730TIP3    H226148   2.449   4.477   2.487
 8731TIP3   OH226149   7.406   5.710   4.386
 8731TIP3    H126150   7.330   5.768   4.377
 8731TIP3    H226151   7.479   5.768   4.408
 8732TIP3   OH226152   4.364   5.142   0.636
 8732TIP3    H126153   4.442   5.152   0.581
 8732TIP3    H226154   4.305   5.212   0.607
 8733TIP3   OH226155   5.216   5.298   5.006
 8733TIP3    H126156   5.305   5.269   4.987
 8733TIP3    H226157   5.187   5.342   4.925
 8734TIP3   OH226158   7.426   7.732   4.773
 8734TIP3    H126159   7.369   7.694   4.706
 8734TIP3    H226160   7.478   7.658   4.805
 8735TIP3   OH226161   4.439   5.395   5.986
 8735TIP3    H126162   4.487   5.444   5.920
 8735TIP3    H226163   4.391   5.461   6.035
 8736TIP3   OH226164   8.211   4.519   1.578
 8736TIP3    H126165   8.303   4.497   1.565
 8736TIP3    H226166   8.199   4.520   1.673
 8737TIP3   OH226167   2.085   4.422   5.809
 8737TIP3    H126168   2.145   4.378   5.870
 8737TIP3    H226169   2.080   4.512   5.840
 8738TIP3   OH226170   6.811   3.495   6.503
 8738TIP3    H126171   6.827   3.543   6.584
 8738TIP3    H226172   6.863   3.542   6.437
 8739TIP3   OH226173   1.408   0.504   4.774
 8739TIP3    H126174   1.494   0.546   4.779
 8739TIP3    H226175   1.410   0.458   4.690
 8740TIP3   OH226176   4.672   6.519   2.492
 8740TIP3    H126177   4.670   6.541   2.399
 8740TIP3    H226178   4.679   6.424   2.495
 8741TIP3   OH226179   6.732   3.033   1.605
 8741TIP3    H126180   6.771   3.043   1.518
 8741TIP3    H226181   6.791   2.972   1.651
 8742TIP3   OH226182   5.769   0.882   2.288
 8742TIP3    H126183   5.748   0.860   2.379
 8742TIP3    H226184   5.772   0.797   2.243
 8743TIP3   OH226185   5.867   2.131   2.337
 8743TIP3    H126186   5.846   2.084   2.418
 8743TIP3    H226187   5.813   2.089   2.270
 8744TIP3   OH226188   8.258   1.041   3.936
 8744TIP3    H126189   8.306   1.108   3.888
 8744TIP3    H226190   8.203   0.999   3.871
 8745TIP3   OH226191   8.064   3.613   0.207
 8745TIP3    H126192   8.127   3.621   0.135
 8745TIP3    H226193   8.033   3.522   0.202
 8746TIP3   OH226194   4.013   6.285   5.923
 8746TIP3    H126195   4.064   6.354   5.881
 8746TIP3    H226196   3.982   6.230   5.851
 8747TIP3   OH226197   4.995   1.412   2.338
 8747TIP3    H126198   5.081   1.425   2.299
 8747TIP3    H226199   4.946   1.492   2.316
 8748TIP3   OH226200   8.195   7.609   6.497
 8748TIP3    H126201   8.186   7.697   6.534
 8748TIP3    H226202   8.172   7.550   6.569
 8749TIP3   OH226203   2.938   1.767   5.012
 8749TIP3    H126204   2.970   1.849   5.052
 8749TIP3    H226205   3.008   1.704   5.029
 8750TIP3   OH226206   7.065   3.273   4.275
 8750TIP3    H126207   7.123   3.224   4.217
 8750TIP3    H226208   7.120   3.344   4.309
 8751TIP3   OH226209   2.659   1.191   5.221
 8751TIP3    H126210   2.749   1.190   5.253
 8751TIP3    H226211   2.610   1.142   5.287
 8752TIP3   OH226212   1.692   3.834   0.720
 8752TIP3    H126213   1.683   3.911   0.665
 8752TIP3    H226214   1.782   3.804   0.706
 8753TIP3   OH226215   5.573   2.035   4.096
 8753TIP3    H126216   5.524   2.118   4.097
 8753TIP3    H226217   5.509   1.970   4.068
 8754TIP3   OH226218   1.275   5.810   2.340
 8754TIP3    H126219   1.291   5.891   2.291
 8754TIP3    H226220   1.262   5.839   2.431
 8755TIP3   OH226221   2.004   6.180   1.151
 8755TIP3    H126222   1.911   6.200   1.160
 8755TIP3    H226223   2.019   6.174   1.057
 8756TIP3   OH226224   1.764   0.453   2.703
 8756TIP3    H126225   1.737   0.475   2.792
 8756TIP3    H226226   1.740   0.529   2.650
 8757TIP3   OH226227   2.103   3.464   6.571
 8757TIP3    H126228   2.158   3.524   6.622
 8757TIP3    H226229   2.165   3.405   6.528
 8758TIP3   OH226230   4.876   1.642   2.216
 8758TIP3    H126231   4.828   1.695   2.280
 8758TIP3    H226232   4.821   1.642   2.138
 8759TIP3   OH226233   7.209   6.981   0.755
 8759TIP3    H126234   7.135   6.982   0.817
 8759TIP3    H226235   7.255   7.063   0.772
 8760TIP3   OH226236   3.022   5.500   3.420
 8760TIP3    H126237   3.101   5.447   3.433
 8760TIP3    H226238   2.983   5.465   3.340
 8761TIP3   OH226239   3.940   6.133   3.430
 8761TIP3    H126240   3.924   6.136   3.336
 8761TIP3    H226241   3.904   6.049   3.458
 8762TIP3   OH226242   0.670   0.504   6.765
 8762TIP3    H126243   0.759   0.477   6.785
 8762TIP3    H226244   0.674   0.600   6.761
 8763TIP3   OH226245   4.082   1.677   0.593
 8763TIP3    H126246   3.999   1.694   0.638
 8763TIP3    H226247   4.106   1.762   0.555
 8764TIP3   OH226248   2.020   6.557   3.930
 8764TIP3    H126249   2.085   6.627   3.925
 8764TIP3    H226250   2.040   6.510   4.011
 8765TIP3   OH226251   2.754   7.005   1.754
 8765TIP3    H126252   2.659   6.997   1.739
 8765TIP3    H226253   2.790   6.923   1.722
 8766TIP3   OH226254   8.191   4.165   3.923
 8766TIP3    H126255   8.098   4.145   3.933
 8766TIP3    H226256   8.236   4.105   3.983
 8767TIP3   OH226257   5.810   6.805   3.951
 8767TIP3    H126258   5.794   6.711   3.956
 8767TIP3    H226259   5.905   6.814   3.945
 8768TIP3   OH226260   0.422   3.389   3.545
 8768TIP3    H126261   0.413   3.302   3.585
 8768TIP3    H226262   0.483   3.376   3.472
 8769TIP3   OH226263   2.438   3.869   1.821
 8769TIP3    H126264   2.380   3.939   1.791
 8769TIP3    H226265   2.525   3.909   1.820
 8770TIP3   OH226266   0.477   5.529   3.183
 8770TIP3    H126267   0.455   5.619   3.159
 8770TIP3    H226268   0.559   5.511   3.136
 8771TIP3   OH226269   4.128   1.076   2.904
 8771TIP3    H126270   4.168   1.002   2.951
 8771TIP3    H226271   4.201   1.136   2.888
 8772TIP3   OH226272   4.728   1.079   4.479
 8772TIP3    H126273   4.802   1.030   4.513
 8772TIP3    H226274   4.754   1.105   4.390
 8773TIP3   OH226275   3.345   0.914   3.865
 8773TIP3    H126276   3.382   0.889   3.780
 8773TIP3    H226277   3.347   0.833   3.917
 8774TIP3   OH226278   0.026   5.248   5.663
 8774TIP3    H126279  -0.051   5.201   5.632
 8774TIP3    H226280   0.100   5.192   5.640
 8775TIP3   OH226281   6.266   7.096   5.960
 8775TIP3    H126282   6.254   7.189   5.980
 8775TIP3    H226283   6.253   7.052   6.044
 8776TIP3   OH226284   5.500   6.082   5.911
 8776TIP3    H126285   5.448   6.150   5.954
 8776TIP3    H226286   5.449   6.002   5.922
 8777TIP3   OH226287   3.855   2.377   0.460
 8777TIP3    H126288   3.881   2.416   0.376
 8777TIP3    H226289   3.895   2.290   0.460
 8778TIP3   OH226290   0.606   7.608   5.198
 8778TIP3    H126291   0.525   7.568   5.229
 8778TIP3    H226292   0.673   7.542   5.215
 8779TIP3   OH226293   4.157   1.005   4.611
 8779TIP3    H126294   4.142   1.099   4.626
 8779TIP3    H226295   4.098   0.961   4.672
 8780TIP3   OH226296   1.674   7.562   5.853
 8780TIP3    H126297   1.633   7.648   5.841
 8780TIP3    H226298   1.600   7.501   5.857
 8781TIP3   OH226299   0.562   1.122   4.713
 8781TIP3    H126300   0.524   1.050   4.662
 8781TIP3    H226301   0.491   1.185   4.722
 8782TIP3   OH226302   0.951   5.585   4.212
 8782TIP3    H126303   0.933   5.679   4.214
 8782TIP3    H226304   0.957   5.564   4.119
 8783TIP3   OH226305   4.967   5.617   0.321
 8783TIP3    H126306   5.004   5.704   0.333
 8783TIP3    H226307   4.875   5.632   0.302
 8784TIP3   OH226308   5.354   7.415   1.627
 8784TIP3    H126309   5.394   7.330   1.643
 8784TIP3    H226310   5.308   7.405   1.544
 8785TIP3   OH226311   7.783   7.572   5.849
 8785TIP3    H126312   7.810   7.649   5.900
 8785TIP3    H226313   7.787   7.602   5.758
 8786TIP3   OH226314   0.304   2.273   3.788
 8786TIP3    H126315   0.226   2.293   3.736
 8786TIP3    H226316   0.331   2.186   3.757
 8787TIP3   OH226317   6.422   2.608   3.590
 8787TIP3    H126318   6.458   2.604   3.678
 8787TIP3    H226319   6.416   2.517   3.562
 8788TIP3   OH226320   8.307   1.047   3.108
 8788TIP3    H126321   8.267   0.980   3.053
 8788TIP3    H226322   8.233   1.093   3.147
 8789TIP3   OH226323   4.156   2.219   2.088
 8789TIP3    H126324   4.251   2.234   2.082
 8789TIP3    H226325   4.133   2.245   2.177
 8790TIP3   OH226326   5.284   6.857   5.293
 8790TIP3    H126327   5.190   6.838   5.296
 8790TIP3    H226328   5.308   6.843   5.201
 8791TIP3   OH226329   4.510   3.620   6.035
 8791TIP3    H126330   4.427   3.589   5.997
 8791TIP3    H226331   4.568   3.544   6.032
 8792TIP3   OH226332   0.180   4.980   2.383
 8792TIP3    H126333   0.235   5.058   2.386
 8792TIP3    H226334   0.144   4.972   2.471
 8793TIP3   OH226335   1.245   6.384   1.819
 8793TIP3    H126336   1.302   6.326   1.769
 8793TIP3    H226337   1.174   6.407   1.759
 8794TIP3   OH226338   8.058   0.426   1.342
 8794TIP3    H126339   8.063   0.343   1.389
 8794TIP3    H226340   8.125   0.481   1.383
 8795TIP3   OH226341   6.995   6.258   5.319
 8795TIP3    H126342   7.028   6.190   5.260
 8795TIP3    H226343   7.026   6.340   5.280
 8796TIP3   OH226344   4.835   1.947   1.837
 8796TIP3    H126345   4.916   1.896   1.832
 8796TIP3    H226346   4.862   2.032   1.873
 8797TIP3   OH226347   4.430   4.214   0.017
 8797TIP3    H126348   4.408   4.214   0.110
 8797TIP3    H226349   4.394   4.296  -0.016
 8798TIP3   OH226350   8.168   5.450   6.561
 8798TIP3    H126351   8.121   5.529   6.533
 8798TIP3    H226352   8.113   5.413   6.630
 8799TIP3   OH226353   7.385   2.173   0.851
 8799TIP3    H126354   7.397   2.267   0.857
 8799TIP3    H226355   7.340   2.160   0.768
 8800TIP3   OH226356   0.762   0.108   4.182
 8800TIP3    H126357   0.778   0.194   4.144
 8800TIP3    H226358   0.678   0.117   4.228
 8801TIP3   OH226359   4.618   0.009   6.465
 8801TIP3    H126360   4.597   0.085   6.519
 8801TIP3    H226361   4.711  -0.006   6.480
 8802TIP3   OH226362   2.881   2.130   5.424
 8802TIP3    H126363   2.922   2.216   5.436
 8802TIP3    H226364   2.915   2.078   5.496
 8803TIP3   OH226365   5.799   0.985   5.255
 8803TIP3    H126366   5.776   1.078   5.264
 8803TIP3    H226367   5.755   0.943   5.329
 8804TIP3   OH226368   6.566   0.932   0.231
 8804TIP3    H126369   6.565   0.844   0.268
 8804TIP3    H226370   6.485   0.972   0.262
 8805TIP3   OH226371   6.213   6.134   4.492
 8805TIP3    H126372   6.292   6.181   4.469
 8805TIP3    H226373   6.142   6.197   4.481
 8806TIP3   OH226374   3.200   2.041   1.842
 8806TIP3    H126375   3.144   1.966   1.819
 8806TIP3    H226376   3.207   2.091   1.761
 8807TIP3   OH226377   5.828   3.849   6.319
 8807TIP3    H126378   5.809   3.862   6.226
 8807TIP3    H226379   5.923   3.860   6.325
 8808TIP3   OH226380   0.907   6.548   3.308
 8808TIP3    H126381   0.972   6.478   3.313
 8808TIP3    H226382   0.954   6.626   3.336
 8809TIP3   OH226383   0.333   3.876   1.988
 8809TIP3    H126384   0.349   3.935   2.062
 8809TIP3    H226385   0.315   3.791   2.029
 8810TIP3   OH226386   1.711   5.632   3.299
 8810TIP3    H126387   1.718   5.727   3.292
 8810TIP3    H226388   1.710   5.601   3.209
 8811TIP3   OH226389   6.489   4.610   0.572
 8811TIP3    H126390   6.510   4.524   0.610
 8811TIP3    H226391   6.572   4.657   0.573
 8812TIP3   OH226392   4.319   6.268   3.785
 8812TIP3    H126393   4.403   6.311   3.800
 8812TIP3    H226394   4.292   6.296   3.698
 8813TIP3   OH226395   4.567   5.112   6.711
 8813TIP3    H126396   4.608   5.135   6.628
 8813TIP3    H226397   4.482   5.076   6.687
 8814TIP3   OH226398   6.417   7.196   1.321
 8814TIP3    H126399   6.416   7.247   1.240
 8814TIP3    H226400   6.405   7.260   1.391
 8815TIP3   OH226401   1.807   5.012   0.598
 8815TIP3    H126402   1.730   4.956   0.585
 8815TIP3    H226403   1.794   5.085   0.537
 8816TIP3   OH226404   3.726   3.010   2.497
 8816TIP3    H126405   3.769   2.966   2.570
 8816TIP3    H226406   3.770   2.976   2.419
 8817TIP3   OH226407   6.310   3.644   0.042
 8817TIP3    H126408   6.242   3.614  -0.018
 8817TIP3    H226409   6.300   3.589   0.119
 8818TIP3   OH226410   0.681   2.440   4.178
 8818TIP3    H126411   0.698   2.520   4.127
 8818TIP3    H226412   0.720   2.370   4.125
 8819TIP3   OH226413   2.449   1.796   2.063
 8819TIP3    H126414   2.483   1.780   2.151
 8819TIP3    H226415   2.396   1.718   2.044
 8820TIP3   OH226416   1.989   7.184   2.650
 8820TIP3    H126417   1.929   7.243   2.603
 8820TIP3    H226418   1.935   7.147   2.720
 8821TIP3   OH226419   7.651   0.534   5.029
 8821TIP3    H126420   7.704   0.606   4.995
 8821TIP3    H226421   7.706   0.456   5.016
 8822TIP3   OH226422   4.725   6.220   5.784
 8822TIP3    H126423   4.787   6.279   5.827
 8822TIP3    H226424   4.674   6.183   5.856
 8823TIP3   OH226425   1.890   1.419   0.557
 8823TIP3    H126426   1.874   1.428   0.651
 8823TIP3    H226427   1.941   1.339   0.549
 8824TIP3   OH226428   5.448   0.210   4.274
 8824TIP3    H126429   5.425   0.146   4.341
 8824TIP3    H226430   5.541   0.197   4.258
 8825TIP3   OH226431   1.353   5.916   0.412
 8825TIP3    H126432   1.387   6.000   0.442
 8825TIP3    H226433   1.428   5.856   0.417
 8826TIP3   OH226434   8.301   4.523   4.897
 8826TIP3    H126435   8.283   4.439   4.940
 8826TIP3    H226436   8.329   4.498   4.809
 8827TIP3   OH226437   8.078   2.223   2.458
 8827TIP3    H126438   7.992   2.251   2.427
 8827TIP3    H226439   8.139   2.251   2.389
 8828TIP3   OH226440   6.156   6.164   5.718
 8828TIP3    H126441   6.156   6.137   5.810
 8828TIP3    H226442   6.178   6.257   5.720
 8829TIP3   OH226443   7.995   4.590   3.575
 8829TIP3    H126444   7.945   4.526   3.526
 8829TIP3    H226445   7.934   4.623   3.641
 8830TIP3   OH226446   1.956   2.669   5.768
 8830TIP3    H126447   1.868   2.687   5.734
 8830TIP3    H226448   2.006   2.748   5.745
 8831TIP3   OH226449   8.195   2.213   3.380
 8831TIP3    H126450   8.278   2.239   3.340
 8831TIP3    H226451   8.159   2.294   3.415
 8832TIP3   OH226452   6.949   1.398   0.569
 8832TIP3    H126453   7.001   1.348   0.506
 8832TIP3    H226454   6.950   1.345   0.649
 8833TIP3   OH226455   1.601   3.781   1.408
 8833TIP3    H126456   1.589   3.755   1.317
 8833TIP3    H226457   1.555   3.715   1.459
 8834TIP3   OH226458   1.521   3.239   2.471
 8834TIP3    H126459   1.617   3.233   2.475
 8834TIP3    H226460   1.502   3.332   2.482
 8835TIP3   OH226461   7.970   3.642   3.289
 8835TIP3    H126462   7.947   3.559   3.247
 8835TIP3    H226463   7.938   3.709   3.228
 8836TIP3   OH226464   7.909   3.578   4.508
 8836TIP3    H126465   7.950   3.592   4.422
 8836TIP3    H226466   7.935   3.490   4.533
 8837TIP3   OH226467   7.337   5.631   1.938
 8837TIP3    H126468   7.272   5.605   1.872
 8837TIP3    H226469   7.287   5.638   2.019
 8838TIP3   OH226470   0.252   7.292   2.761
 8838TIP3    H126471   0.157   7.280   2.758
 8838TIP3    H226472   0.266   7.355   2.833
 8839TIP3   OH226473   1.188   7.081   1.235
 8839TIP3    H126474   1.234   7.003   1.267
 8839TIP3    H226475   1.113   7.046   1.187
 8840TIP3   OH226476   4.294   3.512   2.806
 8840TIP3    H126477   4.301   3.594   2.756
 8840TIP3    H226478   4.380   3.502   2.847
 8841TIP3   OH226479   4.653   5.712   4.062
 8841TIP3    H126480   4.565   5.727   4.025
 8841TIP3    H226481   4.650   5.754   4.148
 8842TIP3   OH226482   7.172   5.653   6.067
 8842TIP3    H126483   7.256   5.667   6.111
 8842TIP3    H226484   7.117   5.610   6.133
 8843TIP3   OH226485   4.970   0.657   3.150
 8843TIP3    H126486   4.931   0.733   3.107
 8843TIP3    H226487   5.063   0.661   3.125
 8844TIP3   OH226488   2.651   7.717   2.328
 8844TIP3    H126489   2.652   7.660   2.405
 8844TIP3    H226490   2.653   7.656   2.254
 8845TIP3   OH226491   1.022   1.006   3.179
 8845TIP3    H126492   1.038   1.101   3.183
 8845TIP3    H226493   0.940   0.994   3.226
 8846TIP3   OH226494   7.478   5.716   2.496
 8846TIP3    H126495   7.551   5.694   2.438
 8846TIP3    H226496   7.514   5.705   2.584
 8847TIP3   OH226497   6.900   4.083   6.650
 8847TIP3    H126498   6.926   4.106   6.739
 8847TIP3    H226499   6.949   4.003   6.631
 8848TIP3   OH226500   4.864   2.056   5.831
 8848TIP3    H126501   4.798   1.988   5.834
 8848TIP3    H226502   4.819   2.135   5.864
 8849TIP3   OH226503   8.225   7.673   1.756
 8849TIP3    H126504   8.139   7.664   1.715
 8849TIP3    H226505   8.206   7.698   1.847
 8850TIP3   OH226506   4.004   6.466   2.324
 8850TIP3    H126507   3.990   6.468   2.418
 8850TIP3    H226508   4.084   6.415   2.313
 8851TIP3   OH226509   0.693   7.065   0.933
 8851TIP3    H126510   0.750   7.141   0.934
 8851TIP3    H226511   0.620   7.091   0.877
 8852TIP3   OH226512   3.361   6.038   0.254
 8852TIP3    H126513   3.365   5.948   0.286
 8852TIP3    H226514   3.406   6.035   0.169
 8853TIP3   OH226515   6.818   5.826   6.107
 8853TIP3    H126516   6.792   5.760   6.043
 8853TIP3    H226517   6.804   5.910   6.063
 8854TIP3   OH226518   0.121   0.145   3.825
 8854TIP3    H126519   0.089   0.211   3.887
 8854TIP3    H226520   0.084   0.172   3.741
 8855TIP3   OH226521   3.430   5.860   6.546
 8855TIP3    H126522   3.497   5.835   6.482
 8855TIP3    H226523   3.447   5.805   6.622
 8856TIP3   OH226524   2.729   0.553   6.091
 8856TIP3    H126525   2.751   0.470   6.048
 8856TIP3    H226526   2.809   0.578   6.137
 8857TIP3   OH226527   8.189   2.652   2.110
 8857TIP3    H126528   8.266   2.607   2.144
 8857TIP3    H226529   8.194   2.639   2.015
 8858TIP3   OH226530   1.836   0.303   0.733
 8858TIP3    H126531   1.794   0.389   0.726
 8858TIP3    H226532   1.763   0.243   0.751
 8859TIP3   OH226533   6.788   5.774   4.176
 8859TIP3    H126534   6.700   5.811   4.163
 8859TIP3    H226535   6.846   5.851   4.178
 8860TIP3   OH226536   7.782   1.969   5.842
 8860TIP3    H126537   7.771   2.056   5.805
 8860TIP3    H226538   7.708   1.919   5.807
 8861TIP3   OH226539   2.930   7.422   4.931
 8861TIP3    H126540   2.915   7.438   4.837
 8861TIP3    H226541   2.848   7.448   4.973
 8862TIP3   OH226542   6.126   7.316   4.361
 8862TIP3    H126543   6.088   7.341   4.445
 8862TIP3    H226544   6.051   7.300   4.305
 8863TIP3   OH226545   3.556   5.490   0.136
 8863TIP3    H126546   3.591   5.487   0.225
 8863TIP3    H226547   3.609   5.428   0.087
 8864TIP3   OH226548   3.636   7.588   3.181
 8864TIP3    H126549   3.698   7.661   3.179
 8864TIP3    H226550   3.599   7.590   3.269
 8865TIP3   OH226551   7.899   5.125   2.028
 8865TIP3    H126552   7.807   5.146   2.011
 8865TIP3    H226553   7.925   5.188   2.096
 8866TIP3   OH226554   4.904   3.790   0.512
 8866TIP3    H126555   4.841   3.836   0.568
 8866TIP3    H226556   4.864   3.791   0.425
 8867TIP3   OH226557   2.438   6.462   3.875
 8867TIP3    H126558   2.460   6.550   3.844
 8867TIP3    H226559   2.520   6.413   3.868
 8868TIP3   OH226560   1.693   2.675   6.098
 8868TIP3    H126561   1.777   2.632   6.083
 8868TIP3    H226562   1.630   2.624   6.048
 8869TIP3   OH226563   0.557   7.092   5.995
 8869TIP3    H126564   0.607   7.148   5.936
 8869TIP3    H226565   0.608   7.090   6.076
 8870TIP3   OH226566   0.103   4.050   4.953
 8870TIP3    H126567   0.163   4.038   5.026
 8870TIP3    H226568   0.020   4.012   4.983
 8871TIP3   OH226569   1.119   1.822   5.830
 8871TIP3    H126570   1.090   1.912   5.819
 8871TIP3    H226571   1.079   1.775   5.757
 8872TIP3   OH226572   7.948   6.723   6.197
 8872TIP3    H126573   7.885   6.794   6.209
 8872TIP3    H226574   7.983   6.737   6.109
 8873TIP3   OH226575   6.312   4.014   0.846
 8873TIP3    H126576   6.345   3.982   0.763
 8873TIP3    H226577   6.389   4.050   0.890
 8874TIP3   OH226578   6.034   6.749   5.963
 8874TIP3    H126579   6.094   6.766   5.890
 8874TIP3    H226580   6.047   6.656   5.983
 8875TIP3   OH226581   0.921   1.032   1.342
 8875TIP3    H126582   0.888   1.088   1.272
 8875TIP3    H226583   0.847   1.025   1.403
 8876TIP3   OH226584   7.137   1.971   5.262
 8876TIP3    H126585   7.071   1.908   5.292
 8876TIP3    H226586   7.192   1.921   5.202
 8877TIP3   OH226587   3.595   1.699   0.180
 8877TIP3    H126588   3.592   1.636   0.253
 8877TIP3    H226589   3.659   1.765   0.208
 8878TIP3   OH226590   6.385   7.562   3.233
 8878TIP3    H126591   6.479   7.570   3.249
 8878TIP3    H226592   6.344   7.603   3.310
 8879TIP3   OH226593   2.597   0.896   4.689
 8879TIP3    H126594   2.597   0.992   4.690
 8879TIP3    H226595   2.630   0.873   4.603
 8880TIP3   OH226596   1.844   5.209   1.666
 8880TIP3    H126597   1.861   5.278   1.730
 8880TIP3    H226598   1.786   5.148   1.712
 8881TIP3   OH226599   2.627   0.760   3.723
 8881TIP3    H126600   2.714   0.793   3.701
 8881TIP3    H226601   2.628   0.668   3.696
 8882TIP3   OH226602   1.369   1.956   5.758
 8882TIP3    H126603   1.308   1.894   5.718
 8882TIP3    H226604   1.328   2.042   5.747
 8883TIP3   OH226605   4.172   3.948   5.965
 8883TIP3    H126606   4.241   3.955   5.899
 8883TIP3    H226607   4.114   4.022   5.947
 8884TIP3   OH226608   1.451   6.317   0.249
 8884TIP3    H126609   1.447   6.265   0.330
 8884TIP3    H226610   1.543   6.313   0.222
 8885TIP3   OH226611   3.449   5.265   0.426
 8885TIP3    H126612   3.400   5.250   0.345
 8885TIP3    H226613   3.414   5.348   0.460
 8886TIP3   OH226614   4.553   7.419   3.689
 8886TIP3    H126615   4.616   7.433   3.618
 8886TIP3    H226616   4.490   7.491   3.680
 8887TIP3   OH226617   6.704   5.413   5.746
 8887TIP3    H126618   6.657   5.398   5.664
 8887TIP3    H226619   6.705   5.327   5.788
 8888TIP3   OH226620   6.007   6.697   2.613
 8888TIP3    H126621   6.059   6.775   2.630
 8888TIP3    H226622   5.950   6.688   2.689
 8889TIP3   OH226623   0.465   0.826   6.188
 8889TIP3    H126624   0.422   0.874   6.117
 8889TIP3    H226625   0.543   0.789   6.148
 8890TIP3   OH226626   0.838   0.511   1.667
 8890TIP3    H126627   0.823   0.501   1.761
 8890TIP3    H226628   0.752   0.496   1.627
 8891TIP3   OH226629   0.780   5.693   6.574
 8891TIP3    H126630   0.799   5.670   6.484
 8891TIP3    H226631   0.846   5.647   6.626
 8892TIP3   OH226632   6.005   0.259   6.254
 8892TIP3    H126633   6.090   0.242   6.297
 8892TIP3    H226634   6.014   0.347   6.219
 8893TIP3   OH226635   1.193   3.664   3.766
 8893TIP3    H126636   1.147   3.747   3.781
 8893TIP3    H226637   1.233   3.643   3.851
 8894TIP3   OH226638   1.926   2.585   5.308
 8894TIP3    H126639   1.885   2.657   5.262
 8894TIP3    H226640   2.012   2.617   5.332
 8895TIP3   OH226641   3.448   0.166   3.865
 8895TIP3    H126642   3.420   0.251   3.832
 8895TIP3    H226643   3.417   0.163   3.955
 8896TIP3   OH226644   5.161   7.375   6.386
 8896TIP3    H126645   5.128   7.343   6.302
 8896TIP3    H226646   5.082   7.393   6.437
 8897TIP3   OH226647   0.379   4.576   6.031
 8897TIP3    H126648   0.397   4.668   6.051
 8897TIP3    H226649   0.290   4.562   6.063
 8898TIP3   OH226650   7.079   6.059   5.144
 8898TIP3    H126651   7.052   6.058   5.053
 8898TIP3    H226652   7.174   6.070   5.141
 8899TIP3   OH226653   5.609   1.042   5.875
 8899TIP3    H126654   5.633   1.134   5.862
 8899TIP3    H226655   5.519   1.045   5.909
 8900TIP3   OH226656   7.443   2.487   0.576
 8900TIP3    H126657   7.528   2.492   0.620
 8900TIP3    H226658   7.390   2.555   0.618
 8901TIP3   OH226659   5.650   6.054   1.656
 8901TIP3    H126660   5.604   6.048   1.572
 8901TIP3    H226661   5.583   6.083   1.718
 8902TIP3   OH226662   0.958   7.012   5.039
 8902TIP3    H126663   0.901   6.956   5.092
 8902TIP3    H226664   0.932   7.101   5.061
 8903TIP3   OH226665   7.152   5.492   0.858
 8903TIP3    H126666   7.103   5.550   0.800
 8903TIP3    H226667   7.086   5.435   0.897
 8904TIP3   OH226668   5.850   7.738   2.913
 8904TIP3    H126669   5.791   7.786   2.971
 8904TIP3    H226670   5.934   7.782   2.923
 8905TIP3   OH226671   5.898   7.504   0.244
 8905TIP3    H126672   5.915   7.552   0.325
 8905TIP3    H226673   5.837   7.560   0.195
 8906TIP3   OH226674   3.420   0.088   6.148
 8906TIP3    H126675   3.439   0.010   6.201
 8906TIP3    H226676   3.382   0.054   6.068
 8907TIP3   OH226677   6.720   0.601   0.935
 8907TIP3    H126678   6.697   0.577   1.025
 8907TIP3    H226679   6.675   0.536   0.881
 8908TIP3   OH226680   4.396   4.874   0.611
 8908TIP3    H126681   4.432   4.882   0.699
 8908TIP3    H226682   4.353   4.958   0.595
 8909TIP3   OH226683   0.075   3.123   4.963
 8909TIP3    H126684   0.086   3.200   5.019
 8909TIP3    H226685   0.150   3.125   4.904
 8910TIP3   OH226686   3.017   6.126   6.010
 8910TIP3    H126687   2.994   6.033   6.011
 8910TIP3    H226688   3.097   6.131   6.063
 8911TIP3   OH226689   5.842   1.848   6.454
 8911TIP3    H126690   5.782   1.800   6.396
 8911TIP3    H226691   5.833   1.939   6.427
 8912TIP3   OH226692   8.070   3.903   1.212
 8912TIP3    H126693   8.008   3.894   1.139
 8912TIP3    H226694   8.095   3.995   1.209
 8913TIP3   OH226695   5.588   5.103   2.802
 8913TIP3    H126696   5.649   5.168   2.766
 8913TIP3    H226697   5.642   5.045   2.854
 8914TIP3   OH226698   8.213   6.344   0.693
 8914TIP3    H126699   8.294   6.307   0.658
 8914TIP3    H226700   8.150   6.334   0.621
 8915TIP3   OH226701   6.375   2.997   5.045
 8915TIP3    H126702   6.306   2.988   5.110
 8915TIP3    H226703   6.455   2.974   5.093
 8916TIP3   OH226704   0.394   3.051   4.291
 8916TIP3    H126705   0.470   2.994   4.275
 8916TIP3    H226706   0.391   3.061   4.386
 8917TIP3   OH226707   0.109   6.117   4.579
 8917TIP3    H126708   0.179   6.162   4.530
 8917TIP3    H226709   0.138   6.119   4.670
 8918TIP3   OH226710   4.874   2.835   3.217
 8918TIP3    H126711   4.946   2.772   3.215
 8918TIP3    H226712   4.823   2.811   3.294
 8919TIP3   OH226713   4.026   0.960   2.570
 8919TIP3    H126714   3.935   0.932   2.556
 8919TIP3    H226715   4.035   0.965   2.665
 8920TIP3   OH226716   3.693   3.427   6.652
 8920TIP3    H126717   3.673   3.393   6.564
 8920TIP3    H226718   3.661   3.359   6.711
 8921TIP3   OH226719   7.345   6.387   1.579
 8921TIP3    H126720   7.416   6.443   1.546
 8921TIP3    H226721   7.388   6.325   1.637
 8922TIP3   OH226722   6.589   7.725   4.929
 8922TIP3    H126723   6.607   7.637   4.961
 8922TIP3    H226724   6.575   7.778   5.007
 8923TIP3   OH226725   2.995   4.233   0.886
 8923TIP3    H126726   2.952   4.298   0.830
 8923TIP3    H226727   3.087   4.237   0.862
 8924TIP3   OH226728   7.533   5.286   5.221
 8924TIP3    H126729   7.508   5.194   5.229
 8924TIP3    H226730   7.614   5.285   5.170
 8925TIP3   OH226731   3.342   4.433   1.018
 8925TIP3    H126732   3.341   4.374   1.093
 8925TIP3    H226733   3.376   4.379   0.946
 8926TIP3   OH226734   2.028   3.678   3.566
 8926TIP3    H126735   2.009   3.750   3.506
 8926TIP3    H226736   2.116   3.697   3.599
 8927TIP3   OH226737   1.220   4.170   4.485
 8927TIP3    H126738   1.253   4.080   4.477
 8927TIP3    H226739   1.256   4.201   4.568
 8928TIP3   OH226740   3.763   6.235   4.113
 8928TIP3    H126741   3.672   6.205   4.105
 8928TIP3    H226742   3.775   6.249   4.207
 8929TIP3   OH226743   4.883   7.419   1.171
 8929TIP3    H126744   4.865   7.406   1.077
 8929TIP3    H226745   4.831   7.495   1.195
 8930TIP3   OH226746   6.494   5.928   6.687
 8930TIP3    H126747   6.540   5.911   6.770
 8930TIP3    H226748   6.562   5.959   6.628
 8931TIP3   OH226749   7.819   2.568   5.383
 8931TIP3    H126750   7.906   2.583   5.421
 8931TIP3    H226751   7.832   2.495   5.322
 8932TIP3   OH226752   4.249   5.895   4.924
 8932TIP3    H126753   4.277   5.920   4.836
 8932TIP3    H226754   4.169   5.845   4.911
 8933TIP3   OH226755   4.382   0.527   0.811
 8933TIP3    H126756   4.339   0.448   0.842
 8933TIP3    H226757   4.419   0.567   0.889
 8934TIP3   OH226758   2.501   5.841   0.203
 8934TIP3    H126759   2.521   5.842   0.297
 8934TIP3    H226760   2.446   5.763   0.192
 8935TIP3   OH226761   7.999   0.911   2.352
 8935TIP3    H126762   8.044   0.875   2.275
 8935TIP3    H226763   7.906   0.904   2.331
 8936TIP3   OH226764   0.871   0.828   6.193
 8936TIP3    H126765   0.828   0.855   6.274
 8936TIP3    H226766   0.964   0.843   6.209
 8937TIP3   OH226767   4.662   3.122   0.665
 8937TIP3    H126768   4.734   3.061   0.647
 8937TIP3    H226769   4.695   3.207   0.635
 8938TIP3   OH226770   3.946   2.924   0.582
 8938TIP3    H126771   4.040   2.940   0.589
 8938TIP3    H226772   3.939   2.845   0.528
 8939TIP3   OH226773   5.811   6.972   2.028
 8939TIP3    H126774   5.751   6.900   2.008
 8939TIP3    H226775   5.895   6.944   1.992
 8940TIP3   OH226776   3.721   0.115   3.880
 8940TIP3    H126777   3.643   0.170   3.868
 8940TIP3    H226778   3.693   0.047   3.942
 8941TIP3   OH226779   6.292   4.165   5.224
 8941TIP3    H126780   6.338   4.127   5.298
 8941TIP3    H226781   6.361   4.197   5.166
 8942TIP3   OH226782   7.817   3.254   6.459
 8942TIP3    H126783   7.749   3.197   6.493
 8942TIP3    H226784   7.849   3.302   6.535
 8943TIP3   OH226785   6.048   7.745   0.288
 8943TIP3    H126786   5.989   7.802   0.239
 8943TIP3    H226787   6.095   7.695   0.221
 8944TIP3   OH226788   7.187   6.922   5.836
 8944TIP3    H126789   7.186   6.953   5.927
 8944TIP3    H226790   7.218   6.997   5.785
 8945TIP3   OH226791   5.022   5.520   2.981
 8945TIP3    H126792   5.067   5.571   2.914
 8945TIP3    H226793   5.089   5.462   3.016
 8946TIP3   OH226794   5.838   7.262   0.666
 8946TIP3    H126795   5.843   7.345   0.713
 8946TIP3    H226796   5.852   7.286   0.574
 8947TIP3   OH226797   5.164   4.945   4.827
 8947TIP3    H126798   5.169   4.852   4.805
 8947TIP3    H226799   5.253   4.978   4.811
 8948TIP3   OH226800   6.722   1.331   2.322
 8948TIP3    H126801   6.714   1.237   2.337
 8948TIP3    H226802   6.811   1.352   2.349
 8949TIP3   OH226803   8.103   4.958   3.676
 8949TIP3    H126804   8.171   4.894   3.655
 8949TIP3    H226805   8.037   4.946   3.609
 8950TIP3   OH226806   0.026   5.764   1.829
 8950TIP3    H126807  -0.051   5.791   1.779
 8950TIP3    H226808   0.036   5.671   1.808
 8951TIP3   OH226809   3.816   4.006   3.058
 8951TIP3    H126810   3.802   3.927   3.109
 8951TIP3    H226811   3.729   4.030   3.026
 8952TIP3   OH226812   0.941   4.454   3.072
 8952TIP3    H126813   0.898   4.401   3.005
 8952TIP3    H226814   0.888   4.443   3.150
 8953TIP3   OH226815   0.875   7.281   1.384
 8953TIP3    H126816   0.797   7.259   1.436
 8953TIP3    H226817   0.930   7.330   1.445
 8954TIP3   OH226818   0.630   0.192   6.671
 8954TIP3    H126819   0.584   0.270   6.704
 8954TIP3    H226820   0.633   0.134   6.747
 8955TIP3   OH226821   0.033   5.774   1.058
 8955TIP3    H126822   0.026   5.717   0.982
 8955TIP3    H226823  -0.036   5.744   1.117
 8956TIP3   OH226824   6.507   3.964   5.511
 8956TIP3    H126825   6.595   3.967   5.474
 8956TIP3    H226826   6.479   4.056   5.513
 8957TIP3   OH226827   1.179   1.810   1.920
 8957TIP3    H126828   1.102   1.866   1.914
 8957TIP3    H226829   1.220   1.816   1.833
 8958TIP3   OH226830   2.434   5.189   5.413
 8958TIP3    H126831   2.526   5.217   5.406
 8958TIP3    H226832   2.388   5.243   5.348
 8959TIP3   OH226833   0.814   1.930   0.843
 8959TIP3    H126834   0.900   1.971   0.849
 8959TIP3    H226835   0.751   2.001   0.854
 8960TIP3   OH226836   6.856   1.546   1.513
 8960TIP3    H126837   6.937   1.557   1.562
 8960TIP3    H226838   6.874   1.474   1.453
 8961TIP3   OH226839   1.878   5.589   6.124
 8961TIP3    H126840   1.805   5.538   6.089
 8961TIP3    H226841   1.945   5.524   6.144
 8962TIP3   OH226842   3.241   4.336   4.878
 8962TIP3    H126843   3.157   4.382   4.880
 8962TIP3    H226844   3.235   4.273   4.950
 8963TIP3   OH226845   2.663   4.985   6.592
 8963TIP3    H126846   2.694   5.004   6.504
 8963TIP3    H226847   2.578   5.028   6.598
 8964TIP3   OH226848   7.832   6.056   0.134
 8964TIP3    H126849   7.753   6.008   0.159
 8964TIP3    H226850   7.893   5.987   0.106
 8965TIP3   OH226851   7.196   6.912   3.240
 8965TIP3    H126852   7.272   6.857   3.262
 8965TIP3    H226853   7.121   6.853   3.243
 8966TIP3   OH226854   5.580   7.230   4.028
 8966TIP3    H126855   5.548   7.151   4.071
 8966TIP3    H226856   5.556   7.301   4.086
 8967TIP3   OH226857   6.215   5.928   6.701
 8967TIP3    H126858   6.311   5.921   6.701
 8967TIP3    H226859   6.197   6.016   6.732
 8968TIP3   OH226860   7.325   5.534   4.166
 8968TIP3    H126861   7.360   5.582   4.241
 8968TIP3    H226862   7.402   5.501   4.120
 8969TIP3   OH226863   7.860   1.806   6.524
 8969TIP3    H126864   7.922   1.775   6.591
 8969TIP3    H226865   7.855   1.734   6.461
 8970TIP3   OH226866   3.165   1.806   6.473
 8970TIP3    H126867   3.146   1.716   6.500
 8970TIP3    H226868   3.212   1.844   6.547
 8971TIP3   OH226869   4.423   1.816   3.848
 8971TIP3    H126870   4.510   1.832   3.813
 8971TIP3    H226871   4.433   1.740   3.905
 8972TIP3   OH226872   1.140   6.005   0.287
 8972TIP3    H126873   1.163   6.048   0.204
 8972TIP3    H226874   1.223   5.974   0.322
 8973TIP3   OH226875   4.925   7.092   3.325
 8973TIP3    H126876   4.991   7.049   3.271
 8973TIP3    H226877   4.845   7.088   3.272
 8974TIP3   OH226878   6.880   4.996   0.040
 8974TIP3    H126879   6.916   5.033   0.121
 8974TIP3    H226880   6.796   4.957   0.066
 8975TIP3   OH226881   6.485   1.371   1.112
 8975TIP3    H126882   6.504   1.461   1.140
 8975TIP3    H226883   6.390   1.364   1.118
 8976TIP3   OH226884   0.844   3.142   4.189
 8976TIP3    H126885   0.882   3.191   4.116
 8976TIP3    H226886   0.885   3.055   4.183
 8977TIP3   OH226887   7.464   4.283   3.939
 8977TIP3    H126888   7.437   4.254   4.026
 8977TIP3    H226889   7.551   4.320   3.952
 8978TIP3   OH226890   3.801   3.093   4.338
 8978TIP3    H126891   3.788   3.185   4.317
 8978TIP3    H226892   3.863   3.093   4.411
 8979TIP3   OH226893   0.441   0.320   0.057
 8979TIP3    H126894   0.419   0.409   0.030
 8979TIP3    H226895   0.532   0.325   0.086
 8980TIP3   OH226896   3.988   2.934   0.887
 8980TIP3    H126897   4.076   2.960   0.915
 8980TIP3    H226898   3.957   3.009   0.836
 8981TIP3   OH226899   4.040   7.798   3.964
 8981TIP3    H126900   4.116   7.779   3.910
 8981TIP3    H226901   4.075   7.812   4.052
 8982TIP3   OH226902   3.880   5.010   4.087
 8982TIP3    H126903   3.969   5.012   4.052
 8982TIP3    H226904   3.889   4.969   4.173
 8983TIP3   OH226905   7.316   7.329   4.760
 8983TIP3    H126906   7.346   7.391   4.693
 8983TIP3    H226907   7.276   7.384   4.827
 8984TIP3   OH226908   5.064   6.017   2.718
 8984TIP3    H126909   5.115   6.033   2.797
 8984TIP3    H226910   5.126   6.028   2.646
 8985TIP3   OH226911   5.902   5.881   2.017
 8985TIP3    H126912   5.809   5.870   1.995
 8985TIP3    H226913   5.939   5.793   2.009
 8986TIP3   OH226914   7.534   4.374   2.587
 8986TIP3    H126915   7.447   4.377   2.546
 8986TIP3    H226916   7.538   4.286   2.626
 8987TIP3   OH226917   7.218   7.587   3.934
 8987TIP3    H126918   7.290   7.650   3.934
 8987TIP3    H226919   7.212   7.558   4.025
 8988TIP3   OH226920   0.908   5.445   1.705
 8988TIP3    H126921   0.818   5.413   1.717
 8988TIP3    H226922   0.958   5.367   1.681
 8989TIP3   OH226923   2.500   1.191   6.539
 8989TIP3    H126924   2.565   1.126   6.567
 8989TIP3    H226925   2.466   1.228   6.621
 8990TIP3   OH226926   4.566   7.211   3.331
 8990TIP3    H126927   4.611   7.143   3.280
 8990TIP3    H226928   4.495   7.164   3.375
 8991TIP3   OH226929   3.328   3.343   0.466
 8991TIP3    H126930   3.393   3.351   0.537
 8991TIP3    H226931   3.379   3.359   0.386
 8992TIP3   OH226932   2.158   3.103   1.964
 8992TIP3    H126933   2.084   3.162   1.978
 8992TIP3    H226934   2.181   3.115   1.872
 8993TIP3   OH226935   4.980   0.527   4.760
 8993TIP3    H126936   5.049   0.557   4.818
 8993TIP3    H226937   4.900   0.564   4.797
 8994TIP3   OH226938   2.138   4.729   1.979
 8994TIP3    H126939   2.136   4.795   2.049
 8994TIP3    H226940   2.093   4.771   1.906
 8995TIP3   OH226941   4.934   3.434   1.869
 8995TIP3    H126942   4.869   3.406   1.804
 8995TIP3    H226943   5.001   3.479   1.818
 8996TIP3   OH226944   5.375   1.171   0.360
 8996TIP3    H126945   5.376   1.142   0.269
 8996TIP3    H226946   5.329   1.100   0.406
 8997TIP3   OH226947   6.368   4.828   2.678
 8997TIP3    H126948   6.428   4.787   2.616
 8997TIP3    H226949   6.403   4.916   2.690
 8998TIP3   OH226950   1.186   0.031   1.285
 8998TIP3    H126951   1.143  -0.053   1.272
 8998TIP3    H226952   1.150   0.064   1.368
 8999TIP3   OH226953   1.942   6.256   5.088
 8999TIP3    H126954   1.859   6.297   5.062
 8999TIP3    H226955   2.008   6.301   5.036
 9000TIP3   OH226956   8.111   0.959   6.220
 9000TIP3    H126957   8.122   0.877   6.172
 9000TIP3    H226958   8.138   1.027   6.157
 9001TIP3   OH226959   5.687   4.184   3.824
 9001TIP3    H126960   5.596   4.211   3.813
 9001TIP3    H226961   5.738   4.264   3.806
 9002TIP3   OH226962   2.266   3.156   1.700
 9002TIP3    H126963   2.308   3.143   1.616
 9002TIP3    H226964   2.203   3.226   1.685
 9003TIP3   OH226965   0.552   4.760   5.501
 9003TIP3    H126966   0.461   4.774   5.526
 9003TIP3    H226967   0.559   4.795   5.412
 9004TIP3   OH226968   3.876   1.130   3.616
 9004TIP3    H126969   3.964   1.120   3.581
 9004TIP3    H226970   3.883   1.107   3.708
 9005TIP3   OH226971   5.953   6.571   1.781
 9005TIP3    H126972   6.011   6.502   1.814
 9005TIP3    H226973   5.995   6.599   1.699
 9006TIP3   OH226974   4.394   2.494   2.384
 9006TIP3    H126975   4.439   2.521   2.464
 9006TIP3    H226976   4.361   2.575   2.346
 9007TIP3   OH226977   5.226   6.041   0.461
 9007TIP3    H126978   5.188   6.035   0.549
 9007TIP3    H226979   5.183   5.972   0.411
 9008TIP3   OH226980   1.841   5.981   3.825
 9008TIP3    H126981   1.908   5.913   3.830
 9008TIP3    H226982   1.769   5.948   3.879
 9009TIP3   OH226983   1.198  -0.004   6.522
 9009TIP3    H126984   1.247   0.078   6.528
 9009TIP3    H226985   1.112   0.016   6.558
 9010TIP3   OH226986   6.401   1.140   0.013
 9010TIP3    H126987   6.471   1.146  -0.051
 9010TIP3    H226988   6.405   1.222   0.061
 9011TIP3   OH226989   3.310   5.653   5.091
 9011TIP3    H126990   3.300   5.681   5.000
 9011TIP3    H226991   3.308   5.734   5.142
 9012TIP3   OH226992   5.581   6.946   1.724
 9012TIP3    H126993   5.664   6.910   1.755
 9012TIP3    H226994   5.603   7.035   1.695
 9013TIP3   OH226995   3.200   2.587   4.812
 9013TIP3    H126996   3.116   2.544   4.827
 9013TIP3    H226997   3.243   2.534   4.744
 9014TIP3   OH226998   0.256   4.768   5.593
 9014TIP3    H126999   0.217   4.688   5.627
 9014TIP3    H227000   0.230   4.770   5.501
 9015TIP3   OH227001   5.738   0.807   5.441
 9015TIP3    H127002   5.735   0.715   5.418
 9015TIP3    H227003   5.696   0.812   5.527
 9016TIP3   OH227004   3.490   3.977   3.941
 9016TIP3    H127005   3.552   4.022   3.998
 9016TIP3    H227006   3.505   4.015   3.854
 9017TIP3   OH227007   0.958   7.818   6.243
 9017TIP3    H127008   0.971   7.857   6.157
 9017TIP3    H227009   1.044   7.822   6.285
 9018TIP3   OH227010   4.938   2.855   5.579
 9018TIP3    H127011   4.878   2.867   5.653
 9018TIP3    H227012   4.941   2.940   5.536
 9019TIP3   OH227013   1.473   0.490   5.665
 9019TIP3    H127014   1.428   0.440   5.596
 9019TIP3    H227015   1.564   0.492   5.638
 9020TIP3   OH227016   0.704   6.645   6.086
 9020TIP3    H127017   0.643   6.647   6.159
 9020TIP3    H227018   0.770   6.711   6.109
 9021TIP3   OH227019   1.553   2.077   2.854
 9021TIP3    H127020   1.563   2.053   2.946
 9021TIP3    H227021   1.553   2.173   2.855
 9022TIP3   OH227022   4.283   0.755   4.257
 9022TIP3    H127023   4.228   0.834   4.251
 9022TIP3    H227024   4.250   0.698   4.188
 9023TIP3   OH227025   3.410   2.598   0.729
 9023TIP3    H127026   3.479   2.651   0.769
 9023TIP3    H227027   3.451   2.514   0.710
 9024TIP3   OH227028   4.697   5.000   4.772
 9024TIP3    H127029   4.788   5.020   4.790
 9024TIP3    H227030   4.649   5.077   4.801
 9025TIP3   OH227031   8.225   3.176   3.612
 9025TIP3    H127032   8.132   3.191   3.595
 9025TIP3    H227033   8.240   3.087   3.582
 9026TIP3   OH227034   3.051   1.543   2.058
 9026TIP3    H127035   2.969   1.517   2.099
 9026TIP3    H227036   3.118   1.492   2.104
 9027TIP3   OH227037   5.794   7.006   2.612
 9027TIP3    H127038   5.720   6.958   2.575
 9027TIP3    H227039   5.869   6.978   2.560
 9028TIP3   OH227040   3.188   2.193   0.908
 9028TIP3    H127041   3.191   2.108   0.863
 9028TIP3    H227042   3.131   2.247   0.854
 9029TIP3   OH227043   5.388   4.773   5.217
 9029TIP3    H127044   5.309   4.826   5.211
 9029TIP3    H227045   5.417   4.762   5.126
 9030TIP3   OH227046   6.433   5.646   5.742
 9030TIP3    H127047   6.339   5.651   5.761
 9030TIP3    H227048   6.439   5.579   5.674
 9031TIP3   OH227049   6.191   4.115   5.644
 9031TIP3    H127050   6.181   4.029   5.605
 9031TIP3    H227051   6.237   4.100   5.726
 9032TIP3   OH227052   4.784   7.576   2.562
 9032TIP3    H127053   4.867   7.534   2.587
 9032TIP3    H227054   4.725   7.504   2.542
 9033TIP3   OH227055   5.451   0.321   6.160
 9033TIP3    H127056   5.516   0.348   6.096
 9033TIP3    H227057   5.395   0.398   6.171
 9034TIP3   OH227058   4.692   3.141   6.292
 9034TIP3    H127059   4.774   3.100   6.319
 9034TIP3    H227060   4.633   3.130   6.367
 9035TIP3   OH227061   4.581   5.101   6.441
 9035TIP3    H127062   4.624   5.115   6.357
 9035TIP3    H227063   4.488   5.099   6.421
 9036TIP3   OH227064   4.520   3.635   3.062
 9036TIP3    H127065   4.440   3.687   3.076
 9036TIP3    H227066   4.559   3.672   2.983
 9037TIP3   OH227067   7.010   0.737   4.435
 9037TIP3    H127068   7.049   0.710   4.352
 9037TIP3    H227069   7.077   0.791   4.477
 9038TIP3   OH227070   2.159   7.806   3.245
 9038TIP3    H127071   2.153   7.898   3.273
 9038TIP3    H227072   2.067   7.778   3.237
 9039TIP3   OH227073   4.397   6.037   1.749
 9039TIP3    H127074   4.337   6.007   1.817
 9039TIP3    H227075   4.372   6.128   1.734
 9040TIP3   OH227076   0.831   4.509  -0.014
 9040TIP3    H127077   0.740   4.503   0.015
 9040TIP3    H227078   0.882   4.483   0.062
 9041TIP3   OH227079   2.580   0.599   3.325
 9041TIP3    H127080   2.647   0.549   3.373
 9041TIP3    H227081   2.527   0.533   3.281
 9042TIP3   OH227082   0.963   7.527   0.105
 9042TIP3    H127083   1.008   7.476   0.172
 9042TIP3    H227084   0.908   7.463   0.059
 9043TIP3   OH227085   2.559   6.312   1.116
 9043TIP3    H127086   2.488   6.252   1.140
 9043TIP3    H227087   2.638   6.258   1.121
 9044TIP3   OH227088   2.541   5.369   1.090
 9044TIP3    H127089   2.466   5.310   1.099
 9044TIP3    H227090   2.512   5.435   1.027
 9045TIP3   OH227091   4.427   4.750   4.416
 9045TIP3    H127092   4.444   4.766   4.509
 9045TIP3    H227093   4.484   4.675   4.394
 9046TIP3   OH227094   3.735   4.375   2.575
 9046TIP3    H127095   3.717   4.341   2.488
 9046TIP3    H227096   3.697   4.463   2.575
 9047TIP3   OH227097   3.072   3.841   4.042
 9047TIP3    H127098   3.134   3.853   3.970
 9047TIP3    H227099   3.123   3.797   4.110
 9048TIP3   OH227100   4.073   5.226   0.446
 9048TIP3    H127101   4.111   5.138   0.441
 9048TIP3    H227102   4.144   5.282   0.476
 9049TIP3   OH227103   6.858   0.113   4.765
 9049TIP3    H127104   6.841   0.019   4.771
 9049TIP3    H227105   6.859   0.131   4.672
 9050TIP3   OH227106   0.943   2.890   4.507
 9050TIP3    H127107   0.921   2.981   4.487
 9050TIP3    H227108   1.035   2.880   4.482
 9051TIP3   OH227109   1.948   2.531   0.654
 9051TIP3    H127110   1.887   2.604   0.642
 9051TIP3    H227111   1.891   2.454   0.665
 9052TIP3   OH227112   6.465   4.305   5.041
 9052TIP3    H127113   6.526   4.379   5.045
 9052TIP3    H227114   6.510   4.240   4.986
 9053TIP3   OH227115   2.492   7.608   3.283
 9053TIP3    H127116   2.416   7.549   3.287
 9053TIP3    H227117   2.513   7.614   3.190
 9054TIP3   OH227118   0.061   7.110   4.108
 9054TIP3    H127119   0.006   7.051   4.160
 9054TIP3    H227120   0.034   7.094   4.018
 9055TIP3   OH227121   7.512   4.585   1.113
 9055TIP3    H127122   7.577   4.545   1.171
 9055TIP3    H227123   7.454   4.513   1.089
 9056TIP3   OH227124   0.083   0.083   3.024
 9056TIP3    H127125   0.103   0.143   3.095
 9056TIP3    H227126   0.048   0.005   3.067
 9057TIP3   OH227127   2.320   1.029   6.802
 9057TIP3    H127128   2.246   1.009   6.744
 9057TIP3    H227129   2.346   1.118   6.776
 9058TIP3   OH227130   6.100   6.776   3.909
 9058TIP3    H127131   6.170   6.751   3.969
 9058TIP3    H227132   6.097   6.706   3.844
 9059TIP3   OH227133   0.647   4.400   6.405
 9059TIP3    H127134   0.562   4.441   6.420
 9059TIP3    H227135   0.679   4.378   6.492
 9060TIP3   OH227136   4.293   4.110   1.021
 9060TIP3    H127137   4.268   4.191   0.976
 9060TIP3    H227138   4.212   4.079   1.061
 9061TIP3   OH227139   4.207   5.760   2.672
 9061TIP3    H127140   4.150   5.825   2.633
 9061TIP3    H227141   4.150   5.709   2.730
 9062TIP3   OH227142   7.090   7.430   2.913
 9062TIP3    H127143   7.162   7.456   2.856
 9062TIP3    H227144   7.064   7.344   2.882
 9063TIP3   OH227145   6.066   1.702   6.564
 9063TIP3    H127146   6.007   1.757   6.512
 9063TIP3    H227147   6.025   1.697   6.650
 9064TIP3   OH227148   5.150   1.823   5.611
 9064TIP3    H127149   5.080   1.844   5.550
 9064TIP3    H227150   5.201   1.755   5.567
 9065TIP3   OH227151   3.915   1.553   5.758
 9065TIP3    H127152   3.930   1.638   5.801
 9065TIP3    H227153   3.940   1.568   5.666
 9066TIP3   OH227154   1.186   5.661   2.133
 9066TIP3    H127155   1.250   5.599   2.099
 9066TIP3    H227156   1.230   5.703   2.207
 9067TIP3   OH227157   2.971   3.125   4.029
 9067TIP3    H127158   3.015   3.040   4.036
 9067TIP3    H227159   2.976   3.148   3.936
 9068TIP3   OH227160   5.762   4.653   6.537
 9068TIP3    H127161   5.704   4.653   6.613
 9068TIP3    H227162   5.719   4.594   6.475
 9069TIP3   OH227163   6.380   2.279   3.521
 9069TIP3    H127164   6.295   2.288   3.479
 9069TIP3    H227165   6.371   2.204   3.579
 9070TIP3   OH227166   2.592   3.673   5.472
 9070TIP3    H127167   2.545   3.596   5.439
 9070TIP3    H227168   2.526   3.723   5.520
 9071TIP3   OH227169   7.304   7.370   5.132
 9071TIP3    H127170   7.240   7.304   5.157
 9071TIP3    H227171   7.265   7.414   5.056
 9072TIP3   OH227172   0.934   5.470   3.665
 9072TIP3    H127173   0.902   5.392   3.618
 9072TIP3    H227174   0.885   5.543   3.626
 9073TIP3   OH227175   0.606   3.909   4.484
 9073TIP3    H127176   0.561   3.974   4.430
 9073TIP3    H227177   0.540   3.843   4.503
 9074TIP3   OH227178   6.202   0.950   0.795
 9074TIP3    H127179   6.152   0.919   0.720
 9074TIP3    H227180   6.258   1.019   0.760
 9075TIP3   OH227181   2.580   3.192   0.277
 9075TIP3    H127182   2.673   3.170   0.281
 9075TIP3    H227183   2.571   3.269   0.333
 9076TIP3   OH227184   6.173   4.147   0.532
 9076TIP3    H127185   6.141   4.061   0.505
 9076TIP3    H227186   6.267   4.143   0.516
 9077TIP3   OH227187   2.622   5.077   2.551
 9077TIP3    H127188   2.681   5.137   2.597
 9077TIP3    H227189   2.592   5.016   2.618
 9078TIP3   OH227190   5.902   5.306   2.031
 9078TIP3    H127191   5.881   5.254   1.953
 9078TIP3    H227192   5.828   5.366   2.040
 9079TIP3   OH227193   0.535   6.803   2.830
 9079TIP3    H127194   0.611   6.832   2.880
 9079TIP3    H227195   0.505   6.881   2.785
 9080TIP3   OH227196   7.600   0.337   6.174
 9080TIP3    H127197   7.563   0.422   6.197
 9080TIP3    H227198   7.689   0.356   6.146
 9081TIP3   OH227199   2.714   5.464   3.507
 9081TIP3    H127200   2.697   5.386   3.561
 9081TIP3    H227201   2.801   5.449   3.471
 9082TIP3   OH227202   5.612   0.142   0.189
 9082TIP3    H127203   5.522   0.110   0.187
 9082TIP3    H227204   5.607   0.224   0.238
 9083TIP3   OH227205   8.283   3.287   4.253
 9083TIP3    H127206   8.240   3.218   4.304
 9083TIP3    H227207   8.370   3.296   4.293
 9084TIP3   OH227208   0.954   1.416   2.576
 9084TIP3    H127209   1.035   1.368   2.590
 9084TIP3    H227210   0.945   1.422   2.481
 9085TIP3   OH227211   3.504   0.950   5.015
 9085TIP3    H127212   3.457   1.009   4.958
 9085TIP3    H227213   3.442   0.879   5.033
 9086TIP3   OH227214   0.501   7.629   4.512
 9086TIP3    H127215   0.452   7.638   4.430
 9086TIP3    H227216   0.464   7.695   4.570
 9087TIP3   OH227217   3.659   7.389   3.545
 9087TIP3    H127218   3.596   7.442   3.497
 9087TIP3    H227219   3.723   7.362   3.480
 9088TIP3   OH227220   6.885   0.254   0.126
 9088TIP3    H127221   6.806   0.228   0.078
 9088TIP3    H227222   6.867   0.229   0.217
 9089TIP3   OH227223   3.278   2.286   6.136
 9089TIP3    H127224   3.313   2.197   6.144
 9089TIP3    H227225   3.190   2.282   6.173
 9090TIP3   OH227226   5.990   4.858   4.915
 9090TIP3    H127227   6.078   4.869   4.951
 9090TIP3    H227228   6.002   4.800   4.840
 9091TIP3   OH227229   4.975   5.500   5.021
 9091TIP3    H127230   4.894   5.549   5.036
 9091TIP3    H227231   5.045   5.560   5.046
 9092TIP3   OH227232   1.628   5.760   5.313
 9092TIP3    H127233   1.559   5.734   5.252
 9092TIP3    H227234   1.705   5.712   5.283
 9093TIP3   OH227235   5.128   4.226   5.888
 9093TIP3    H127236   5.190   4.232   5.961
 9093TIP3    H227237   5.128   4.314   5.850
 9094TIP3   OH227238   2.831   4.172   0.038
 9094TIP3    H127239   2.740   4.199   0.052
 9094TIP3    H227240   2.882   4.251   0.053
 9095TIP3   OH227241   0.425   7.094   3.585
 9095TIP3    H127242   0.397   7.009   3.550
 9095TIP3    H227243   0.520   7.091   3.582
 9096TIP3   OH227244   5.602   1.780   5.786
 9096TIP3    H127245   5.556   1.793   5.703
 9096TIP3    H227246   5.653   1.860   5.797
 9097TIP3   OH227247   2.362   0.458   4.307
 9097TIP3    H127248   2.336   0.542   4.269
 9097TIP3    H227249   2.456   0.466   4.323
 9098TIP3   OH227250   1.230   0.826   1.062
 9098TIP3    H127251   1.282   0.829   1.143
 9098TIP3    H227252   1.180   0.744   1.069
 9099TIP3   OH227253   3.427   2.315   0.452
 9099TIP3    H127254   3.486   2.369   0.505
 9099TIP3    H227255   3.402   2.243   0.509
 9100TIP3   OH227256   7.432   7.729   6.484
 9100TIP3    H127257   7.338   7.745   6.494
 9100TIP3    H227258   7.467   7.730   6.573
 9101TIP3   OH227259   2.828   4.662   0.381
 9101TIP3    H127260   2.819   4.675   0.287
 9101TIP3    H227261   2.921   4.681   0.399
 9102TIP3   OH227262   1.441   5.426   6.172
 9102TIP3    H127263   1.460   5.505   6.121
 9102TIP3    H227264   1.502   5.430   6.245
 9103TIP3   OH227265   5.535   2.206   6.453
 9103TIP3    H127266   5.537   2.180   6.360
 9103TIP3    H227267   5.555   2.299   6.452
 9104TIP3   OH227268   6.164   6.014   0.594
 9104TIP3    H127269   6.182   5.937   0.648
 9104TIP3    H227270   6.166   6.088   0.655
 9105TIP3   OH227271   7.860   1.669   5.753
 9105TIP3    H127272   7.909   1.744   5.788
 9105TIP3    H227273   7.818   1.630   5.830
 9106TIP3   OH227274   3.712   7.527   4.414
 9106TIP3    H127275   3.780   7.578   4.458
 9106TIP3    H227276   3.634   7.539   4.468
 9107TIP3   OH227277   5.863   3.536   2.858
 9107TIP3    H127278   5.923   3.495   2.920
 9107TIP3    H227279   5.789   3.476   2.853
 9108TIP3   OH227280   7.508   0.657   0.747
 9108TIP3    H127281   7.474   0.569   0.727
 9108TIP3    H227282   7.448   0.716   0.703
 9109TIP3   OH227283   7.122   4.045   3.849
 9109TIP3    H127284   7.203   4.003   3.880
 9109TIP3    H227285   7.128   4.135   3.881
 9110TIP3   OH227286   2.979   6.723   2.333
 9110TIP3    H127287   2.972   6.789   2.264
 9110TIP3    H227288   3.029   6.651   2.293
 9111TIP3   OH227289   1.910   3.219   2.031
 9111TIP3    H127290   1.871   3.287   2.087
 9111TIP3    H227291   1.870   3.138   2.061
 9112TIP3   OH227292   5.762   2.037   2.075
 9112TIP3    H127293   5.680   2.083   2.059
 9112TIP3    H227294   5.742   1.945   2.058
 9113TIP3   OH227295   2.754   7.863   1.884
 9113TIP3    H127296   2.784   7.841   1.972
 9113TIP3    H227297   2.733   7.778   1.845
 9114TIP3   OH227298   6.018   7.330   2.941
 9114TIP3    H127299   5.939   7.378   2.917
 9114TIP3    H227300   5.997   7.291   3.026
 9115TIP3   OH227301   8.118   5.868   4.449
 9115TIP3    H127302   8.091   5.778   4.467
 9115TIP3    H227303   8.123   5.909   4.535
 9116TIP3   OH227304   0.605   0.461   1.539
 9116TIP3    H127305   0.559   0.478   1.621
 9116TIP3    H227306   0.536   0.440   1.476
 9117TIP3   OH227307   7.794   1.224   0.555
 9117TIP3    H127308   7.822   1.285   0.487
 9117TIP3    H227309   7.857   1.151   0.549
 9118TIP3   OH227310   3.706   2.349   6.495
 9118TIP3    H127311   3.767   2.385   6.560
 9118TIP3    H227312   3.649   2.291   6.546
 9119TIP3   OH227313   1.383   5.640   4.835
 9119TIP3    H127314   1.290   5.644   4.861
 9119TIP3    H227315   1.384   5.580   4.761
 9120TIP3   OH227316   1.759   4.293   4.882
 9120TIP3    H127317   1.739   4.372   4.831
 9120TIP3    H227318   1.839   4.259   4.843
 9121TIP3   OH227319   2.730   4.491   1.103
 9121TIP3    H127320   2.690   4.492   1.016
 9121TIP3    H227321   2.769   4.404   1.111
 9122TIP3   OH227322   3.252   1.491   4.244
 9122TIP3    H127323   3.301   1.573   4.257
 9122TIP3    H227324   3.320   1.425   4.231
 9123TIP3   OH227325   0.980   2.421   1.571
 9123TIP3    H127326   1.067   2.458   1.558
 9123TIP3    H227327   0.920   2.489   1.541
 9124TIP3   OH227328   2.905   0.108   6.633
 9124TIP3    H127329   2.985   0.070   6.668
 9124TIP3    H227330   2.935   0.169   6.565
 9125TIP3   OH227331   2.646   5.237   4.038
 9125TIP3    H127332   2.718   5.254   4.100
 9125TIP3    H227333   2.677   5.162   3.986
 9126TIP3   OH227334   3.742   0.472   0.937
 9126TIP3    H127335   3.694   0.393   0.962
 9126TIP3    H227336   3.743   0.526   1.016
 9127TIP3   OH227337   4.279   1.191   1.607
 9127TIP3    H127338   4.243   1.196   1.519
 9127TIP3    H227339   4.336   1.114   1.606
 9128TIP3   OH227340   2.898   6.568   1.467
 9128TIP3    H127341   2.889   6.617   1.386
 9128TIP3    H227342   2.889   6.476   1.441
 9129TIP3   OH227343   7.505   5.875   5.792
 9129TIP3    H127344   7.446   5.946   5.765
 9129TIP3    H227345   7.486   5.804   5.731
 9130TIP3   OH227346   1.828   1.402   2.518
 9130TIP3    H127347   1.803   1.485   2.558
 9130TIP3    H227348   1.835   1.341   2.591
 9131TIP3   OH227349   0.301   7.629   3.181
 9131TIP3    H127350   0.332   7.719   3.173
 9131TIP3    H227351   0.310   7.592   3.093
 9132TIP3   OH227352   1.961   0.501   1.214
 9132TIP3    H127353   1.898   0.572   1.197
 9132TIP3    H227354   2.026   0.540   1.272
 9133TIP3   OH227355   4.614   6.380   4.361
 9133TIP3    H127356   4.588   6.421   4.443
 9133TIP3    H227357   4.698   6.420   4.339
 9134TIP3   OH227358   6.931   2.871   4.521
 9134TIP3    H127359   6.895   2.860   4.610
 9134TIP3    H227360   6.880   2.942   4.483
 9135TIP3   OH227361   0.709   7.431   3.885
 9135TIP3    H127362   0.714   7.433   3.981
 9135TIP3    H227363   0.627   7.476   3.864
 9136TIP3   OH227364   0.553   2.148   6.435
 9136TIP3    H127365   0.477   2.200   6.461
 9136TIP3    H227366   0.515   2.071   6.393
 9137TIP3   OH227367   5.022   7.061   6.042
 9137TIP3    H127368   5.091   7.051   6.108
 9137TIP3    H227369   5.005   6.972   6.011
 9138TIP3   OH227370   2.272   0.764   4.715
 9138TIP3    H127371   2.316   0.723   4.641
 9138TIP3    H227372   2.338   0.767   4.784
 9139TIP3   OH227373   0.606   1.938   4.387
 9139TIP3    H127374   0.605   1.848   4.354
 9139TIP3    H227375   0.534   1.981   4.341
 9140TIP3   OH227376   5.680   5.400   5.441
 9140TIP3    H127377   5.746   5.342   5.402
 9140TIP3    H227378   5.663   5.466   5.373
 9141TIP3   OH227379   2.550   7.020   3.032
 9141TIP3    H127380   2.468   7.041   2.986
 9141TIP3    H227381   2.559   7.091   3.096
 9142TIP3   OH227382   8.007   2.910   6.134
 9142TIP3    H127383   7.920   2.922   6.173
 9142TIP3    H227384   8.040   2.830   6.174
 9143TIP3   OH227385   4.755   1.134   6.730
 9143TIP3    H127386   4.755   1.112   6.823
 9143TIP3    H227387   4.841   1.173   6.714
 9144TIP3   OH227388   7.831   2.142   2.972
 9144TIP3    H127389   7.783   2.061   2.956
 9144TIP3    H227390   7.806   2.199   2.898
 9145TIP3   OH227391   0.895   1.921   1.498
 9145TIP3    H127392   0.961   1.894   1.434
 9145TIP3    H227393   0.908   2.016   1.507
 9146TIP3   OH227394   3.905   4.306   6.506
 9146TIP3    H127395   3.942   4.284   6.421
 9146TIP3    H227396   3.917   4.401   6.514
 9147TIP3   OH227397   0.099   7.734   5.860
 9147TIP3    H127398   0.052   7.743   5.778
 9147TIP3    H227399   0.035   7.699   5.922
 9148TIP3   OH227400   1.966   5.651   3.143
 9148TIP3    H127401   1.882   5.614   3.116
 9148TIP3    H227402   1.957   5.745   3.128
 9149TIP3   OH227403   6.147   3.061   1.586
 9149TIP3    H127404   6.238   3.031   1.589
 9149TIP3    H227405   6.118   3.060   1.677
 9150TIP3   OH227406   4.734   3.130   3.618
 9150TIP3    H127407   4.802   3.066   3.639
 9150TIP3    H227408   4.713   3.171   3.703
 9151TIP3   OH227409   1.927   0.548   3.216
 9151TIP3    H127410   1.976   0.613   3.266
 9151TIP3    H227411   1.850   0.530   3.269
 9152TIP3   OH227412   6.307   3.574   0.864
 9152TIP3    H127413   6.293   3.570   0.770
 9152TIP3    H227414   6.337   3.485   0.887
 9153TIP3   OH227415   6.331   1.849   3.186
 9153TIP3    H127416   6.424   1.863   3.164
 9153TIP3    H227417   6.290   1.829   3.102
 9154TIP3   OH227418   4.756   5.099   4.139
 9154TIP3    H127419   4.689   5.134   4.080
 9154TIP3    H227420   4.792   5.175   4.182
 9155TIP3   OH227421   4.002   7.122   4.725
 9155TIP3    H127422   4.054   7.148   4.801
 9155TIP3    H227423   4.059   7.138   4.650
 9156TIP3   OH227424   5.242   4.520   4.067
 9156TIP3    H127425   5.197   4.470   4.135
 9156TIP3    H227426   5.333   4.492   4.073
 9157TIP3   OH227427   7.923   3.522   5.189
 9157TIP3    H127428   7.889   3.463   5.122
 9157TIP3    H227429   7.905   3.477   5.271
 9158TIP3   OH227430   8.222   0.701   4.548
 9158TIP3    H127431   8.244   0.791   4.525
 9158TIP3    H227432   8.127   0.696   4.537
 9159TIP3   OH227433   3.260   5.532   0.823
 9159TIP3    H127434   3.191   5.476   0.858
 9159TIP3    H227435   3.222   5.570   0.743
 9160TIP3   OH227436   7.458   7.429   3.181
 9160TIP3    H127437   7.392   7.360   3.180
 9160TIP3    H227438   7.410   7.510   3.167
 9161TIP3   OH227439   2.793   5.550   1.212
 9161TIP3    H127440   2.736   5.502   1.151
 9161TIP3    H227441   2.840   5.612   1.157
 9162TIP3   OH227442   7.198   5.578   2.165
 9162TIP3    H127443   7.152   5.568   2.248
 9162TIP3    H227444   7.139   5.541   2.099
 9163TIP3   OH227445   5.319   6.845   3.082
 9163TIP3    H127446   5.259   6.875   3.150
 9163TIP3    H227447   5.263   6.802   3.017
 9164TIP3   OH227448   2.265   6.783   4.410
 9164TIP3    H127449   2.258   6.813   4.501
 9164TIP3    H227450   2.345   6.730   4.408
 9165TIP3   OH227451   7.375   1.604   1.308
 9165TIP3    H127452   7.398   1.512   1.320
 9165TIP3    H227453   7.293   1.602   1.260
 9166TIP3   OH227454   3.493   0.674   6.466
 9166TIP3    H127455   3.467   0.764   6.445
 9166TIP3    H227456   3.550   0.648   6.393
 9167TIP3   OH227457   5.125   5.941   3.600
 9167TIP3    H127458   5.050   5.883   3.590
 9167TIP3    H227459   5.087   6.027   3.615
 9168TIP3   OH227460   2.805   1.554   1.876
 9168TIP3    H127461   2.723   1.560   1.828
 9168TIP3    H227462   2.780   1.527   1.964
 9169TIP3   OH227463   2.378   2.723   3.125
 9169TIP3    H127464   2.310   2.723   3.057
 9169TIP3    H227465   2.426   2.642   3.109
 9170TIP3   OH227466   0.741   4.003   2.711
 9170TIP3    H127467   0.712   3.937   2.774
 9170TIP3    H227468   0.660   4.041   2.676
 9171TIP3   OH227469   5.489   2.276   5.970
 9171TIP3    H127470   5.513   2.269   5.878
 9171TIP3    H227471   5.425   2.347   5.973
 9172TIP3   OH227472   4.937   5.144   1.237
 9172TIP3    H127473   5.008   5.124   1.298
 9172TIP3    H227474   4.866   5.085   1.263
 9173TIP3   OH227475   5.202   6.954   5.712
 9173TIP3    H127476   5.293   6.929   5.724
 9173TIP3    H227477   5.193   7.037   5.759
 9174TIP3   OH227478   2.521   2.543   4.024
 9174TIP3    H127479   2.543   2.588   4.106
 9174TIP3    H227480   2.487   2.458   4.052
 9175TIP3   OH227481   3.627   2.522   2.934
 9175TIP3    H127482   3.716   2.552   2.915
 9175TIP3    H227483   3.592   2.495   2.849
 9176TIP3   OH227484   4.267   1.998   2.351
 9176TIP3    H127485   4.265   2.091   2.374
 9176TIP3    H227486   4.181   1.964   2.379
 9177TIP3   OH227487   1.956   0.873   0.481
 9177TIP3    H127488   1.898   0.905   0.412
 9177TIP3    H227489   2.029   0.832   0.434
 9178TIP3   OH227490   6.189   7.752   5.553
 9178TIP3    H127491   6.242   7.722   5.627
 9178TIP3    H227492   6.251   7.792   5.493
 9179TIP3   OH227493   2.262   0.436   3.877
 9179TIP3    H127494   2.259   0.366   3.942
 9179TIP3    H227495   2.308   0.507   3.921
 9180TIP3   OH227496   0.240   5.054   3.625
 9180TIP3    H127497   0.250   4.992   3.698
 9180TIP3    H227498   0.150   5.040   3.595
 9181TIP3   OH227499   4.995   0.677   4.033
 9181TIP3    H127500   5.090   0.680   4.018
 9181TIP3    H227501   4.982   0.728   4.113
 9182TIP3   OH227502   4.786   4.949   5.092
 9182TIP3    H127503   4.875   4.982   5.080
 9182TIP3    H227504   4.729   5.023   5.071
 9183TIP3   OH227505   3.862   3.334   2.974
 9183TIP3    H127506   3.944   3.299   2.939
 9183TIP3    H227507   3.805   3.258   2.983
 9184TIP3   OH227508   6.487   1.418   4.185
 9184TIP3    H127509   6.406   1.376   4.215
 9184TIP3    H227510   6.548   1.345   4.171
 9185TIP3   OH227511   4.168   2.008   1.487
 9185TIP3    H127512   4.230   2.045   1.550
 9185TIP3    H227513   4.089   1.992   1.537
 9186TIP3   OH227514   3.257   7.058   5.521
 9186TIP3    H127515   3.291   6.989   5.578
 9186TIP3    H227516   3.259   7.020   5.433
 9187TIP3   OH227517   5.403   7.782   2.690
 9187TIP3    H127518   5.389   7.747   2.603
 9187TIP3    H227519   5.497   7.804   2.692
 9188TIP3   OH227520   4.687   6.973   3.237
 9188TIP3    H127521   4.635   6.914   3.292
 9188TIP3    H227522   4.661   6.951   3.148
 9189TIP3   OH227523   4.083   7.214   3.440
 9189TIP3    H127524   4.162   7.183   3.395
 9189TIP3    H227525   4.065   7.299   3.399
 9190TIP3   OH227526   3.648   7.024   2.002
 9190TIP3    H127527   3.702   7.023   2.081
 9190TIP3    H227528   3.606   7.110   2.003
 9191TIP3   OH227529   4.821   2.500   2.214
 9191TIP3    H127530   4.835   2.415   2.255
 9191TIP3    H227531   4.883   2.503   2.142
 9192TIP3   OH227532   6.358   7.715   3.029
 9192TIP3    H127533   6.417   7.790   3.038
 9192TIP3    H227534   6.367   7.667   3.111
 9193TIP3   OH227535   3.976   1.928   2.336
 9193TIP3    H127536   3.968   1.924   2.241
 9193TIP3    H227537   3.954   1.840   2.366
 9194TIP3   OH227538   8.049   2.953   1.873
 9194TIP3    H127539   7.975   3.014   1.872
 9194TIP3    H227540   8.079   2.949   1.782
 9195TIP3   OH227541   0.495   4.034   6.188
 9195TIP3    H127542   0.586   4.061   6.197
 9195TIP3    H227543   0.459   4.041   6.277
 9196TIP3   OH227544   1.721   0.469   3.374
 9196TIP3    H127545   1.682   0.514   3.449
 9196TIP3    H227546   1.747   0.383   3.408
 9197TIP3   OH227547   7.084   4.328   3.921
 9197TIP3    H127548   7.046   4.358   3.839
 9197TIP3    H227549   7.036   4.375   3.989
 9198TIP3   OH227550   6.687   2.496   2.015
 9198TIP3    H127551   6.781   2.477   2.009
 9198TIP3    H227552   6.651   2.421   2.063
 9199TIP3   OH227553   0.781   2.225   4.050
 9199TIP3    H127554   0.764   2.137   4.016
 9199TIP3    H227555   0.874   2.224   4.075
 9200TIP3   OH227556   4.716   6.989   4.579
 9200TIP3    H127557   4.723   7.070   4.629
 9200TIP3    H227558   4.760   7.007   4.496
 9201TIP3   OH227559   1.557   2.319   1.044
 9201TIP3    H127560   1.606   2.340   1.124
 9201TIP3    H227561   1.611   2.253   1.000
 9202TIP3   OH227562   3.686   2.294   2.240
 9202TIP3    H127563   3.616   2.230   2.239
 9202TIP3    H227564   3.742   2.270   2.166
 9203TIP3   OH227565   5.811   3.744   4.622
 9203TIP3    H127566   5.806   3.661   4.575
 9203TIP3    H227567   5.735   3.742   4.681
 9204TIP3   OH227568   6.847   2.157   3.772
 9204TIP3    H127569   6.874   2.077   3.727
 9204TIP3    H227570   6.912   2.168   3.842
 9205TIP3   OH227571   5.129   0.484   2.592
 9205TIP3    H127572   5.037   0.491   2.614
 9205TIP3    H227573   5.130   0.465   2.498
 9206TIP3   OH227574   5.229   3.253   5.051
 9206TIP3    H127575   5.137   3.279   5.057
 9206TIP3    H227576   5.254   3.232   5.141
 9207TIP3   OH227577   6.312   7.343   4.090
 9207TIP3    H127578   6.329   7.286   4.165
 9207TIP3    H227579   6.328   7.288   4.014
 9208TIP3   OH227580   3.338   4.166   2.856
 9208TIP3    H127581   3.402   4.235   2.868
 9208TIP3    H227582   3.338   4.149   2.762
 9209TIP3   OH227583   0.204   2.677   6.419
 9209TIP3    H127584   0.119   2.720   6.429
 9209TIP3    H227585   0.191   2.615   6.347
 9210TIP3   OH227586   4.465   0.846   4.436
 9210TIP3    H127587   4.441   0.918   4.494
 9210TIP3    H227588   4.383   0.821   4.393
 9211TIP3   OH227589   3.211   4.773   3.031
 9211TIP3    H127590   3.289   4.727   3.063
 9211TIP3    H227591   3.153   4.776   3.107
 9212TIP3   OH227592   1.531   0.968   1.517
 9212TIP3    H127593   1.589   0.972   1.593
 9212TIP3    H227594   1.508   1.059   1.499
 9213TIP3   OH227595   6.334   0.743   1.351
 9213TIP3    H127596   6.388   0.811   1.390
 9213TIP3    H227597   6.380   0.661   1.371
 9214TIP3   OH227598   5.730   3.807   6.813
 9214TIP3    H127599   5.809   3.795   6.760
 9214TIP3    H227600   5.665   3.750   6.772
 9215TIP3   OH227601   1.314   1.448   1.448
 9215TIP3    H127602   1.356   1.529   1.418
 9215TIP3    H227603   1.295   1.464   1.541
 9216TIP3   OH227604   4.877   4.353   6.561
 9216TIP3    H127605   4.910   4.440   6.540
 9216TIP3    H227606   4.793   4.348   6.517
 9217TIP3   OH227607   8.030   6.779   5.267
 9217TIP3    H127608   8.062   6.724   5.195
 9217TIP3    H227609   7.935   6.783   5.254
 9218TIP3   OH227610   1.088   0.798   2.243
 9218TIP3    H127611   1.142   0.831   2.171
 9218TIP3    H227612   1.095   0.703   2.235
 9219TIP3   OH227613   7.088   5.983   3.312
 9219TIP3    H127614   7.075   5.958   3.403
 9219TIP3    H227615   7.175   5.950   3.290
 9220TIP3   OH227616   3.848   6.200   2.415
 9220TIP3    H127617   3.919   6.170   2.472
 9220TIP3    H227618   3.791   6.251   2.472
 9221TIP3   OH227619   0.636   1.097   5.561
 9221TIP3    H127620   0.698   1.033   5.596
 9221TIP3    H227621   0.662   1.181   5.599
 9222TIP3   OH227622   2.689   1.421   6.775
 9222TIP3    H127623   2.681   1.514   6.751
 9222TIP3    H227624   2.709   1.377   6.692
 9223TIP3   OH227625   6.415   4.211   5.499
 9223TIP3    H127626   6.344   4.200   5.561
 9223TIP3    H227627   6.441   4.303   5.508
 9224TIP3   OH227628   4.353   2.393   4.182
 9224TIP3    H127629   4.400   2.331   4.238
 9224TIP3    H227630   4.295   2.337   4.129
 9225TIP3   OH227631   2.360   5.986   6.686
 9225TIP3    H127632   2.389   6.035   6.763
 9225TIP3    H227633   2.309   5.914   6.722
 9226TIP3   OH227634   5.293   5.744   0.203
 9226TIP3    H127635   5.293   5.711   0.293
 9226TIP3    H227636   5.200   5.761   0.184
 9227TIP3   OH227637   4.689   4.381   1.065
 9227TIP3    H127638   4.645   4.307   1.107
 9227TIP3    H227639   4.756   4.409   1.127
 9228TIP3   OH227640   5.493   0.018   4.680
 9228TIP3    H127641   5.522   0.095   4.632
 9228TIP3    H227642   5.552   0.014   4.756
 9229TIP3   OH227643   0.095   1.378   1.022
 9229TIP3    H127644   0.086   1.405   1.114
 9229TIP3    H227645   0.155   1.302   1.025
 9230TIP3   OH227646   4.375   0.411   4.806
 9230TIP3    H127647   4.363   0.406   4.711
 9230TIP3    H227648   4.462   0.376   4.822
 9231TIP3   OH227649   1.431   2.893   1.088
 9231TIP3    H127650   1.395   2.945   1.159
 9231TIP3    H227651   1.449   2.808   1.127
 9232TIP3   OH227652   4.748   4.177   2.037
 9232TIP3    H127653   4.744   4.229   2.118
 9232TIP3    H227654   4.683   4.108   2.050
 9233TIP3   OH227655   3.833   7.167   5.236
 9233TIP3    H127656   3.926   7.154   5.220
 9233TIP3    H227657   3.790   7.098   5.186
 9234TIP3   OH227658   7.979   6.787   3.967
 9234TIP3    H127659   8.046   6.766   3.902
 9234TIP3    H227660   7.904   6.819   3.916
 9235TIP3   OH227661   5.460   1.590   1.916
 9235TIP3    H127662   5.482   1.595   1.823
 9235TIP3    H227663   5.389   1.526   1.920
 9236TIP3   OH227664   4.411   0.104   2.799
 9236TIP3    H127665   4.479   0.135   2.740
 9236TIP3    H227666   4.401   0.011   2.778
 9237TIP3   OH227667   3.170   1.607   1.384
 9237TIP3    H127668   3.082   1.603   1.421
 9237TIP3    H227669   3.175   1.532   1.325
 9238TIP3   OH227670   3.506   7.610   5.518
 9238TIP3    H127671   3.544   7.681   5.569
 9238TIP3    H227672   3.549   7.531   5.551
 9239TIP3   OH227673   0.442   3.775   5.582
 9239TIP3    H127674   0.363   3.761   5.530
 9239TIP3    H227675   0.493   3.694   5.570
 9240TIP3   OH227676   2.036   5.318   3.857
 9240TIP3    H127677   2.129   5.326   3.835
 9240TIP3    H227678   1.995   5.393   3.813
 9241TIP3   OH227679   8.144   7.333   0.082
 9241TIP3    H127680   8.190   7.320  -0.001
 9241TIP3    H227681   8.110   7.247   0.105
 9242TIP3   OH227682   7.656   3.528   3.101
 9242TIP3    H127683   7.596   3.566   3.165
 9242TIP3    H227684   7.720   3.597   3.084
 9243TIP3   OH227685   1.150   4.040   0.795
 9243TIP3    H127686   1.204   4.064   0.720
 9243TIP3    H227687   1.168   4.107   0.860
 9244TIP3   OH227688   1.039   2.066   2.026
 9244TIP3    H127689   0.945   2.051   2.018
 9244TIP3    H227690   1.059   2.047   2.117
 9245TIP3   OH227691   6.267   4.901   2.262
 9245TIP3    H127692   6.347   4.926   2.215
 9245TIP3    H227693   6.255   4.969   2.328
 9246TIP3   OH227694   3.830   6.281   1.261
 9246TIP3    H127695   3.790   6.365   1.286
 9246TIP3    H227696   3.765   6.215   1.288
 9247TIP3   OH227697   4.117   3.449   0.678
 9247TIP3    H127698   4.172   3.497   0.739
 9247TIP3    H227699   4.151   3.360   0.679
 9248TIP3   OH227700   7.834   5.730   1.969
 9248TIP3    H127701   7.927   5.709   1.973
 9248TIP3    H227702   7.810   5.716   1.877
 9249TIP3   OH227703   1.410   6.473   5.188
 9249TIP3    H127704   1.388   6.404   5.250
 9249TIP3    H227705   1.476   6.526   5.234
 9250TIP3   OH227706   1.460   2.190   3.593
 9250TIP3    H127707   1.377   2.202   3.639
 9250TIP3    H227708   1.526   2.219   3.656
 9251TIP3   OH227709   4.420   1.655   1.221
 9251TIP3    H127710   4.338   1.616   1.252
 9251TIP3    H227711   4.483   1.583   1.224
 9252TIP3   OH227712   8.172   0.210   2.826
 9252TIP3    H127713   8.094   0.164   2.795
 9252TIP3    H227714   8.235   0.140   2.843
 9253TIP3   OH227715   7.084   0.397   1.991
 9253TIP3    H127716   7.103   0.413   1.899
 9253TIP3    H227717   7.093   0.302   2.002
 9254TIP3   OH227718   3.154   1.930   0.533
 9254TIP3    H127719   3.203   1.857   0.495
 9254TIP3    H227720   3.085   1.889   0.585
 9255TIP3   OH227721   0.075   6.771   4.990
 9255TIP3    H127722   0.001   6.710   4.994
 9255TIP3    H227723   0.091   6.782   4.896
 9256TIP3   OH227724   7.980   3.698   3.798
 9256TIP3    H127725   7.984   3.724   3.706
 9256TIP3    H227726   8.009   3.607   3.798
 9257TIP3   OH227727   3.426   6.613   2.625
 9257TIP3    H127728   3.430   6.633   2.718
 9257TIP3    H227729   3.415   6.518   2.621
 9258TIP3   OH227730   6.757   1.458   5.369
 9258TIP3    H127731   6.680   1.515   5.372
 9258TIP3    H227732   6.770   1.439   5.276
 9259TIP3   OH227733   3.277   4.606   6.545
 9259TIP3    H127734   3.202   4.634   6.494
 9259TIP3    H227735   3.247   4.529   6.593
 9260TIP3   OH227736   2.459   4.589   4.448
 9260TIP3    H127737   2.403   4.648   4.498
 9260TIP3    H227738   2.527   4.645   4.412
 9261TIP3   OH227739   6.491   5.725   5.404
 9261TIP3    H127740   6.561   5.708   5.341
 9261TIP3    H227741   6.525   5.795   5.459
 9262TIP3   OH227742   3.258   6.940   3.370
 9262TIP3    H127743   3.170   6.908   3.392
 9262TIP3    H227744   3.279   6.898   3.287
 9263TIP3   OH227745   2.020   1.908   6.434
 9263TIP3    H127746   2.096   1.958   6.463
 9263TIP3    H227747   1.999   1.944   6.348
 9264TIP3   OH227748   5.658   2.541   6.051
 9264TIP3    H127749   5.701   2.458   6.074
 9264TIP3    H227750   5.575   2.515   6.012
 9265TIP3   OH227751   6.922   2.224   5.311
 9265TIP3    H127752   6.916   2.157   5.380
 9265TIP3    H227753   6.868   2.190   5.240
 9266TIP3   OH227754   1.926   6.087   6.490
 9266TIP3    H127755   1.858   6.153   6.474
 9266TIP3    H227756   1.930   6.079   6.585
 9267TIP3   OH227757   6.758   6.381   3.319
 9267TIP3    H127758   6.675   6.337   3.300
 9267TIP3    H227759   6.824   6.326   3.275
 9268TIP3   OH227760   2.602   4.985   4.861
 9268TIP3    H127761   2.555   5.066   4.880
 9268TIP3    H227762   2.632   4.954   4.947
 9269TIP3   OH227763   3.577   4.541   2.178
 9269TIP3    H127764   3.596   4.597   2.253
 9269TIP3    H227765   3.609   4.454   2.205
 9270TIP3   OH227766   0.604   3.005   1.885
 9270TIP3    H127767   0.610   3.004   1.789
 9270TIP3    H227768   0.521   2.962   1.904
 9271TIP3   OH227769   2.627   4.092   4.608
 9271TIP3    H127770   2.633   4.072   4.702
 9271TIP3    H227771   2.614   4.006   4.567
 9272TIP3   OH227772   4.679   0.716   1.626
 9272TIP3    H127773   4.722   0.660   1.690
 9272TIP3    H227774   4.586   0.696   1.636
 9273TIP3   OH227775   2.263   5.333   2.894
 9273TIP3    H127776   2.339   5.364   2.843
 9273TIP3    H227777   2.223   5.413   2.927
 9274TIP3   OH227778   6.136   6.718   1.634
 9274TIP3    H127779   6.218   6.673   1.654
 9274TIP3    H227780   6.138   6.796   1.689
 9275TIP3   OH227781   1.974   6.699   5.229
 9275TIP3    H127782   2.004   6.762   5.294
 9275TIP3    H227783   2.029   6.715   5.153
 9276TIP3   OH227784   0.428   6.379   6.731
 9276TIP3    H127785   0.447   6.309   6.669
 9276TIP3    H227786   0.388   6.336   6.806
 9277TIP3   OH227787   5.589   4.149   0.809
 9277TIP3    H127788   5.587   4.185   0.897
 9277TIP3    H227789   5.498   4.133   0.787
 9278TIP3   OH227790   1.436   7.164   1.942
 9278TIP3    H127791   1.483   7.149   1.860
 9278TIP3    H227792   1.391   7.248   1.928
 9279TIP3   OH227793   0.829   5.928   6.707
 9279TIP3    H127794   0.844   6.019   6.683
 9279TIP3    H227795   0.837   5.880   6.625
 9280TIP3   OH227796   0.045   3.207   2.577
 9280TIP3    H127797   0.081   3.259   2.649
 9280TIP3    H227798   0.118   3.152   2.549
 9281TIP3   OH227799   5.216   3.438   6.552
 9281TIP3    H127800   5.224   3.343   6.559
 9281TIP3    H227801   5.293   3.471   6.598
 9282TIP3   OH227802   4.489   7.422   1.322
 9282TIP3    H127803   4.412   7.421   1.265
 9282TIP3    H227804   4.560   7.456   1.267
 9283TIP3   OH227805   4.922   2.586   5.535
 9283TIP3    H127806   4.945   2.676   5.558
 9283TIP3    H227807   4.862   2.596   5.461
 9284TIP3   OH227808   7.112   7.121   4.724
 9284TIP3    H127809   7.099   7.074   4.641
 9284TIP3    H227810   7.174   7.191   4.702
 9285TIP3   OH227811   7.891   4.084   2.067
 9285TIP3    H127812   7.867   4.176   2.059
 9285TIP3    H227813   7.948   4.066   1.993
 9286TIP3   OH227814   4.252   6.383   4.971
 9286TIP3    H127815   4.326   6.342   4.926
 9286TIP3    H227816   4.281   6.473   4.986
 9287TIP3   OH227817   0.529   4.542   2.145
 9287TIP3    H127818   0.605   4.527   2.201
 9287TIP3    H227819   0.565   4.574   2.063
 9288TIP3   OH227820   6.671   5.036   1.688
 9288TIP3    H127821   6.642   5.108   1.744
 9288TIP3    H227822   6.766   5.048   1.682
 9289TIP3   OH227823   4.471   2.873   1.124
 9289TIP3    H127824   4.510   2.847   1.041
 9289TIP3    H227825   4.526   2.830   1.190
 9290TIP3   OH227826   4.459   2.771   5.239
 9290TIP3    H127827   4.495   2.841   5.293
 9290TIP3    H227828   4.499   2.784   5.153
 9291TIP3   OH227829   0.592   5.247   0.282
 9291TIP3    H127830   0.635   5.259   0.198
 9291TIP3    H227831   0.586   5.152   0.292
 9292TIP3   OH227832   6.627   4.838   3.809
 9292TIP3    H127833   6.628   4.862   3.902
 9292TIP3    H227834   6.707   4.876   3.774
 9293TIP3   OH227835   4.294   0.906   6.707
 9293TIP3    H127836   4.236   0.968   6.751
 9293TIP3    H227837   4.244   0.875   6.632
 9294TIP3   OH227838   6.028   1.149   1.890
 9294TIP3    H127839   5.949   1.110   1.929
 9294TIP3    H227840   6.097   1.129   1.953
 9295TIP3   OH227841   6.056   1.982   3.054
 9295TIP3    H127842   6.118   2.053   3.037
 9295TIP3    H227843   6.096   1.905   3.013
 9296TIP3   OH227844   7.335   5.187   0.297
 9296TIP3    H127845   7.423   5.189   0.259
 9296TIP3    H227846   7.294   5.269   0.267
 9297TIP3   OH227847   3.289   0.317   0.474
 9297TIP3    H127848   3.241   0.369   0.411
 9297TIP3    H227849   3.293   0.229   0.435
 9298TIP3   OH227850   3.184   2.891   3.203
 9298TIP3    H127851   3.193   2.804   3.243
 9298TIP3    H227852   3.246   2.946   3.250
 9299TIP3   OH227853   1.716   3.975   0.109
 9299TIP3    H127854   1.694   4.034   0.181
 9299TIP3    H227855   1.811   3.964   0.116
 9300TIP3   OH227856   5.963   1.736   4.213
 9300TIP3    H127857   6.015   1.657   4.198
 9300TIP3    H227858   5.898   1.710   4.278
 9301TIP3   OH227859   1.199   1.503   0.612
 9301TIP3    H127860   1.246   1.511   0.696
 9301TIP3    H227861   1.267   1.476   0.550
 9302TIP3   OH227862   5.758   4.598   3.720
 9302TIP3    H127863   5.756   4.657   3.796
 9302TIP3    H227864   5.843   4.554   3.725
 9303TIP3   OH227865   7.329   4.769  -0.001
 9303TIP3    H127866   7.328   4.842   0.061
 9303TIP3    H227867   7.247   4.778  -0.050
 9304TIP3   OH227868   6.108   7.820   4.668
 9304TIP3    H127869   6.166   7.785   4.736
 9304TIP3    H227870   6.167   7.864   4.607
 9305TIP3   OH227871   6.351   6.395   4.883
 9305TIP3    H127872   6.400   6.353   4.812
 9305TIP3    H227873   6.260   6.371   4.867
 9306TIP3   OH227874   7.077   4.055   1.479
 9306TIP3    H127875   7.131   4.082   1.553
 9306TIP3    H227876   6.991   4.092   1.497
 9307TIP3   OH227877   7.205   4.073   4.935
 9307TIP3    H127878   7.130   4.128   4.913
 9307TIP3    H227879   7.200   4.063   5.030
 9308TIP3   OH227880   1.614   3.010   2.035
 9308TIP3    H127881   1.642   3.027   2.125
 9308TIP3    H227882   1.621   3.095   1.991
 9309TIP3   OH227883   5.992   6.583   3.631
 9309TIP3    H127884   5.936   6.660   3.643
 9309TIP3    H227885   6.034   6.570   3.716
 9310TIP3   OH227886   7.378   3.955   6.280
 9310TIP3    H127887   7.288   3.932   6.257
 9310TIP3    H227888   7.420   3.872   6.301
 9311TIP3   OH227889   4.814   0.548   3.854
 9311TIP3    H127890   4.820   0.629   3.904
 9311TIP3    H227891   4.902   0.511   3.857
 9312TIP3   OH227892   2.740   6.955   6.012
 9312TIP3    H127893   2.711   6.949   5.921
 9312TIP3    H227894   2.698   6.880   6.055
 9313TIP3   OH227895   4.640   4.146   4.541
 9313TIP3    H127896   4.708   4.151   4.608
 9313TIP3    H227897   4.685   4.113   4.464
 9314TIP3   OH227898   7.963   2.743   3.884
 9314TIP3    H127899   7.929   2.791   3.959
 9314TIP3    H227900   8.035   2.797   3.850
 9315TIP3   OH227901   7.081   1.813   1.422
 9315TIP3    H127902   7.142   1.753   1.466
 9315TIP3    H227903   7.037   1.759   1.357
 9316TIP3   OH227904   8.240   4.478   1.856
 9316TIP3    H127905   8.165   4.481   1.915
 9316TIP3    H227906   8.312   4.446   1.910
 9317TIP3   OH227907   6.606   7.186   2.677
 9317TIP3    H127908   6.694   7.225   2.683
 9317TIP3    H227909   6.601   7.126   2.752
 9318TIP3   OH227910   5.611   0.261   5.227
 9318TIP3    H127911   5.680   0.261   5.293
 9318TIP3    H227912   5.531   0.239   5.276
 9319TIP3   OH227913   0.165   0.824   0.577
 9319TIP3    H127914   0.205   0.885   0.638
 9319TIP3    H227915   0.197   0.738   0.603
 9320TIP3   OH227916   4.993   1.889   5.381
 9320TIP3    H127917   5.007   1.981   5.403
 9320TIP3    H227918   5.020   1.881   5.290
 9321TIP3   OH227919   6.383   1.667   4.209
 9321TIP3    H127920   6.429   1.697   4.287
 9321TIP3    H227921   6.410   1.576   4.198
 9322TIP3   OH227922   6.293   5.254   3.528
 9322TIP3    H127923   6.365   5.291   3.478
 9322TIP3    H227924   6.270   5.174   3.482
 9323TIP3   OH227925   3.672   1.806   5.828
 9323TIP3    H127926   3.679   1.781   5.920
 9323TIP3    H227927   3.599   1.754   5.794
 9324TIP3   OH227928   1.798   6.030   4.984
 9324TIP3    H127929   1.853   6.090   5.036
 9324TIP3    H227930   1.839   5.944   4.997
 9325TIP3   OH227931   7.889   5.289   2.778
 9325TIP3    H127932   7.931   5.365   2.737
 9325TIP3    H227933   7.892   5.221   2.710
 9326TIP3   OH227934   5.126   7.401   4.596
 9326TIP3    H127935   5.054   7.438   4.647
 9326TIP3    H227936   5.202   7.409   4.654
 9327TIP3   OH227937   4.971   5.785   4.235
 9327TIP3    H127938   4.920   5.853   4.191
 9327TIP3    H227939   5.011   5.830   4.309
 9328TIP3   OH227940   1.621   1.143   2.439
 9328TIP3    H127941   1.654   1.204   2.505
 9328TIP3    H227942   1.543   1.185   2.404
 9329TIP3   OH227943   7.819   1.080   5.146
 9329TIP3    H127944   7.873   1.009   5.110
 9329TIP3    H227945   7.729   1.050   5.134
 9330TIP3   OH227946   0.567   7.635   2.821
 9330TIP3    H127947   0.661   7.624   2.808
 9330TIP3    H227948   0.555   7.730   2.825
 9331TIP3   OH227949   1.246   6.561   0.900
 9331TIP3    H127950   1.166   6.588   0.854
 9331TIP3    H227951   1.240   6.604   0.985
 9332TIP3   OH227952   8.135   4.726   3.870
 9332TIP3    H127953   8.174   4.769   3.946
 9332TIP3    H227954   8.117   4.798   3.809
 9333TIP3   OH227955   0.432   4.309   2.027
 9333TIP3    H127956   0.480   4.378   2.073
 9333TIP3    H227957   0.454   4.322   1.934
 9334TIP3   OH227958   8.151   7.828   4.538
 9334TIP3    H127959   8.197   7.896   4.490
 9334TIP3    H227960   8.162   7.749   4.485
 9335TIP3   OH227961   1.801   4.794   2.500
 9335TIP3    H127962   1.750   4.867   2.533
 9335TIP3    H227963   1.871   4.782   2.565
 9336TIP3   OH227964   3.860   2.010   6.654
 9336TIP3    H127965   3.907   1.956   6.591
 9336TIP3    H227966   3.892   2.099   6.639
 9337TIP3   OH227967   1.648   0.828   0.504
 9337TIP3    H127968   1.685   0.820   0.416
 9337TIP3    H227969   1.664   0.920   0.528
 9338TIP3   OH227970   6.345   6.752   6.524
 9338TIP3    H127971   6.312   6.662   6.521
 9338TIP3    H227972   6.435   6.744   6.555
 9339TIP3   OH227973   6.339   0.576   0.068
 9339TIP3    H127974   6.370   0.617   0.149
 9339TIP3    H227975   6.333   0.483   0.090
 9340TIP3   OH227976   7.198   3.007   0.623
 9340TIP3    H127977   7.195   3.050   0.538
 9340TIP3    H227978   7.119   2.952   0.625
 9341TIP3   OH227979   3.396   5.406   3.205
 9341TIP3    H127980   3.331   5.459   3.160
 9341TIP3    H227981   3.454   5.375   3.136
 9342TIP3   OH227982   4.619   2.083   0.719
 9342TIP3    H127983   4.580   1.996   0.711
 9342TIP3    H227984   4.713   2.066   0.724
 9343TIP3   OH227985   0.696   0.811   6.417
 9343TIP3    H127986   0.719   0.770   6.501
 9343TIP3    H227987   0.628   0.874   6.439
 9344TIP3   OH227988   1.774   7.129   6.494
 9344TIP3    H127989   1.861   7.154   6.464
 9344TIP3    H227990   1.720   7.206   6.478
 9345TIP3   OH227991   1.334   5.902   5.760
 9345TIP3    H127992   1.314   5.933   5.672
 9345TIP3    H227993   1.397   5.830   5.747
 9346TIP3   OH227994   1.936   7.437   4.511
 9346TIP3    H127995   1.905   7.528   4.508
 9346TIP3    H227996   1.954   7.421   4.603
 9347TIP3   OH227997   1.273   0.752   0.699
 9347TIP3    H127998   1.327   0.792   0.768
 9347TIP3    H227999   1.262   0.661   0.727
 9348TIP3   OH228000   4.095   3.633   1.941
 9348TIP3    H128001   4.035   3.706   1.924
 9348TIP3    H228002   4.040   3.568   1.986
 9349TIP3   OH228003   0.908   2.264   0.524
 9349TIP3    H128004   0.924   2.294   0.434
 9349TIP3    H228005   0.813   2.268   0.533
 9350TIP3   OH228006   5.851   4.217   3.159
 9350TIP3    H128007   5.834   4.210   3.253
 9350TIP3    H228008   5.816   4.302   3.134
 9351TIP3   OH228009   1.392   4.336   5.666
 9351TIP3    H128010   1.401   4.281   5.744
 9351TIP3    H228011   1.362   4.420   5.699
 9352TIP3   OH228012   3.315   5.898   5.160
 9352TIP3    H128013   3.352   5.898   5.249
 9352TIP3    H228014   3.345   5.981   5.123
 9353TIP3   OH228015   7.314   7.439   0.643
 9353TIP3    H128016   7.376   7.440   0.570
 9353TIP3    H228017   7.228   7.434   0.601
 9354TIP3   OH228018   6.031   2.321   0.436
 9354TIP3    H128019   6.057   2.229   0.433
 9354TIP3    H228020   6.080   2.363   0.366
 9355TIP3   OH228021   2.116   0.834   1.955
 9355TIP3    H128022   2.138   0.751   1.997
 9355TIP3    H228023   2.071   0.884   2.023
 9356TIP3   OH228024   3.919   2.536   4.694
 9356TIP3    H128025   3.946   2.564   4.782
 9356TIP3    H228026   3.826   2.559   4.689
 9357TIP3   OH228027   0.383   5.402   0.206
 9357TIP3    H128028   0.300   5.389   0.251
 9357TIP3    H228029   0.437   5.328   0.234
 9358TIP3   OH228030   1.405   0.894   3.874
 9358TIP3    H128031   1.452   0.971   3.906
 9358TIP3    H228032   1.458   0.820   3.904
 9359TIP3   OH228033   3.884   2.161   3.846
 9359TIP3    H128034   3.840   2.244   3.827
 9359TIP3    H228035   3.917   2.132   3.761
 9360TIP3   OH228036   0.215   0.143   0.970
 9360TIP3    H128037   0.242   0.134   1.061
 9360TIP3    H228038   0.138   0.199   0.974
 9361TIP3   OH228039   1.445   5.645   5.110
 9361TIP3    H128040   1.499   5.645   5.031
 9361TIP3    H228041   1.373   5.585   5.090
 9362TIP3   OH228042   7.826   3.151   4.007
 9362TIP3    H128043   7.914   3.121   4.031
 9362TIP3    H228044   7.838   3.200   3.926
 9363TIP3   OH228045   6.150   1.176   5.468
 9363TIP3    H128046   6.094   1.104   5.441
 9363TIP3    H228047   6.237   1.151   5.439
 9364TIP3   OH228048   5.480   4.669   3.808
 9364TIP3    H128049   5.497   4.595   3.866
 9364TIP3    H228050   5.534   4.652   3.731
 9365TIP3   OH228051   3.114   0.255  -0.016
 9365TIP3    H128052   3.036   0.307  -0.035
 9365TIP3    H228053   3.145   0.288   0.068
 9366TIP3   OH228054   0.705   7.453   1.553
 9366TIP3    H128055   0.792   7.491   1.550
 9366TIP3    H228056   0.702   7.406   1.636
 9367TIP3   OH228057   0.311   1.947   6.002
 9367TIP3    H128058   0.224   1.937   6.042
 9367TIP3    H228059   0.340   1.858   5.985
 9368TIP3   OH228060   6.648   0.523   5.555
 9368TIP3    H128061   6.651   0.580   5.632
 9368TIP3    H228062   6.681   0.577   5.484
 9369TIP3   OH228063   6.910   3.654   0.217
 9369TIP3    H128064   6.869   3.569   0.203
 9369TIP3    H228065   6.948   3.677   0.132
 9370TIP3   OH228066   2.328   3.794   5.517
 9370TIP3    H128067   2.298   3.838   5.597
 9370TIP3    H228068   2.321   3.861   5.449
 9371TIP3   OH228069   4.679   4.371   0.448
 9371TIP3    H128070   4.674   4.450   0.395
 9371TIP3    H228071   4.716   4.304   0.390
 9372TIP3   OH228072   6.497   0.378   6.543
 9372TIP3    H128073   6.501   0.416   6.631
 9372TIP3    H228074   6.552   0.435   6.490
 9373TIP3   OH228075   1.583   5.378   1.359
 9373TIP3    H128076   1.527   5.420   1.424
 9373TIP3    H228077   1.582   5.438   1.284
 9374TIP3   OH228078   7.760   5.264   4.010
 9374TIP3    H128079   7.695   5.287   3.943
 9374TIP3    H228080   7.841   5.251   3.961
 9375TIP3   OH228081   2.941   0.654   4.269
 9375TIP3    H128082   2.952   0.561   4.290
 9375TIP3    H228083   2.901   0.655   4.182
 9376TIP3   OH228084   1.768   4.578   3.685
 9376TIP3    H128085   1.799   4.570   3.594
 9376TIP3    H228086   1.791   4.667   3.711
 9377TIP3   OH228087   2.244   7.662   3.487
 9377TIP3    H128088   2.153   7.639   3.504
 9377TIP3    H228089   2.251   7.666   3.392
 9378TIP3   OH228090   0.570   3.116   5.962
 9378TIP3    H128091   0.522   3.111   5.879
 9378TIP3    H228092   0.505   3.098   6.029
 9379TIP3   OH228093   5.888   6.941   0.808
 9379TIP3    H128094   5.971   6.987   0.797
 9379TIP3    H228095   5.848   6.942   0.721
 9380TIP3   OH228096   6.300   5.078   4.250
 9380TIP3    H128097   6.227   5.139   4.236
 9380TIP3    H228098   6.373   5.117   4.202
 9381TIP3   OH228099   0.664   3.532   1.472
 9381TIP3    H128100   0.610   3.454   1.486
 9381TIP3    H228101   0.700   3.521   1.384
 9382TIP3   OH228102   7.838   1.939   0.575
 9382TIP3    H128103   7.743   1.946   0.578
 9382TIP3    H228104   7.862   1.971   0.488
 9383TIP3   OH228105   4.641   3.393   3.513
 9383TIP3    H128106   4.600   3.406   3.598
 9383TIP3    H228107   4.669   3.302   3.513
 9384TIP3   OH228108   3.126   4.316   0.619
 9384TIP3    H128109   3.131   4.368   0.539
 9384TIP3    H228110   3.064   4.246   0.599
 9385TIP3   OH228111   1.933   7.432   2.177
 9385TIP3    H128112   1.897   7.434   2.089
 9385TIP3    H228113   1.947   7.339   2.195
 9386TIP3   OH228114   2.128  -0.025   5.318
 9386TIP3    H128115   2.160   0.058   5.351
 9386TIP3    H228116   2.036  -0.028   5.345
 9387TIP3   OH228117   2.993   3.331   5.231
 9387TIP3    H128118   2.979   3.263   5.296
 9387TIP3    H228119   2.956   3.410   5.272
 9388TIP3   OH228120   1.653   6.090   0.855
 9388TIP3    H128121   1.582   6.143   0.819
 9388TIP3    H228122   1.627   6.000   0.835
 9389TIP3   OH228123   7.830   3.138   6.719
 9389TIP3    H128124   7.797   3.075   6.783
 9389TIP3    H228125   7.915   3.103   6.693
 9390TIP3   OH228126   6.065   2.511   1.473
 9390TIP3    H128127   6.135   2.447   1.459
 9390TIP3    H228128   6.107   2.596   1.461
 9391TIP3   OH228129   5.499   1.353   3.578
 9391TIP3    H128130   5.584   1.381   3.613
 9391TIP3    H228131   5.497   1.388   3.489
 9392TIP3   OH228132   1.752   7.276   4.125
 9392TIP3    H128133   1.740   7.215   4.198
 9392TIP3    H228134   1.711   7.233   4.050
 9393TIP3   OH228135   3.645   1.018   3.519
 9393TIP3    H128136   3.723   1.067   3.544
 9393TIP3    H228137   3.676   0.928   3.506
 9394TIP3   OH228138   0.730   7.666   0.529
 9394TIP3    H128139   0.809   7.678   0.582
 9394TIP3    H228140   0.729   7.573   0.508
 9395TIP3   OH228141   5.023   7.182   1.334
 9395TIP3    H128142   4.977   7.258   1.298
 9395TIP3    H228143   5.049   7.131   1.257
 9396TIP3   OH228144   5.435   6.606   0.366
 9396TIP3    H128145   5.418   6.625   0.458
 9396TIP3    H228146   5.397   6.680   0.319
 9397TIP3   OH228147   4.107   2.521   5.607
 9397TIP3    H128148   4.131   2.583   5.676
 9397TIP3    H228149   4.189   2.476   5.587
 9398TIP3   OH228150   6.994   4.526   6.638
 9398TIP3    H128151   6.953   4.447   6.601
 9398TIP3    H228152   6.967   4.597   6.580
 9399TIP3   OH228153   1.192   0.370   6.796
 9399TIP3    H128154   1.183   0.415   6.712
 9399TIP3    H228155   1.220   0.281   6.772
 9400TIP3   OH228156   8.319   3.604   3.530
 9400TIP3    H128157   8.370   3.580   3.607
 9400TIP3    H228158   8.241   3.549   3.534
 9401TIP3   OH228159   4.897   0.215   2.251
 9401TIP3    H128160   4.840   0.171   2.187
 9401TIP3    H228161   4.836   0.253   2.314
 9402TIP3   OH228162   6.407   0.404   3.678
 9402TIP3    H128163   6.470   0.469   3.646
 9402TIP3    H228164   6.429   0.324   3.630
 9403TIP3   OH228165   1.224   6.187   3.656
 9403TIP3    H128166   1.144   6.237   3.674
 9403TIP3    H228167   1.204   6.139   3.576
 9404TIP3   OH228168   7.334   2.975   5.557
 9404TIP3    H128169   7.315   3.013   5.471
 9404TIP3    H228170   7.397   2.906   5.539
 9405TIP3   OH228171   5.041   0.980   6.494
 9405TIP3    H128172   4.967   1.040   6.485
 9405TIP3    H228173   5.109   1.033   6.536
 9406TIP3   OH228174   5.722   4.740   3.938
 9406TIP3    H128175   5.655   4.803   3.909
 9406TIP3    H228176   5.766   4.784   4.011
 9407TIP3   OH228177   7.569   5.631   3.672
 9407TIP3    H128178   7.605   5.717   3.693
 9407TIP3    H228179   7.496   5.650   3.613
 9408TIP3   OH228180   0.646   1.101   6.581
 9408TIP3    H128181   0.602   1.081   6.498
 9408TIP3    H228182   0.602   1.046   6.646
 9409TIP3   OH228183   6.613   5.166   3.167
 9409TIP3    H128184   6.601   5.074   3.142
 9409TIP3    H228185   6.658   5.205   3.092
 9410TIP3   OH228186   6.327   1.189   6.194
 9410TIP3    H128187   6.309   1.095   6.202
 9410TIP3    H228188   6.340   1.219   6.284
 9411TIP3   OH228189   7.010   2.726   1.377
 9411TIP3    H128190   6.923   2.694   1.403
 9411TIP3    H228191   7.065   2.648   1.378
 9412TIP3   OH228192   0.355   5.865   1.421
 9412TIP3    H128193   0.416   5.850   1.493
 9412TIP3    H228194   0.271   5.884   1.463
 9413TIP3   OH228195   8.321   3.624   1.043
 9413TIP3    H128196   8.284   3.701   1.000
 9413TIP3    H228197   8.250   3.590   1.097
 9414TIP3   OH228198   6.713   4.659   5.401
 9414TIP3    H128199   6.753   4.715   5.468
 9414TIP3    H228200   6.619   4.665   5.418
 9415TIP3   OH228201   7.044   0.252   1.119
 9415TIP3    H128202   7.094   0.326   1.154
 9415TIP3    H228203   7.107   0.207   1.062
 9416TIP3   OH228204   7.862   7.423   4.447
 9416TIP3    H128205   7.833   7.370   4.373
 9416TIP3    H228206   7.821   7.382   4.523
 9417TIP3   OH228207   1.038   5.683   4.652
 9417TIP3    H128208   1.120   5.653   4.613
 9417TIP3    H228209   0.975   5.613   4.634
 9418TIP3   OH228210   1.395   2.423   3.089
 9418TIP3    H128211   1.464   2.418   3.024
 9418TIP3    H228212   1.348   2.505   3.069
 9419TIP3   OH228213   6.687   0.943   5.063
 9419TIP3    H128214   6.608   0.894   5.087
 9419TIP3    H228215   6.673   0.968   4.972
 9420TIP3   OH228216   6.497   3.256   2.547
 9420TIP3    H128217   6.485   3.226   2.638
 9420TIP3    H228218   6.566   3.200   2.512
 9421TIP3   OH228219   4.436   4.301   4.641
 9421TIP3    H128220   4.505   4.238   4.619
 9421TIP3    H228221   4.371   4.290   4.571
 9422TIP3   OH228222   0.512   5.168   2.980
 9422TIP3    H128223   0.565   5.221   3.039
 9422TIP3    H228224   0.515   5.215   2.897
 9423TIP3   OH228225   5.569   6.476   0.650
 9423TIP3    H128226   5.659   6.508   0.649
 9423TIP3    H228227   5.545   6.474   0.742
 9424TIP3   OH228228   4.500   3.344   2.927
 9424TIP3    H128229   4.595   3.334   2.935
 9424TIP3    H228230   4.467   3.255   2.922
 9425TIP3   OH228231   6.994   4.275   4.983
 9425TIP3    H128232   7.050   4.336   5.031
 9425TIP3    H228233   6.996   4.305   4.893
 9426TIP3   OH228234   2.275   5.240   1.151
 9426TIP3    H128235   2.243   5.161   1.106
 9426TIP3    H228236   2.291   5.211   1.240
 9427TIP3   OH228237   3.756   7.712   1.150
 9427TIP3    H128238   3.694   7.672   1.210
 9427TIP3    H228239   3.827   7.744   1.206
 9428TIP3   OH228240   3.224   5.294   5.086
 9428TIP3    H128241   3.195   5.309   5.176
 9428TIP3    H228242   3.180   5.361   5.035
 9429TIP3   OH228243   2.115   5.049   1.017
 9429TIP3    H128244   2.063   5.128   1.001
 9429TIP3    H228245   2.071   4.981   0.967
 9430TIP3   OH228246   7.092   1.082   5.148
 9430TIP3    H128247   7.129   1.086   5.236
 9430TIP3    H228248   7.153   1.026   5.100
 9431TIP3   OH228249   8.164   5.532   2.425
 9431TIP3    H128250   8.168   5.440   2.453
 9431TIP3    H228251   8.161   5.528   2.329
 9432TIP3   OH228252   4.276   2.664   4.703
 9432TIP3    H128253   4.314   2.747   4.672
 9432TIP3    H228254   4.233   2.627   4.626
 9433TIP3   OH228255   6.999   5.950   4.212
 9433TIP3    H128256   7.066   6.017   4.220
 9433TIP3    H228257   7.041   5.880   4.163
 9434TIP3   OH228258   1.133   0.293   6.465
 9434TIP3    H128259   1.064   0.358   6.481
 9434TIP3    H228260   1.090   0.224   6.414
 9435TIP3   OH228261   2.313   0.494   0.027
 9435TIP3    H128262   2.229   0.519   0.065
 9435TIP3    H228263   2.293   0.419  -0.029
 9436TIP3   OH228264   2.847   1.333   1.252
 9436TIP3    H128265   2.799   1.337   1.169
 9436TIP3    H228266   2.797   1.391   1.310
 9437TIP3   OH228267   1.849   6.909   5.420
 9437TIP3    H128268   1.809   6.823   5.428
 9437TIP3    H228269   1.865   6.937   5.511
 9438TIP3   OH228270   2.159   1.388   2.459
 9438TIP3    H128271   2.169   1.384   2.554
 9438TIP3    H228272   2.165   1.296   2.431
 9439TIP3   OH228273   7.499   2.459   0.308
 9439TIP3    H128274   7.492   2.462   0.403
 9439TIP3    H228275   7.578   2.509   0.287
 9440TIP3   OH228276   2.810   2.616   2.678
 9440TIP3    H128277   2.855   2.534   2.695
 9440TIP3    H228278   2.869   2.665   2.620
 9441TIP3   OH228279   6.473   3.663   4.019
 9441TIP3    H128280   6.444   3.747   4.056
 9441TIP3    H228281   6.568   3.667   4.022
 9442TIP3   OH228282   3.098   7.595   5.309
 9442TIP3    H128283   3.009   7.629   5.305
 9442TIP3    H228284   3.124   7.606   5.400
 9443TIP3   OH228285   4.731   0.161   1.352
 9443TIP3    H128286   4.712   0.247   1.390
 9443TIP3    H228287   4.648   0.133   1.315
 9444TIP3   OH228288   7.114   6.774   6.292
 9444TIP3    H128289   7.038   6.778   6.234
 9444TIP3    H228290   7.108   6.687   6.333
 9445TIP3   OH228291   6.558   4.364   0.665
 9445TIP3    H128292   6.605   4.282   0.648
 9445TIP3    H228293   6.516   4.350   0.750
 9446TIP3   OH228294   1.087   0.492   4.496
 9446TIP3    H128295   1.153   0.451   4.441
 9446TIP3    H228296   1.135   0.555   4.549
 9447TIP3   OH228297   2.619   7.841   0.822
 9447TIP3    H128298   2.619   7.779   0.895
 9447TIP3    H228299   2.645   7.790   0.746
 9448TIP3   OH228300   0.205   0.237   5.874
 9448TIP3    H128301   0.241   0.235   5.962
 9448TIP3    H228302   0.216   0.148   5.842
 9449TIP3   OH228303   7.468   6.333   6.325
 9449TIP3    H128304   7.553   6.375   6.314
 9449TIP3    H228305   7.487   6.252   6.372
 9450TIP3   OH228306   4.161   0.485   5.413
 9450TIP3    H128307   4.207   0.559   5.374
 9450TIP3    H228308   4.177   0.494   5.507
 9451TIP3   OH228309   6.687   7.512   6.159
 9451TIP3    H128310   6.694   7.607   6.168
 9451TIP3    H228311   6.712   7.478   6.246
 9452TIP3   OH228312   0.316   5.345   6.243
 9452TIP3    H128313   0.385   5.318   6.304
 9452TIP3    H228314   0.363   5.391   6.173
 9453TIP3   OH228315   0.080   4.246   4.748
 9453TIP3    H128316   0.078   4.196   4.830
 9453TIP3    H228317  -0.011   4.264   4.728
 9454TIP3   OH228318   8.228   2.360   5.841
 9454TIP3    H128319   8.201   2.424   5.907
 9454TIP3    H228320   8.263   2.286   5.890
 9455TIP3   OH228321   0.888   6.243   0.374
 9455TIP3    H128322   0.971   6.259   0.327
 9455TIP3    H228323   0.913   6.189   0.448
 9456TIP3   OH228324   6.273   1.557   5.051
 9456TIP3    H128325   6.187   1.519   5.033
 9456TIP3    H228326   6.335   1.495   5.013
 9457TIP3   OH228327   5.923   2.699   0.980
 9457TIP3    H128328   5.905   2.672   0.890
 9457TIP3    H228329   5.960   2.620   1.021
 9458TIP3   OH228330   3.577   7.622   2.921
 9458TIP3    H128331   3.583   7.619   3.017
 9458TIP3    H228332   3.486   7.601   2.902
 9459TIP3   OH228333   3.687   2.971   6.130
 9459TIP3    H128334   3.618   3.032   6.156
 9459TIP3    H228335   3.665   2.890   6.174
 9460TIP3   OH228336   1.054   2.266   4.091
 9460TIP3    H128337   1.076   2.338   4.150
 9460TIP3    H228338   1.094   2.289   4.008
 9461TIP3   OH228339   1.350   4.024   3.204
 9461TIP3    H128340   1.261   4.014   3.170
 9461TIP3    H228341   1.390   4.090   3.146
 9462TIP3   OH228342   7.256   7.143   2.127
 9462TIP3    H128343   7.246   7.085   2.052
 9462TIP3    H228344   7.189   7.114   2.189
 9463TIP3   OH228345   3.989   1.269   4.438
 9463TIP3    H128346   4.003   1.293   4.530
 9463TIP3    H228347   4.073   1.287   4.396
 9464TIP3   OH228348   5.831   1.716   4.485
 9464TIP3    H128349   5.743   1.685   4.467
 9464TIP3    H228350   5.872   1.644   4.535
 9465TIP3   OH228351   3.240   6.168   5.599
 9465TIP3    H128352   3.238   6.108   5.674
 9465TIP3    H228353   3.321   6.218   5.610
 9466TIP3   OH228354   1.111   4.223   3.691
 9466TIP3    H128355   1.129   4.244   3.599
 9466TIP3    H228356   1.194   4.239   3.735
 9467TIP3   OH228357   5.095   2.982   2.411
 9467TIP3    H128358   5.040   2.918   2.367
 9467TIP3    H228359   5.129   3.037   2.341
 9468TIP3   OH228360   7.798   7.023   5.516
 9468TIP3    H128361   7.724   7.084   5.506
 9468TIP3    H228362   7.796   6.999   5.608
 9469TIP3   OH228363   1.729   6.774   5.105
 9469TIP3    H128364   1.698   6.842   5.164
 9469TIP3    H228365   1.809   6.740   5.146
 9470TIP3   OH228366   8.178   2.378   4.102
 9470TIP3    H128367   8.151   2.287   4.087
 9470TIP3    H228368   8.170   2.391   4.196
 9471TIP3   OH228369   3.057   0.510   0.799
 9471TIP3    H128370   3.063   0.604   0.817
 9471TIP3    H228371   2.989   0.478   0.859
 9472TIP3   OH228372   2.229   5.215   2.274
 9472TIP3    H128373   2.250   5.307   2.257
 9472TIP3    H228374   2.313   5.169   2.264
 9473TIP3   OH228375   6.632   4.802   2.567
 9473TIP3    H128376   6.700   4.750   2.610
 9473TIP3    H228377   6.602   4.747   2.494
 9474TIP3   OH228378   6.073   4.383   2.779
 9474TIP3    H128379   6.002   4.435   2.743
 9474TIP3    H228380   6.079   4.306   2.721
 9475TIP3   OH228381   5.743   4.935   2.004
 9475TIP3    H128382   5.806   4.991   1.960
 9475TIP3    H228383   5.682   4.908   1.935
 9476TIP3   OH228384   5.877   7.036   1.384
 9476TIP3    H128385   5.960   7.048   1.429
 9476TIP3    H228386   5.888   7.081   1.301
 9477TIP3   OH228387   0.657   4.618   2.986
 9477TIP3    H128388   0.597   4.557   3.029
 9477TIP3    H228389   0.706   4.658   3.058
 9478TIP3   OH228390   0.091   2.299   3.198
 9478TIP3    H128391   0.079   2.236   3.127
 9478TIP3    H228392   0.128   2.376   3.155
 9479TIP3   OH228393   7.625   4.187   2.300
 9479TIP3    H128394   7.534   4.201   2.326
 9479TIP3    H228395   7.675   4.198   2.380
 9480TIP3   OH228396   0.612   2.140   4.595
 9480TIP3    H128397   0.701   2.172   4.581
 9480TIP3    H228398   0.602   2.069   4.532
 9481TIP3   OH228399   3.586   5.252   6.292
 9481TIP3    H128400   3.607   5.317   6.358
 9481TIP3    H228401   3.654   5.185   6.302
 9482TIP3   OH228402   3.393   0.185   4.695
 9482TIP3    H128403   3.452   0.165   4.768
 9482TIP3    H228404   3.316   0.130   4.711
 9483TIP3   OH228405   4.266   3.839   5.522
 9483TIP3    H128406   4.233   3.750   5.539
 9483TIP3    H228407   4.348   3.826   5.474
 9484TIP3   OH228408   6.803   2.806   5.796
 9484TIP3    H128409   6.871   2.813   5.863
 9484TIP3    H228410   6.847   2.764   5.722
 9485TIP3   OH228411   2.887   3.127   5.379
 9485TIP3    H128412   2.912   3.109   5.469
 9485TIP3    H228413   2.890   3.042   5.336
 9486TIP3   OH228414   2.451   0.576   6.407
 9486TIP3    H128415   2.455   0.556   6.501
 9486TIP3    H228416   2.520   0.523   6.368
 9487TIP3   OH228417   5.250   6.184   6.355
 9487TIP3    H128418   5.268   6.090   6.353
 9487TIP3    H228419   5.193   6.200   6.279
 9488TIP3   OH228420   1.111   2.115   2.352
 9488TIP3    H128421   1.081   2.205   2.370
 9488TIP3    H228422   1.079   2.064   2.427
 9489TIP3   OH228423   2.248   3.055   6.695
 9489TIP3    H128424   2.207   2.997   6.759
 9489TIP3    H228425   2.192   3.048   6.617
 9490TIP3   OH228426   2.625   1.407   4.598
 9490TIP3    H128427   2.600   1.370   4.514
 9490TIP3    H228428   2.606   1.337   4.661
 9491TIP3   OH228429   4.771   5.196   0.368
 9491TIP3    H128430   4.842   5.194   0.304
 9491TIP3    H228431   4.730   5.110   0.361
 9492TIP3   OH228432   6.310   0.050   3.463
 9492TIP3    H128433   6.322   0.104   3.385
 9492TIP3    H228434   6.225   0.008   3.450
 9493TIP3   OH228435   2.964   5.955   5.676
 9493TIP3    H128436   3.047   5.977   5.720
 9493TIP3    H228437   2.897   6.001   5.726
 9494TIP3   OH228438   0.416   1.210   3.130
 9494TIP3    H128439   0.399   1.201   3.036
 9494TIP3    H228440   0.330   1.203   3.171
 9495TIP3   OH228441   7.145   0.506   5.902
 9495TIP3    H128442   7.229   0.551   5.886
 9495TIP3    H228443   7.108   0.552   5.977
 9496TIP3   OH228444   6.278   1.852   5.013
 9496TIP3    H128445   6.283   1.759   5.036
 9496TIP3    H228446   6.301   1.854   4.920
 9497TIP3   OH228447   8.089   4.126   3.302
 9497TIP3    H128448   8.032   4.062   3.344
 9497TIP3    H228449   8.134   4.170   3.374
 9498TIP3   OH228450   5.732   6.595   5.460
 9498TIP3    H128451   5.646   6.586   5.417
 9498TIP3    H228452   5.790   6.627   5.392
 9499TIP3   OH228453   4.693   2.270   4.385
 9499TIP3    H128454   4.616   2.214   4.373
 9499TIP3    H228455   4.730   2.278   4.297
 9500TIP3   OH228456   1.374   0.484   2.933
 9500TIP3    H128457   1.318   0.557   2.959
 9500TIP3    H228458   1.340   0.457   2.847
 9501TIP3   OH228459   4.675   6.975   2.299
 9501TIP3    H128460   4.721   7.056   2.318
 9501TIP3    H228461   4.733   6.905   2.328
 9502TIP3   OH228462   1.721   4.533   2.504
 9502TIP3    H128463   1.718   4.626   2.478
 9502TIP3    H228464   1.640   4.496   2.470
 9503TIP3   OH228465   4.385   4.103   0.535
 9503TIP3    H128466   4.426   4.178   0.578
 9503TIP3    H228467   4.327   4.065   0.601
 9504TIP3   OH228468   2.227   2.784   0.428
 9504TIP3    H128469   2.245   2.755   0.518
 9504TIP3    H228470   2.139   2.822   0.432
 9505TIP3   OH228471   1.565   4.485   6.571
 9505TIP3    H128472   1.527   4.429   6.639
 9505TIP3    H228473   1.656   4.497   6.598
 9506TIP3   OH228474   1.106   7.147   3.178
 9506TIP3    H128475   1.161   7.106   3.245
 9506TIP3    H228476   1.115   7.089   3.102
 9507TIP3   OH228477   1.253   1.233   0.246
 9507TIP3    H128478   1.314   1.159   0.248
 9507TIP3    H228479   1.189   1.209   0.178
 9508TIP3   OH228480  -0.008   0.957   4.420
 9508TIP3    H128481   0.025   1.047   4.421
 9508TIP3    H228482  -0.001   0.931   4.328
 9509TIP3   OH228483   2.188   1.400   4.537
 9509TIP3    H128484   2.254   1.469   4.545
 9509TIP3    H228485   2.234   1.320   4.563
 9510TIP3   OH228486   4.414   2.660   4.234
 9510TIP3    H128487   4.381   2.572   4.248
 9510TIP3    H228488   4.356   2.697   4.167
 9511TIP3   OH228489   5.404   4.040   4.517
 9511TIP3    H128490   5.494   4.010   4.505
 9511TIP3    H228491   5.401   4.071   4.607
 9512TIP3   OH228492   5.746   2.015   1.124
 9512TIP3    H128493   5.720   2.091   1.072
 9512TIP3    H228494   5.685   1.946   1.096
 9513TIP3   OH228495   4.866   2.981   4.661
 9513TIP3    H128496   4.865   2.907   4.600
 9513TIP3    H228497   4.901   2.945   4.742
 9514TIP3   OH228498   0.337   7.806   4.072
 9514TIP3    H128499   0.256   7.783   4.026
 9514TIP3    H228500   0.367   7.886   4.030
 9515TIP3   OH228501   8.143   7.003   6.411
 9515TIP3    H128502   8.165   6.975   6.500
 9515TIP3    H228503   8.224   6.995   6.362
 9516TIP3   OH228504   7.459   1.734   6.577
 9516TIP3    H128505   7.518   1.678   6.628
 9516TIP3    H228506   7.489   1.823   6.597
 9517TIP3   OH228507   8.288   7.268   2.719
 9517TIP3    H128508   8.222   7.334   2.738
 9517TIP3    H228509   8.244   7.206   2.661
 9518TIP3   OH228510   8.055   4.045   0.953
 9518TIP3    H128511   7.968   4.079   0.934
 9518TIP3    H228512   8.086   4.095   1.028
 9519TIP3   OH228513   0.157   5.343   3.401
 9519TIP3    H128514   0.156   5.305   3.489
 9519TIP3    H228515   0.103   5.421   3.408
 9520TIP3   OH228516   4.502   6.654   5.069
 9520TIP3    H128517   4.450   6.661   4.989
 9520TIP3    H228518   4.590   6.681   5.043
 9521TIP3   OH228519   2.523   1.953   1.325
 9521TIP3    H128520   2.483   1.994   1.248
 9521TIP3    H228521   2.589   1.895   1.288
 9522TIP3   OH228522   7.062   2.908   6.766
 9522TIP3    H128523   7.127   2.941   6.704
 9522TIP3    H228524   6.990   2.970   6.761
 9523TIP3   OH228525   2.453   2.113   3.774
 9523TIP3    H128526   2.536   2.069   3.794
 9523TIP3    H228527   2.388   2.042   3.773
 9524TIP3   OH228528   7.152   1.986   3.062
 9524TIP3    H128529   7.239   2.001   3.027
 9524TIP3    H228530   7.104   2.066   3.041
 9525TIP3   OH228531   6.241   1.624   5.326
 9525TIP3    H128532   6.272   1.602   5.238
 9525TIP3    H228533   6.177   1.556   5.346
 9526TIP3   OH228534   6.781   4.697   4.825
 9526TIP3    H128535   6.860   4.719   4.875
 9526TIP3    H228536   6.809   4.626   4.767
 9527TIP3   OH228537   5.859   6.259   2.827
 9527TIP3    H128538   5.788   6.231   2.884
 9527TIP3    H228539   5.866   6.189   2.761
 9528TIP3   OH228540   4.571   6.284   2.829
 9528TIP3    H128541   4.659   6.266   2.796
 9528TIP3    H228542   4.570   6.245   2.916
 9529TIP3   OH228543   1.221   5.509   1.585
 9529TIP3    H128544   1.295   5.526   1.527
 9529TIP3    H228545   1.254   5.444   1.647
 9530TIP3   OH228546   2.167   1.185   0.885
 9530TIP3    H128547   2.164   1.103   0.836
 9530TIP3    H228548   2.223   1.166   0.960
 9531TIP3   OH228549   6.824   2.620   1.754
 9531TIP3    H128550   6.776   2.593   1.833
 9531TIP3    H228551   6.837   2.714   1.766
 9532TIP3   OH228552   8.246   1.602   4.006
 9532TIP3    H128553   8.214   1.512   3.999
 9532TIP3    H228554   8.176   1.655   3.968
 9533TIP3   OH228555   5.434   2.062   6.112
 9533TIP3    H128556   5.444   2.136   6.051
 9533TIP3    H228557   5.522   2.049   6.147
 9534TIP3   OH228558   1.328   4.757   2.457
 9534TIP3    H128559   1.280   4.679   2.429
 9534TIP3    H228560   1.364   4.734   2.543
 9535TIP3   OH228561   0.126   6.177   4.185
 9535TIP3    H128562   0.156   6.191   4.095
 9535TIP3    H228563   0.040   6.218   4.188
 9536TIP3   OH228564   2.162   0.446   6.667
 9536TIP3    H128565   2.136   0.435   6.758
 9536TIP3    H228566   2.253   0.477   6.672
 9537TIP3   OH228567   1.520   5.036   3.994
 9537TIP3    H128568   1.601   5.025   3.943
 9537TIP3    H228569   1.458   5.075   3.931
 9538TIP3   OH228570   0.216   1.014   1.995
 9538TIP3    H128571   0.239   1.096   1.951
 9538TIP3    H228572   0.292   0.995   2.051
 9539TIP3   OH228573   0.412   5.911   0.783
 9539TIP3    H128574   0.409   5.816   0.777
 9539TIP3    H228575   0.496   5.930   0.825
 9540TIP3   OH228576   2.252   7.185   2.598
 9540TIP3    H128577   2.243   7.180   2.503
 9540TIP3    H228578   2.161   7.185   2.630
 9541TIP3   OH228579   3.777   6.083   4.869
 9541TIP3    H128580   3.870   6.099   4.881
 9541TIP3    H228581   3.761   6.102   4.776
 9542TIP3   OH228582   6.285   4.472   3.458
 9542TIP3    H128583   6.202   4.480   3.411
 9542TIP3    H228584   6.349   4.447   3.392
 9543TIP3   OH228585   2.888   6.029   2.165
 9543TIP3    H128586   2.970   6.073   2.185
 9543TIP3    H228587   2.908   5.936   2.172
 9544TIP3   OH228588   3.048   0.712   2.718
 9544TIP3    H128589   3.018   0.680   2.803
 9544TIP3    H228590   3.116   0.650   2.692
 9545TIP3   OH228591   5.146   1.501   5.816
 9545TIP3    H128592   5.132   1.454   5.898
 9545TIP3    H228593   5.229   1.469   5.783
 9546TIP3   OH228594   7.623   6.419   4.454
 9546TIP3    H128595   7.683   6.418   4.379
 9546TIP3    H228596   7.617   6.511   4.478
 9547TIP3   OH228597   8.020   5.501   2.687
 9547TIP3    H128598   8.110   5.497   2.720
 9547TIP3    H228599   8.027   5.543   2.601
 9548TIP3   OH228600   5.382   2.424   3.467
 9548TIP3    H128601   5.367   2.342   3.513
 9548TIP3    H228602   5.477   2.431   3.462
 9549TIP3   OH228603   3.636   4.285   2.343
 9549TIP3    H128604   3.632   4.194   2.313
 9549TIP3    H228605   3.548   4.319   2.327
 9550TIP3   OH228606   5.011   7.808   2.559
 9550TIP3    H128607   4.958   7.855   2.495
 9550TIP3    H228608   4.949   7.747   2.601
 9551TIP3   OH228609   1.660   4.399   5.802
 9551TIP3    H128610   1.617   4.393   5.888
 9551TIP3    H228611   1.728   4.331   5.805
 9552TIP3   OH228612   3.600   0.735   0.224
 9552TIP3    H128613   3.598   0.726   0.129
 9552TIP3    H228614   3.523   0.789   0.244
 9553TIP3   OH228615   3.900   1.706   4.298
 9553TIP3    H128616   3.905   1.791   4.342
 9553TIP3    H228617   3.991   1.684   4.278
 9554TIP3   OH228618   1.556   7.497   5.046
 9554TIP3    H128619   1.602   7.470   5.126
 9554TIP3    H228620   1.624   7.497   4.978
 9555TIP3   OH228621   4.308   0.753   5.481
 9555TIP3    H128622   4.338   0.844   5.487
 9555TIP3    H228623   4.218   0.755   5.513
 9556TIP3   OH228624   7.588   4.699   5.341
 9556TIP3    H128625   7.624   4.711   5.429
 9556TIP3    H228626   7.659   4.722   5.282
 9557TIP3   OH228627   1.643   3.622   0.064
 9557TIP3    H128628   1.736   3.621   0.040
 9557TIP3    H228629   1.641   3.581   0.150
 9558TIP3   OH228630   2.497   3.548   1.191
 9558TIP3    H128631   2.574   3.518   1.240
 9558TIP3    H228632   2.428   3.555   1.257
 9559TIP3   OH228633   1.965   4.448   5.135
 9559TIP3    H128634   2.055   4.418   5.124
 9559TIP3    H228635   1.912   4.369   5.127
 9560TIP3   OH228636   8.093   4.598   3.317
 9560TIP3    H128637   8.061   4.614   3.405
 9560TIP3    H228638   8.036   4.649   3.260
 9561TIP3   OH228639   7.205   4.636   1.709
 9561TIP3    H128640   7.277   4.661   1.651
 9561TIP3    H228641   7.247   4.589   1.781
 9562TIP3   OH228642   6.806   5.840   0.558
 9562TIP3    H128643   6.740   5.852   0.627
 9562TIP3    H228644   6.755   5.834   0.477
 9563TIP3   OH228645   6.708   1.764   1.866
 9563TIP3    H128646   6.771   1.722   1.807
 9563TIP3    H228647   6.751   1.763   1.951
 9564TIP3   OH228648   0.576   0.294   2.829
 9564TIP3    H128649   0.524   0.330   2.757
 9564TIP3    H228650   0.576   0.363   2.895
 9565TIP3   OH228651   1.545   7.575   6.130
 9565TIP3    H128652   1.617   7.515   6.114
 9565TIP3    H228653   1.518   7.557   6.220
 9566TIP3   OH228654   2.641   4.110   1.887
 9566TIP3    H128655   2.693   4.053   1.944
 9566TIP3    H228656   2.556   4.115   1.929
 9567TIP3   OH228657   4.298   1.385   2.293
 9567TIP3    H128658   4.313   1.475   2.321
 9567TIP3    H228659   4.334   1.331   2.363
 9568TIP3   OH228660   5.529   0.355   0.327
 9568TIP3    H128661   5.441   0.382   0.300
 9568TIP3    H228662   5.562   0.427   0.380
 9569TIP3   OH228663   7.440   5.594   0.273
 9569TIP3    H128664   7.408   5.677   0.237
 9569TIP3    H228665   7.514   5.571   0.217
 9570TIP3   OH228666   3.774   7.610   2.705
 9570TIP3    H128667   3.698   7.602   2.762
 9570TIP3    H228668   3.748   7.570   2.623
 9571TIP3   OH228669   5.037   2.018   4.176
 9571TIP3    H128670   5.091   1.999   4.253
 9571TIP3    H228671   4.947   2.021   4.210
 9572TIP3   OH228672   3.115   6.425   3.434
 9572TIP3    H128673   3.127   6.489   3.504
 9572TIP3    H228674   3.186   6.443   3.373
 9573TIP3   OH228675   1.387   6.123   0.748
 9573TIP3    H128676   1.293   6.106   0.750
 9573TIP3    H228677   1.396   6.213   0.779
 9574TIP3   OH228678   3.604   1.175   0.796
 9574TIP3    H128679   3.510   1.181   0.813
 9574TIP3    H228680   3.615   1.092   0.749
 9575TIP3   OH228681   0.423   6.155   2.105
 9575TIP3    H128682   0.511   6.172   2.137
 9575TIP3    H228683   0.366   6.185   2.176
 9576TIP3   OH228684   3.152   7.390   3.809
 9576TIP3    H128685   3.143   7.460   3.744
 9576TIP3    H228686   3.136   7.433   3.893
 9577TIP3   OH228687   4.183   3.684   5.918
 9577TIP3    H128688   4.121   3.669   5.847
 9577TIP3    H228689   4.181   3.779   5.932
 9578TIP3   OH228690   0.573   3.137   3.834
 9578TIP3    H128691   0.482   3.107   3.825
 9578TIP3    H228692   0.573   3.187   3.916
 9579TIP3   OH228693   0.209   5.983   0.994
 9579TIP3    H128694   0.141   5.923   1.026
 9579TIP3    H228695   0.213   5.966   0.900
 9580TIP3   OH228696   7.778   6.931   2.015
 9580TIP3    H128697   7.809   6.871   1.948
 9580TIP3    H228698   7.684   6.912   2.022
 9581TIP3   OH228699   7.192   7.577   2.151
 9581TIP3    H128700   7.154   7.489   2.151
 9581TIP3    H228701   7.183   7.607   2.242
 9582TIP3   OH228702   4.437   4.740   4.994
 9582TIP3    H128703   4.409   4.695   4.915
 9582TIP3    H228704   4.533   4.738   4.991
 9583TIP3   OH228705   3.928   0.245   0.268
 9583TIP3    H128706   3.974   0.237   0.351
 9583TIP3    H228707   3.853   0.301   0.287
 9584TIP3   OH228708   2.048   1.138   2.883
 9584TIP3    H128709   1.979   1.194   2.847
 9584TIP3    H228710   2.075   1.182   2.964
 9585TIP3   OH228711   5.809   6.204   4.247
 9585TIP3    H128712   5.874   6.212   4.178
 9585TIP3    H228713   5.738   6.264   4.221
 9586TIP3   OH228714   4.391   5.480   6.681
 9586TIP3    H128715   4.336   5.402   6.679
 9586TIP3    H228716   4.473   5.451   6.721
 9587TIP3   OH228717   3.694   5.935   1.287
 9587TIP3    H128718   3.679   5.854   1.237
 9587TIP3    H228719   3.789   5.937   1.299
 9588TIP3   OH228720   1.664   3.263   1.685
 9588TIP3    H128721   1.757   3.265   1.711
 9588TIP3    H228722   1.617   3.268   1.768
 9589TIP3   OH228723   6.978   5.762   5.871
 9589TIP3    H128724   7.001   5.854   5.881
 9589TIP3    H228725   7.038   5.715   5.929
 9590TIP3   OH228726   5.590   4.279   2.693
 9590TIP3    H128727   5.594   4.246   2.783
 9590TIP3    H228728   5.681   4.280   2.664
 9591TIP3   OH228729   2.003   7.654   5.413
 9591TIP3    H128730   1.949   7.641   5.491
 9591TIP3    H228731   2.034   7.744   5.420
 9592TIP3   OH228732   0.923   6.452   6.019
 9592TIP3    H128733   0.906   6.373   6.070
 9592TIP3    H228734   0.848   6.509   6.037
 9593TIP3   OH228735   0.452   0.081   4.201
 9593TIP3    H128736   0.452   0.047   4.111
 9593TIP3    H228737   0.401   0.018   4.251
 9594TIP3   OH228738   1.375   2.481   3.730
 9594TIP3    H128739   1.340   2.395   3.705
 9594TIP3    H228740   1.339   2.541   3.664
 9595TIP3   OH228741   5.473   5.686   6.730
 9595TIP3    H128742   5.450   5.766   6.683
 9595TIP3    H228743   5.409   5.622   6.700
 9596TIP3   OH228744   6.715   5.350   1.151
 9596TIP3    H128745   6.681   5.431   1.190
 9596TIP3    H228746   6.790   5.378   1.099
 9597TIP3   OH228747   7.370   5.323   1.740
 9597TIP3    H128748   7.437   5.377   1.782
 9597TIP3    H228749   7.342   5.375   1.664
 9598TIP3   OH228750   2.759   5.507   0.550
 9598TIP3    H128751   2.704   5.433   0.525
 9598TIP3    H228752   2.752   5.567   0.476
 9599TIP3   OH228753   5.492   3.436   4.179
 9599TIP3    H128754   5.545   3.503   4.223
 9599TIP3    H228755   5.480   3.368   4.246
 9600TIP3   OH228756   6.265   6.956   1.303
 9600TIP3    H128757   6.320   7.033   1.291
 9600TIP3    H228758   6.231   6.936   1.216
 9601TIP3   OH228759   5.998   5.726   3.892
 9601TIP3    H128760   6.041   5.641   3.900
 9601TIP3    H228761   5.941   5.731   3.969
 9602TIP3   OH228762   1.020   1.453   4.945
 9602TIP3    H128763   0.977   1.430   4.863
 9602TIP3    H228764   1.034   1.369   4.989
 9603TIP3   OH228765   1.930   3.204   5.208
 9603TIP3    H128766   1.985   3.235   5.280
 9603TIP3    H228767   1.921   3.280   5.150
 9604TIP3   OH228768   4.080   3.213   1.240
 9604TIP3    H128769   4.126   3.144   1.286
 9604TIP3    H228770   4.068   3.282   1.305
 9605TIP3   OH228771   1.175   6.997   2.925
 9605TIP3    H128772   1.151   6.906   2.941
 9605TIP3    H228773   1.187   7.003   2.830
 9606TIP3   OH228774   8.119   6.642   5.062
 9606TIP3    H128775   8.038   6.622   5.015
 9606TIP3    H228776   8.135   6.564   5.116
 9607TIP3   OH228777   2.584   6.383   6.769
 9607TIP3    H128778   2.624   6.353   6.688
 9607TIP3    H228779   2.615   6.322   6.835
 9608TIP3   OH228780   5.724   2.986   5.824
 9608TIP3    H128781   5.753   3.066   5.781
 9608TIP3    H228782   5.651   3.013   5.879
 9609TIP3   OH228783   4.915   4.974   2.082
 9609TIP3    H128784   4.999   4.928   2.084
 9609TIP3    H228785   4.908   5.015   2.168
 9610TIP3   OH228786   4.536   6.948   5.715
 9610TIP3    H128787   4.581   6.918   5.794
 9610TIP3    H228788   4.443   6.943   5.737
 9611TIP3   OH228789   2.906   3.540   2.680
 9611TIP3    H128790   2.813   3.560   2.672
 9611TIP3    H228791   2.914   3.495   2.765
 9612TIP3   OH228792   6.380   2.427   3.045
 9612TIP3    H128793   6.300   2.460   3.003
 9612TIP3    H228794   6.372   2.456   3.136
 9613TIP3   OH228795   6.897   4.019   4.964
 9613TIP3    H128796   6.921   4.112   4.970
 9613TIP3    H228797   6.859   3.999   5.050
 9614TIP3   OH228798   3.916   0.742   4.121
 9614TIP3    H128799   3.873   0.784   4.046
 9614TIP3    H228800   4.007   0.730   4.092
 9615TIP3   OH228801   5.579   0.983   0.610
 9615TIP3    H128802   5.617   0.937   0.684
 9615TIP3    H228803   5.644   0.977   0.541
 9616TIP3   OH228804   6.705   4.566   2.035
 9616TIP3    H128805   6.669   4.493   2.084
 9616TIP3    H228806   6.630   4.605   1.990
 9617TIP3   OH228807   6.937   6.890   6.644
 9617TIP3    H128808   6.949   6.985   6.641
 9617TIP3    H228809   6.843   6.877   6.653
 9618TIP3   OH228810   7.264   5.115   3.166
 9618TIP3    H128811   7.237   5.181   3.102
 9618TIP3    H228812   7.334   5.157   3.215
 9619TIP3   OH228813   7.846   5.740   5.746
 9619TIP3    H128814   7.792   5.683   5.800
 9619TIP3    H228815   7.928   5.748   5.795
 9620TIP3   OH228816   4.269   3.718   2.555
 9620TIP3    H128817   4.342   3.703   2.495
 9620TIP3    H228818   4.195   3.740   2.499
 9621TIP3   OH228819   2.762   6.115   1.118
 9621TIP3    H128820   2.851   6.103   1.150
 9621TIP3    H228821   2.748   6.041   1.058
 9622TIP3   OH228822   4.000   6.195   4.512
 9622TIP3    H128823   3.969   6.206   4.422
 9622TIP3    H228824   4.077   6.139   4.505
 9623TIP3   OH228825   7.907   2.362   5.266
 9623TIP3    H128826   7.924   2.389   5.176
 9623TIP3    H228827   7.924   2.268   5.267
 9624TIP3   OH228828   7.676   2.345   6.542
 9624TIP3    H128829   7.762   2.316   6.572
 9624TIP3    H228830   7.653   2.283   6.473
 9625TIP3   OH228831   1.482   1.429   6.102
 9625TIP3    H128832   1.521   1.351   6.060
 9625TIP3    H228833   1.486   1.496   6.034
 9626TIP3   OH228834   2.455   2.224   5.527
 9626TIP3    H128835   2.528   2.208   5.467
 9626TIP3    H228836   2.391   2.156   5.506
 9627TIP3   OH228837   3.989   5.571   0.388
 9627TIP3    H128838   4.021   5.504   0.328
 9627TIP3    H228839   4.032   5.651   0.359
 9628TIP3   OH228840   5.497   0.829   6.176
 9628TIP3    H128841   5.468   0.920   6.186
 9628TIP3    H228842   5.436   0.779   6.230
 9629TIP3   OH228843   7.940   1.139   4.358
 9629TIP3    H128844   7.999   1.180   4.421
 9629TIP3    H228845   7.940   1.199   4.282
 9630TIP3   OH228846   2.122   0.329   6.410
 9630TIP3    H128847   2.151   0.367   6.493
 9630TIP3    H228848   2.170   0.247   6.403
 9631TIP3   OH228849   3.585   7.221   4.580
 9631TIP3    H128850   3.661   7.167   4.560
 9631TIP3    H228851   3.533   7.169   4.641
 9632TIP3   OH228852   3.925   1.732   3.644
 9632TIP3    H128853   3.867   1.808   3.653
 9632TIP3    H228854   4.010   1.770   3.621
 9633TIP3   OH228855   3.371   4.255   4.278
 9633TIP3    H128856   3.322   4.201   4.217
 9633TIP3    H228857   3.348   4.221   4.364
 9634TIP3   OH228858   1.737   1.835   0.431
 9634TIP3    H128859   1.738   1.918   0.383
 9634TIP3    H228860   1.776   1.772   0.371
 9635TIP3   OH228861   2.448   1.473   1.893
 9635TIP3    H128862   2.377   1.412   1.873
 9635TIP3    H228863   2.459   1.467   1.988
 9636TIP3   OH228864   1.695   4.178   4.475
 9636TIP3    H128865   1.664   4.124   4.547
 9636TIP3    H228866   1.737   4.254   4.517
 9637TIP3   OH228867   0.850   4.868   0.896
 9637TIP3    H128868   0.792   4.917   0.838
 9637TIP3    H228869   0.825   4.895   0.984
 9638TIP3   OH228870   0.439   6.510   1.704
 9638TIP3    H128871   0.381   6.481   1.634
 9638TIP3    H228872   0.445   6.435   1.763
 9639TIP3   OH228873   7.999   5.843   3.333
 9639TIP3    H128874   8.001   5.769   3.394
 9639TIP3    H228875   7.946   5.813   3.260
 9640TIP3   OH228876   4.430   2.465   2.025
 9640TIP3    H128877   4.348   2.470   1.976
 9640TIP3    H228878   4.409   2.414   2.102
 9641TIP3   OH228879   3.041   4.777   3.836
 9641TIP3    H128880   3.063   4.684   3.836
 9641TIP3    H228881   2.945   4.779   3.832
 9642TIP3   OH228882   3.574   0.604   6.221
 9642TIP3    H128883   3.539   0.667   6.158
 9642TIP3    H228884   3.558   0.518   6.181
 9643TIP3   OH228885   5.155   3.929   0.566
 9643TIP3    H128886   5.178   3.926   0.474
 9643TIP3    H228887   5.068   3.889   0.571
 9644TIP3   OH228888   4.583   5.786   3.666
 9644TIP3    H128889   4.588   5.864   3.721
 9644TIP3    H228890   4.614   5.715   3.722
 9645TIP3   OH228891   8.327   7.774   3.919
 9645TIP3    H128892   8.317   7.759   3.825
 9645TIP3    H228893   8.239   7.770   3.954
 9646TIP3   OH228894   3.323   5.948   5.437
 9646TIP3    H128895   3.227   5.942   5.432
 9646TIP3    H228896   3.341   6.042   5.436
 9647TIP3   OH228897   2.292   2.815   1.554
 9647TIP3    H128898   2.286   2.894   1.502
 9647TIP3    H228899   2.325   2.748   1.493
 9648TIP3   OH228900   7.586   0.389   5.296
 9648TIP3    H128901   7.628   0.455   5.241
 9648TIP3    H228902   7.653   0.322   5.309
 9649TIP3   OH228903   5.126   2.469   5.663
 9649TIP3    H128904   5.202   2.497   5.612
 9649TIP3    H228905   5.050   2.502   5.615
 9650TIP3   OH228906   5.764   6.746   1.840
 9650TIP3    H128907   5.692   6.686   1.821
 9650TIP3    H228908   5.843   6.693   1.831
 9651TIP3   OH228909   3.124   7.805   0.900
 9651TIP3    H128910   3.113   7.832   0.809
 9651TIP3    H228911   3.190   7.735   0.896
 9652TIP3   OH228912   3.552   3.191   2.097
 9652TIP3    H128913   3.528   3.189   2.004
 9652TIP3    H228914   3.472   3.165   2.143
 9653TIP3   OH228915   4.201   5.673   2.304
 9653TIP3    H128916   4.117   5.664   2.350
 9653TIP3    H228917   4.222   5.766   2.310
 9654TIP3   OH228918   8.083   5.901   1.743
 9654TIP3    H128919   8.003   5.891   1.691
 9654TIP3    H228920   8.063   5.971   1.805
 9655TIP3   OH228921   5.540   1.539   0.404
 9655TIP3    H128922   5.577   1.450   0.408
 9655TIP3    H228923   5.613   1.594   0.377
 9656TIP3   OH228924   3.092   7.756   4.681
 9656TIP3    H128925   3.028   7.685   4.679
 9656TIP3    H228926   3.050   7.826   4.731
 9657TIP3   OH228927   1.706   6.797   0.980
 9657TIP3    H128928   1.736   6.712   1.011
 9657TIP3    H228929   1.689   6.785   0.887
 9658TIP3   OH228930   2.930   3.149   5.680
 9658TIP3    H128931   2.963   3.238   5.697
 9658TIP3    H228932   2.852   3.142   5.735
 9659TIP3   OH228933   4.575   3.763   1.903
 9659TIP3    H128934   4.548   3.671   1.899
 9659TIP3    H228935   4.671   3.760   1.900
 9660TIP3   OH228936   7.509   5.175   4.248
 9660TIP3    H128937   7.503   5.172   4.153
 9660TIP3    H228938   7.418   5.169   4.278
 9661TIP3   OH228939   3.004   3.095   1.640
 9661TIP3    H128940   2.970   3.161   1.580
 9661TIP3    H228941   2.934   3.030   1.646
 9662TIP3   OH228942   6.624   7.050   1.033
 9662TIP3    H128943   6.640   6.990   0.960
 9662TIP3    H228944   6.610   6.993   1.109
 9663TIP3   OH228945   4.035   0.546   0.520
 9663TIP3    H128946   4.068   0.467   0.562
 9663TIP3    H228947   4.101   0.568   0.454
 9664TIP3   OH228948   7.464   4.018   0.889
 9664TIP3    H128949   7.401   4.074   0.933
 9664TIP3    H228950   7.497   3.961   0.959
 9665TIP3   OH228951   5.031   2.248   0.565
 9665TIP3    H128952   5.011   2.167   0.516
 9665TIP3    H228953   5.110   2.226   0.614
 9666TIP3   OH228954   1.743   3.696   2.185
 9666TIP3    H128955   1.755   3.765   2.250
 9666TIP3    H228956   1.650   3.672   2.192
 9667TIP3   OH228957   3.517   3.473   2.304
 9667TIP3    H128958   3.474   3.518   2.376
 9667TIP3    H228959   3.569   3.405   2.345
 9668TIP3   OH228960   4.682   6.222   3.383
 9668TIP3    H128961   4.718   6.136   3.408
 9668TIP3    H228962   4.740   6.252   3.313
 9669TIP3   OH228963   0.640   6.654   2.200
 9669TIP3    H128964   0.555   6.622   2.229
 9669TIP3    H228965   0.630   6.749   2.196
 9670TIP3   OH228966   3.368   2.279   2.477
 9670TIP3    H128967   3.382   2.204   2.419
 9670TIP3    H228968   3.299   2.251   2.537
 9671TIP3   OH228969   4.062   6.639   4.734
 9671TIP3    H128970   4.119   6.627   4.810
 9671TIP3    H228971   4.089   6.571   4.672
 9672TIP3   OH228972   2.300   7.615   1.816
 9672TIP3    H128973   2.359   7.607   1.741
 9672TIP3    H228974   2.246   7.692   1.795
 9673TIP3   OH228975   1.507   4.554   6.321
 9673TIP3    H128976   1.557   4.516   6.393
 9673TIP3    H228977   1.498   4.647   6.344
 9674TIP3   OH228978   5.799   5.471   4.722
 9674TIP3    H128979   5.849   5.452   4.802
 9674TIP3    H228980   5.752   5.552   4.742
 9675TIP3   OH228981   6.019   1.117   3.196
 9675TIP3    H128982   6.001   1.096   3.288
 9675TIP3    H228983   6.094   1.062   3.173
 9676TIP3   OH228984   0.298   6.772   6.476
 9676TIP3    H128985   0.367   6.722   6.519
 9676TIP3    H228986   0.216   6.733   6.508
 9677TIP3   OH228987   2.862   7.257   5.433
 9677TIP3    H128988   2.786   7.235   5.487
 9677TIP3    H228989   2.829   7.319   5.368
 9678TIP3   OH228990   0.501   4.208   5.711
 9678TIP3    H128991   0.531   4.160   5.788
 9678TIP3    H228992   0.536   4.296   5.723
 9679TIP3   OH228993   7.398   2.021   2.972
 9679TIP3    H128994   7.472   2.011   3.031
 9679TIP3    H228995   7.420   1.967   2.896
 9680TIP3   OH228996   7.616   0.160   2.392
 9680TIP3    H128997   7.568   0.199   2.319
 9680TIP3    H228998   7.585   0.205   2.470
 9681TIP3   OH228999   4.524   0.531   6.709
 9681TIP3    H129000   4.533   0.437   6.695
 9681TIP3    H229001   4.604   0.568   6.671
 9682TIP3   OH229002   2.185   3.724   2.218
 9682TIP3    H129003   2.177   3.683   2.132
 9682TIP3    H229004   2.278   3.741   2.228
 9683TIP3   OH229005   0.963   4.380   4.567
 9683TIP3    H129006   0.984   4.386   4.474
 9683TIP3    H229007   0.913   4.299   4.575
 9684TIP3   OH229008   0.807   1.041   3.837
 9684TIP3    H129009   0.860   1.121   3.837
 9684TIP3    H229010   0.853   0.981   3.779
 9685TIP3   OH229011   5.903   6.010   2.670
 9685TIP3    H129012   5.939   5.993   2.757
 9685TIP3    H229013   5.849   5.934   2.651
 9686TIP3   OH229014   1.413   3.404   5.511
 9686TIP3    H129015   1.505   3.427   5.506
 9686TIP3    H229016   1.371   3.455   5.441
 9687TIP3   OH229017   5.081   6.223   5.555
 9687TIP3    H129018   5.024   6.287   5.598
 9687TIP3    H229019   5.115   6.169   5.626
 9688TIP3   OH229020   3.303   7.592   3.655
 9688TIP3    H129021   3.210   7.603   3.678
 9688TIP3    H229022   3.350   7.644   3.720
 9689TIP3   OH229023   0.799   4.684   1.605
 9689TIP3    H129024   0.704   4.679   1.618
 9689TIP3    H229025   0.828   4.593   1.600
 9690TIP3   OH229026   2.755   4.735   4.812
 9690TIP3    H129027   2.774   4.673   4.882
 9690TIP3    H229028   2.774   4.821   4.850
 9691TIP3   OH229029   6.303   1.493   6.325
 9691TIP3    H129030   6.338   1.533   6.245
 9691TIP3    H229031   6.374   1.437   6.357
 9692TIP3   OH229032   0.260   4.574   3.802
 9692TIP3    H129033   0.347   4.536   3.787
 9692TIP3    H229034   0.217   4.513   3.861
 9693TIP3   OH229035   1.677   5.990   1.706
 9693TIP3    H129036   1.710   6.057   1.766
 9693TIP3    H229037   1.686   6.029   1.619
 9694TIP3   OH229038   0.675   3.796   2.871
 9694TIP3    H129039   0.587   3.812   2.837
 9694TIP3    H229040   0.697   3.707   2.841
 9695TIP3   OH229041   3.770   1.205   0.575
 9695TIP3    H129042   3.699   1.220   0.638
 9695TIP3    H229043   3.726   1.169   0.498
 9696TIP3   OH229044   7.979   1.333   6.390
 9696TIP3    H129045   8.052   1.293   6.343
 9696TIP3    H229046   8.019   1.374   6.467
 9697TIP3   OH229047   1.732   4.085   6.219
 9697TIP3    H129048   1.722   4.121   6.307
 9697TIP3    H229049   1.823   4.057   6.214
 9698TIP3   OH229050   0.585   2.189   6.746
 9698TIP3    H129051   0.591   2.284   6.733
 9698TIP3    H229052   0.634   2.152   6.673
 9699TIP3   OH229053   2.895   4.202   0.525
 9699TIP3    H129054   2.858   4.136   0.584
 9699TIP3    H229055   2.834   4.276   0.531
 9700TIP3   OH229056   2.695   2.289   6.599
 9700TIP3    H129057   2.645   2.334   6.668
 9700TIP3    H229058   2.630   2.266   6.533
 9701TIP3   OH229059   4.065   5.551   1.652
 9701TIP3    H129060   4.082   5.630   1.705
 9701TIP3    H229061   4.021   5.584   1.574
 9702TIP3   OH229062   7.494   0.742   5.146
 9702TIP3    H129063   7.435   0.667   5.152
 9702TIP3    H229064   7.567   0.710   5.091
 9703TIP3   OH229065   2.694   7.037   0.315
 9703TIP3    H129066   2.699   6.942   0.311
 9703TIP3    H229067   2.601   7.056   0.318
 9704TIP3   OH229068   5.221   7.652   3.877
 9704TIP3    H129069   5.200   7.561   3.855
 9704TIP3    H229070   5.317   7.655   3.877
 9705TIP3   OH229071   0.864   3.667   6.463
 9705TIP3    H129072   0.832   3.622   6.385
 9705TIP3    H229073   0.950   3.701   6.437
 9706TIP3   OH229074   2.566   4.967   0.935
 9706TIP3    H129075   2.537   4.935   1.021
 9706TIP3    H229076   2.492   4.952   0.878
 9707TIP3   OH229077   7.054   4.770   4.404
 9707TIP3    H129078   7.110   4.839   4.439
 9707TIP3    H229079   6.966   4.809   4.403
 9708TIP3   OH229080   5.190   5.618   2.771
 9708TIP3    H129081   5.242   5.546   2.736
 9708TIP3    H229082   5.160   5.665   2.693
 9709TIP3   OH229083   3.921   3.698   0.179
 9709TIP3    H129084   3.912   3.605   0.195
 9709TIP3    H229085   3.976   3.730   0.250
 9710TIP3   OH229086   7.915   3.288   0.533
 9710TIP3    H129087   7.860   3.319   0.605
 9710TIP3    H229088   8.000   3.329   0.550
 9711TIP3   OH229089   3.417   5.051   5.360
 9711TIP3    H129090   3.441   4.969   5.404
 9711TIP3    H229091   3.364   5.098   5.424
 9712TIP3   OH229092   5.518   0.257   3.404
 9712TIP3    H129093   5.609   0.233   3.389
 9712TIP3    H229094   5.472   0.233   3.324
 9713TIP3   OH229095   7.407   2.625   0.027
 9713TIP3    H129096   7.403   2.721   0.028
 9713TIP3    H229097   7.497   2.604   0.052
 9714TIP3   OH229098   6.369   4.528   4.853
 9714TIP3    H129099   6.422   4.607   4.862
 9714TIP3    H229100   6.402   4.469   4.921
 9715TIP3   OH229101   2.724   5.813   3.644
 9715TIP3    H129102   2.810   5.780   3.619
 9715TIP3    H229103   2.678   5.737   3.679
 9716TIP3   OH229104   2.453   2.114   1.763
 9716TIP3    H129105   2.546   2.092   1.763
 9716TIP3    H229106   2.416   2.061   1.693
 9717TIP3   OH229107   8.145   7.724   4.142
 9717TIP3    H129108   8.110   7.638   4.117
 9717TIP3    H229109   8.233   7.705   4.176
 9718TIP3   OH229110   6.412   1.182   3.508
 9718TIP3    H129111   6.364   1.141   3.580
 9718TIP3    H229112   6.349   1.243   3.469
 9719TIP3   OH229113   5.279   2.855   5.245
 9719TIP3    H129114   5.340   2.784   5.263
 9719TIP3    H229115   5.331   2.935   5.256
 9720TIP3   OH229116   2.798   7.622   4.350
 9720TIP3    H129117   2.717   7.669   4.367
 9720TIP3    H229118   2.867   7.685   4.374
 9721TIP3   OH229119   4.695   3.216   5.268
 9721TIP3    H129120   4.729   3.169   5.192
 9721TIP3    H229121   4.632   3.155   5.307
 9722TIP3   OH229122   3.843   3.587   4.291
 9722TIP3    H129123   3.837   3.617   4.200
 9722TIP3    H229124   3.865   3.666   4.340
 9723TIP3   OH229125   1.138   3.173   3.253
 9723TIP3    H129126   1.165   3.089   3.216
 9723TIP3    H229127   1.058   3.153   3.301
 9724TIP3   OH229128   1.338   7.197   3.465
 9724TIP3    H129129   1.348   7.277   3.517
 9724TIP3    H229130   1.380   7.218   3.382
 9725TIP3   OH229131   7.480   5.339   4.945
 9725TIP3    H129132   7.450   5.350   5.035
 9725TIP3    H229133   7.465   5.424   4.904
 9726TIP3   OH229134   1.832   4.856   6.053
 9726TIP3    H129135   1.745   4.893   6.069
 9726TIP3    H229136   1.818   4.793   5.982
 9727TIP3   OH229137   1.784   7.130   3.699
 9727TIP3    H129138   1.744   7.171   3.775
 9727TIP3    H229139   1.712   7.111   3.640
 9728TIP3   OH229140   6.861   5.209   5.076
 9728TIP3    H129141   6.943   5.187   5.120
 9728TIP3    H229142   6.825   5.281   5.127
 9729TIP3   OH229143   0.190   1.872   4.665
 9729TIP3    H129144   0.243   1.892   4.743
 9729TIP3    H229145   0.166   1.957   4.630
 9730TIP3   OH229146   3.791   5.568   0.907
 9730TIP3    H129147   3.705   5.597   0.878
 9730TIP3    H229148   3.831   5.530   0.828
 9731TIP3   OH229149   5.324   0.122   2.927
 9731TIP3    H129150   5.278   0.177   2.864
 9731TIP3    H229151   5.350   0.044   2.878
 9732TIP3   OH229152   0.686   2.910   3.987
 9732TIP3    H129153   0.627   2.978   3.955
 9732TIP3    H229154   0.768   2.956   4.005
 9733TIP3   OH229155   0.813   7.614   2.728
 9733TIP3    H129156   0.769   7.658   2.655
 9733TIP3    H229157   0.891   7.667   2.744
 9734TIP3   OH229158   3.280   1.330   5.681
 9734TIP3    H129159   3.366   1.356   5.649
 9734TIP3    H229160   3.298   1.273   5.755
 9735TIP3   OH229161   2.840   4.603   5.037
 9735TIP3    H129162   2.901   4.626   5.107
 9735TIP3    H229163   2.767   4.560   5.082
 9736TIP3   OH229164   7.296   2.650   2.197
 9736TIP3    H129165   7.263   2.671   2.109
 9736TIP3    H229166   7.225   2.601   2.238
 9737TIP3   OH229167   5.334   4.444   6.270
 9737TIP3    H129168   5.334   4.420   6.363
 9737TIP3    H229169   5.410   4.502   6.260
 9738TIP3   OH229170   0.709   4.728   3.250
 9738TIP3    H129171   0.736   4.807   3.298
 9738TIP3    H229172   0.718   4.657   3.313
 9739TIP3   OH229173   2.003   7.238   6.381
 9739TIP3    H129174   2.044   7.164   6.337
 9739TIP3    H229175   2.029   7.314   6.328
 9740TIP3   OH229176   8.270   0.469   2.930
 9740TIP3    H129177   8.254   0.519   2.850
 9740TIP3    H229178   8.213   0.393   2.923
 9741TIP3   OH229179   6.573   3.052   4.842
 9741TIP3    H129180   6.491   3.073   4.887
 9741TIP3    H229181   6.559   3.078   4.751
 9742TIP3   OH229182   0.931   0.137   3.073
 9742TIP3    H129183   0.985   0.148   3.152
 9742TIP3    H229184   0.925   0.226   3.036
 9743TIP3   OH229185   6.493   7.134   0.130
 9743TIP3    H129186   6.544   7.067   0.085
 9743TIP3    H229187   6.558   7.189   0.173
 9744TIP3   OH229188   4.477   0.047   1.920
 9744TIP3    H129189   4.445   0.135   1.900
 9744TIP3    H229190   4.466  -0.002   1.839
 9745TIP3   OH229191   0.395   6.484   6.203
 9745TIP3    H129192   0.433   6.569   6.225
 9745TIP3    H229193   0.302   6.494   6.221
 9746TIP3   OH229194   3.412   2.449   2.185
 9746TIP3    H129195   3.361   2.417   2.260
 9746TIP3    H229196   3.503   2.441   2.213
 9747TIP3   OH229197   4.902   2.306   2.650
 9747TIP3    H129198   4.933   2.296   2.560
 9747TIP3    H229199   4.977   2.284   2.705
 9748TIP3   OH229200   3.770   4.653   6.594
 9748TIP3    H129201   3.800   4.698   6.515
 9748TIP3    H229202   3.828   4.683   6.663
 9749TIP3   OH229203   8.317   2.194   0.428
 9749TIP3    H129204   8.367   2.132   0.374
 9749TIP3    H229205   8.249   2.140   0.469
 9750TIP3   OH229206   4.325   7.178   2.153
 9750TIP3    H129207   4.399   7.213   2.103
 9750TIP3    H229208   4.285   7.256   2.193
 9751TIP3   OH229209   6.313   6.124   2.437
 9751TIP3    H129210   6.239   6.177   2.464
 9751TIP3    H229211   6.324   6.059   2.506
 9752TIP3   OH229212   5.315   0.631   6.257
 9752TIP3    H129213   5.282   0.643   6.168
 9752TIP3    H229214   5.253   0.677   6.312
 9753TIP3   OH229215   0.499   2.349   0.321
 9753TIP3    H129216   0.417   2.399   0.329
 9753TIP3    H229217   0.476   2.261   0.351
 9754TIP3   OH229218   2.337   1.104   1.541
 9754TIP3    H129219   2.365   1.013   1.549
 9754TIP3    H229220   2.417   1.152   1.522
 9755TIP3   OH229221   5.395   7.490   6.276
 9755TIP3    H129222   5.439   7.412   6.311
 9755TIP3    H229223   5.302   7.469   6.279
 9756TIP3   OH229224   6.661   6.577   2.954
 9756TIP3    H129225   6.632   6.647   3.012
 9756TIP3    H229226   6.647   6.611   2.866
 9757TIP3   OH229227   6.387   1.459   0.583
 9757TIP3    H129228   6.293   1.444   0.584
 9757TIP3    H229229   6.416   1.440   0.672
 9758TIP3   OH229230   0.977   6.879   0.558
 9758TIP3    H129231   0.985   6.783   0.558
 9758TIP3    H229232   0.915   6.897   0.629
 9759TIP3   OH229233   5.390   7.378   4.196
 9759TIP3    H129234   5.388   7.473   4.200
 9759TIP3    H229235   5.309   7.350   4.239
 9760TIP3   OH229236   7.483   6.741   1.032
 9760TIP3    H129237   7.406   6.732   1.088
 9760TIP3    H229238   7.457   6.806   0.966
 9761TIP3   OH229239   0.686   3.690   2.189
 9761TIP3    H129240   0.659   3.757   2.126
 9761TIP3    H229241   0.620   3.620   2.179
 9762TIP3   OH229242   6.952   7.715   2.022
 9762TIP3    H129243   6.969   7.711   2.116
 9762TIP3    H229244   7.036   7.695   1.982
 9763TIP3   OH229245   4.478   2.111   4.300
 9763TIP3    H129246   4.427   2.074   4.372
 9763TIP3    H229247   4.429   2.086   4.221
 9764TIP3   OH229248   3.018   1.340   1.817
 9764TIP3    H129249   2.980   1.329   1.729
 9764TIP3    H229250   3.088   1.275   1.821
 9765TIP3   OH229251   1.590   7.526   4.681
 9765TIP3    H129252   1.660   7.466   4.707
 9765TIP3    H229253   1.559   7.564   4.763
 9766TIP3   OH229254   5.976   1.782   0.602
 9766TIP3    H129255   5.935   1.834   0.670
 9766TIP3    H229256   6.060   1.756   0.638
 9767TIP3   OH229257   0.092   6.351   3.056
 9767TIP3    H129258   0.121   6.375   3.144
 9767TIP3    H229259   0.012   6.300   3.069
 9768TIP3   OH229260   6.481   7.736   4.140
 9768TIP3    H129261   6.569   7.773   4.140
 9768TIP3    H229262   6.423   7.812   4.152
 9769TIP3   OH229263   7.687   5.210   3.650
 9769TIP3    H129264   7.665   5.141   3.589
 9769TIP3    H229265   7.745   5.168   3.714
 9770TIP3   OH229266   4.690   6.228   1.948
 9770TIP3    H129267   4.714   6.224   2.041
 9770TIP3    H229268   4.611   6.283   1.946
 9771TIP3   OH229269   3.279   3.152   6.300
 9771TIP3    H129270   3.300   3.143   6.393
 9771TIP3    H229271   3.293   3.064   6.264
 9772TIP3   OH229272   5.459   7.213   2.142
 9772TIP3    H129273   5.423   7.166   2.067
 9772TIP3    H229274   5.521   7.152   2.181
 9773TIP3   OH229275   1.310   3.199   1.711
 9773TIP3    H129276   1.229   3.217   1.759
 9773TIP3    H229277   1.344   3.119   1.751
 9774TIP3   OH229278   2.673   2.096   2.279
 9774TIP3    H129279   2.711   2.150   2.210
 9774TIP3    H229280   2.722   2.013   2.274
 9775TIP3   OH229281   4.637   2.072   5.567
 9775TIP3    H129282   4.696   2.145   5.589
 9775TIP3    H229283   4.677   1.996   5.608
 9776TIP3   OH229284   7.701   4.621   2.022
 9776TIP3    H129285   7.704   4.671   2.103
 9776TIP3    H229286   7.683   4.686   1.954
 9777TIP3   OH229287   5.265   5.992   0.966
 9777TIP3    H129288   5.221   6.043   0.898
 9777TIP3    H229289   5.274   5.905   0.927
 9778TIP3   OH229290   6.574   7.060   3.209
 9778TIP3    H129291   6.512   7.097   3.147
 9778TIP3    H229292   6.624   7.135   3.242
 9779TIP3   OH229293   2.174   6.311   1.649
 9779TIP3    H129294   2.080   6.329   1.647
 9779TIP3    H229295   2.197   6.311   1.741
 9780TIP3   OH229296   3.201   6.621   1.562
 9780TIP3    H129297   3.129   6.618   1.498
 9780TIP3    H229298   3.191   6.540   1.612
 9781TIP3   OH229299   7.630   2.018   5.155
 9781TIP3    H129300   7.631   2.057   5.242
 9781TIP3    H229301   7.609   2.091   5.096
 9782TIP3   OH229302   0.514   6.285   5.392
 9782TIP3    H129303   0.456   6.356   5.364
 9782TIP3    H229304   0.469   6.205   5.367
 9783TIP3   OH229305   0.332   0.738   6.744
 9783TIP3    H129306   0.386   0.713   6.669
 9783TIP3    H229307   0.359   0.828   6.764
 9784TIP3   OH229308   0.354   5.680   4.662
 9784TIP3    H129309   0.375   5.744   4.729
 9784TIP3    H229310   0.262   5.697   4.640
 9785TIP3   OH229311   3.337   2.698   2.056
 9785TIP3    H129312   3.273   2.747   2.109
 9785TIP3    H229313   3.373   2.633   2.116
 9786TIP3   OH229314   4.004   3.688   5.283
 9786TIP3    H129315   3.943   3.761   5.296
 9786TIP3    H229316   3.953   3.624   5.233
 9787TIP3   OH229317   5.007   0.737   1.646
 9787TIP3    H129318   4.946   0.665   1.663
 9787TIP3    H229319   4.952   0.816   1.646
 9788TIP3   OH229320   3.641   5.435   4.127
 9788TIP3    H129321   3.674   5.367   4.068
 9788TIP3    H229322   3.588   5.386   4.191
 9789TIP3   OH229323   3.052   2.735   6.119
 9789TIP3    H129324   3.066   2.675   6.046
 9789TIP3    H229325   2.958   2.751   6.119
 9790TIP3   OH229326   6.509   1.546   4.715
 9790TIP3    H129327   6.533   1.629   4.756
 9790TIP3    H229328   6.583   1.525   4.658
 9791TIP3   OH229329   5.113   3.563   0.299
 9791TIP3    H129330   5.068   3.493   0.346
 9791TIP3    H229331   5.185   3.589   0.357
 9792TIP3   OH229332   4.172   7.332   1.893
 9792TIP3    H129333   4.225   7.375   1.826
 9792TIP3    H229334   4.172   7.394   1.966
 9793TIP3   OH229335   0.881   1.162   1.905
 9793TIP3    H129336   0.913   1.166   1.815
 9793TIP3    H229337   0.886   1.069   1.928
 9794TIP3   OH229338   6.515   3.257   1.880
 9794TIP3    H129339   6.421   3.253   1.859
 9794TIP3    H229340   6.557   3.279   1.797
 9795TIP3   OH229341   2.434   6.282   6.373
 9795TIP3    H129342   2.422   6.306   6.282
 9795TIP3    H229343   2.350   6.305   6.415
 9796TIP3   OH229344   5.765   4.077   6.110
 9796TIP3    H129345   5.712   4.145   6.153
 9796TIP3    H229346   5.704   4.034   6.049
 9797TIP3   OH229347   5.096   1.776   0.449
 9797TIP3    H129348   5.164   1.790   0.384
 9797TIP3    H229349   5.029   1.725   0.404
 9798TIP3   OH229350   7.276   3.209   5.050
 9798TIP3    H129351   7.299   3.290   5.004
 9798TIP3    H229352   7.218   3.162   4.989
 9799TIP3   OH229353   0.945   3.733   2.253
 9799TIP3    H129354   0.980   3.816   2.219
 9799TIP3    H229355   0.853   3.733   2.226
 9800TIP3   OH229356   1.155   6.351   5.859
 9800TIP3    H129357   1.094   6.401   5.912
 9800TIP3    H229358   1.164   6.268   5.905
 9801TIP3   OH229359   2.803   4.053   0.791
 9801TIP3    H129360   2.847   4.129   0.827
 9801TIP3    H229361   2.846   3.978   0.831
 9802TIP3   OH229362   0.349   7.382   2.220
 9802TIP3    H129363   0.288   7.325   2.266
 9802TIP3    H229364   0.316   7.385   2.130
 9803TIP3   OH229365   6.728   3.573   1.742
 9803TIP3    H129366   6.685   3.494   1.710
 9803TIP3    H229367   6.656   3.632   1.764
 9804TIP3   OH229368   7.523   5.834   2.753
 9804TIP3    H129369   7.455   5.861   2.691
 9804TIP3    H229370   7.481   5.763   2.803
 9805TIP3   OH229371   4.178   0.070   0.695
 9805TIP3    H129372   4.252   0.009   0.696
 9805TIP3    H229373   4.112   0.027   0.749
 9806TIP3   OH229374   5.325   2.998   3.397
 9806TIP3    H129375   5.380   2.928   3.431
 9806TIP3    H229376   5.374   3.034   3.324
 9807TIP3   OH229377   6.694   5.614   5.962
 9807TIP3    H129378   6.743   5.538   5.993
 9807TIP3    H229379   6.645   5.582   5.887
 9808TIP3   OH229380   3.714   0.625   1.152
 9808TIP3    H129381   3.753   0.626   1.240
 9808TIP3    H229382   3.778   0.671   1.098
 9809TIP3   OH229383   5.261   0.867   0.917
 9809TIP3    H129384   5.318   0.900   0.987
 9809TIP3    H229385   5.175   0.860   0.957
 9810TIP3   OH229386   1.640   0.106   0.749
 9810TIP3    H129387   1.610   0.084   0.661
 9810TIP3    H229388   1.689   0.029   0.778
 9811TIP3   OH229389   5.072   3.061   6.562
 9811TIP3    H129390   5.147   3.048   6.620
 9811TIP3    H229391   5.006   3.102   6.617
 9812TIP3   OH229392   0.687   4.534   6.136
 9812TIP3    H129393   0.694   4.630   6.139
 9812TIP3    H229394   0.640   4.511   6.216
 9813TIP3   OH229395   2.726   1.010   5.728
 9813TIP3    H129396   2.677   1.091   5.742
 9813TIP3    H229397   2.676   0.943   5.774
 9814TIP3   OH229398   0.408   4.371   4.120
 9814TIP3    H129399   0.439   4.415   4.041
 9814TIP3    H229400   0.485   4.363   4.175
 9815TIP3   OH229401   0.878   2.780   0.840
 9815TIP3    H129402   0.912   2.811   0.924
 9815TIP3    H229403   0.933   2.825   0.775
 9816TIP3   OH229404   3.145   2.298   3.807
 9816TIP3    H129405   3.212   2.307   3.739
 9816TIP3    H229406   3.144   2.205   3.827
 9817TIP3   OH229407   0.920   5.235   1.966
 9817TIP3    H129408   0.860   5.218   2.039
 9817TIP3    H229409   0.954   5.323   1.984
 9818TIP3   OH229410   2.347   6.768   5.746
 9818TIP3    H129411   2.251   6.768   5.739
 9818TIP3    H229412   2.377   6.799   5.660
 9819TIP3   OH229413   6.150   5.773   2.520
 9819TIP3    H129414   6.127   5.700   2.462
 9819TIP3    H229415   6.100   5.847   2.486
 9820TIP3   OH229416   6.353   6.443   1.837
 9820TIP3    H129417   6.349   6.528   1.882
 9820TIP3    H229418   6.270   6.401   1.858
 9821TIP3   OH229419   7.008   0.981   0.933
 9821TIP3    H129420   6.933   0.930   0.963
 9821TIP3    H229421   7.013   0.964   0.839
 9822TIP3   OH229422   1.704   5.293   2.918
 9822TIP3    H129423   1.654   5.243   2.853
 9822TIP3    H229424   1.714   5.233   2.992
 9823TIP3   OH229425   3.609   2.239   4.670
 9823TIP3    H129426   3.664   2.161   4.684
 9823TIP3    H229427   3.605   2.249   4.575
 9824TIP3   OH229428   1.289   1.631   1.050
 9824TIP3    H129429   1.348   1.615   0.977
 9824TIP3    H229430   1.345   1.625   1.128
 9825TIP3   OH229431   1.736   6.109   1.966
 9825TIP3    H129432   1.679   6.185   1.975
 9825TIP3    H229433   1.757   6.084   2.056
 9826TIP3   OH229434   3.097   6.658   1.903
 9826TIP3    H129435   3.079   6.749   1.927
 9826TIP3    H229436   3.119   6.662   1.810
 9827TIP3   OH229437   2.951   5.414   6.158
 9827TIP3    H129438   3.024   5.351   6.164
 9827TIP3    H229439   2.878   5.362   6.125
 9828TIP3   OH229440   3.603   6.191   0.903
 9828TIP3    H129441   3.522   6.140   0.894
 9828TIP3    H229442   3.673   6.128   0.884
 9829TIP3   OH229443   2.475   6.184   3.433
 9829TIP3    H129444   2.473   6.118   3.502
 9829TIP3    H229445   2.568   6.206   3.423
 9830TIP3   OH229446   0.408   1.946   5.647
 9830TIP3    H129447   0.402   1.983   5.559
 9830TIP3    H229448   0.491   1.979   5.681
 9831TIP3   OH229449   6.711   4.727   2.259
 9831TIP3    H129450   6.731   4.707   2.168
 9831TIP3    H229451   6.730   4.646   2.306
 9832TIP3   OH229452   0.532   3.669   1.161
 9832TIP3    H129453   0.437   3.674   1.149
 9832TIP3    H229454   0.567   3.662   1.072
 9833TIP3   OH229455   1.928   3.625   1.978
 9833TIP3    H129456   1.966   3.705   1.943
 9833TIP3    H229457   1.839   3.649   2.003
 9834TIP3   OH229458   5.350   1.005   5.020
 9834TIP3    H129459   5.339   1.069   4.949
 9834TIP3    H229460   5.390   1.056   5.091
 9835TIP3   OH229461   0.347   2.041   6.692
 9835TIP3    H129462   0.341   1.946   6.700
 9835TIP3    H229463   0.434   2.063   6.725
 9836TIP3   OH229464   3.266   3.684   6.499
 9836TIP3    H129465   3.270   3.612   6.436
 9836TIP3    H229466   3.347   3.677   6.549
 9837TIP3   OH229467   1.228   6.146   2.423
 9837TIP3    H129468   1.137   6.116   2.418
 9837TIP3    H229469   1.251   6.165   2.332
 9838TIP3   OH229470   1.480   2.044   3.120
 9838TIP3    H129471   1.570   2.054   3.152
 9838TIP3    H229472   1.450   1.961   3.157
 9839TIP3   OH229473   8.182   1.262   5.600
 9839TIP3    H129474   8.208   1.295   5.514
 9839TIP3    H229475   8.183   1.339   5.656
 9840TIP3   OH229476   8.208   1.494   3.264
 9840TIP3    H129477   8.122   1.465   3.296
 9840TIP3    H229478   8.198   1.496   3.169
 9841TIP3   OH229479   2.896   2.059   4.804
 9841TIP3    H129480   2.829   2.127   4.793
 9841TIP3    H229481   2.954   2.093   4.872
 9842TIP3   OH229482   6.778   1.131   5.725
 9842TIP3    H129483   6.788   1.225   5.716
 9842TIP3    H229484   6.823   1.095   5.648
 9843TIP3   OH229485   4.392   7.434   3.044
 9843TIP3    H129486   4.370   7.453   2.953
 9843TIP3    H229487   4.482   7.464   3.054
 9844TIP3   OH229488   1.557   6.972   2.753
 9844TIP3    H129489   1.485   7.020   2.713
 9844TIP3    H229490   1.556   6.997   2.845
 9845TIP3   OH229491   8.188   3.104   1.050
 9845TIP3    H129492   8.257   3.123   0.986
 9845TIP3    H229493   8.206   3.163   1.123
 9846TIP3   OH229494   8.024   5.296   3.983
 9846TIP3    H129495   8.112   5.273   3.952
 9846TIP3    H229496   8.039   5.370   4.041
 9847TIP3   OH229497   3.828   0.601   6.301
 9847TIP3    H129498   3.876   0.662   6.245
 9847TIP3    H229499   3.741   0.595   6.260
 9848TIP3   OH229500   5.066   6.600   5.989
 9848TIP3    H129501   5.129   6.568   5.924
 9848TIP3    H229502   5.046   6.524   6.043
 9849TIP3   OH229503   7.301   3.252   0.995
 9849TIP3    H129504   7.329   3.335   0.955
 9849TIP3    H229505   7.283   3.275   1.086
 9850TIP3   OH229506   2.500   5.417   5.781
 9850TIP3    H129507   2.572   5.420   5.718
 9850TIP3    H229508   2.423   5.397   5.728
 9851TIP3   OH229509   1.237   6.721   2.625
 9851TIP3    H129510   1.223   6.627   2.615
 9851TIP3    H229511   1.187   6.744   2.703
 9852TIP3   OH229512   7.398   4.313   1.501
 9852TIP3    H129513   7.338   4.279   1.567
 9852TIP3    H229514   7.465   4.359   1.552
 9853TIP3   OH229515   7.028   3.387   2.143
 9853TIP3    H129516   7.096   3.322   2.128
 9853TIP3    H229517   6.947   3.343   2.115
 9854TIP3   OH229518   2.580   6.312   2.154
 9854TIP3    H129519   2.630   6.267   2.086
 9854TIP3    H229520   2.646   6.349   2.212
 9855TIP3   OH229521   1.127   1.659   2.582
 9855TIP3    H129522   1.076   1.594   2.535
 9855TIP3    H229523   1.195   1.609   2.626
 9856TIP3   OH229524   1.426   2.342   4.103
 9856TIP3    H129525   1.477   2.357   4.023
 9856TIP3    H229526   1.480   2.379   4.173
 9857TIP3   OH229527   2.081   1.823   5.983
 9857TIP3    H129528   2.063   1.730   5.999
 9857TIP3    H229529   1.999   1.867   6.008
 9858TIP3   OH229530   1.501   0.053   6.717
 9858TIP3    H129531   1.564   0.124   6.733
 9858TIP3    H229532   1.456   0.080   6.636
 9859TIP3   OH229533   6.987   1.901   4.993
 9859TIP3    H129534   6.979   1.994   5.011
 9859TIP3    H229535   6.943   1.858   5.066
 9860TIP3   OH229536   7.360   4.090   2.312
 9860TIP3    H129537   7.332   4.083   2.403
 9860TIP3    H229538   7.344   4.003   2.275
 9861TIP3   OH229539   2.470   2.795   1.212
 9861TIP3    H129540   2.380   2.768   1.197
 9861TIP3    H229541   2.509   2.800   1.125
 9862TIP3   OH229542   5.142   3.105   3.571
 9862TIP3    H129543   5.218   3.067   3.526
 9862TIP3    H229544   5.098   3.157   3.504
 9863TIP3   OH229545   4.916   3.895   5.988
 9863TIP3    H129546   4.923   3.845   5.906
 9863TIP3    H229547   4.825   3.886   6.014
 9864TIP3   OH229548   7.410   4.702   2.925
 9864TIP3    H129549   7.459   4.657   2.856
 9864TIP3    H229550   7.332   4.735   2.881
 9865TIP3   OH229551   7.252   7.158   5.705
 9865TIP3    H129552   7.256   7.224   5.774
 9865TIP3    H229553   7.343   7.129   5.695
 9866TIP3   OH229554   1.691   2.170   0.862
 9866TIP3    H129555   1.675   2.090   0.812
 9866TIP3    H229556   1.778   2.157   0.901
 9867TIP3   OH229557   4.038   6.181   4.800
 9867TIP3    H129558   4.079   6.265   4.821
 9867TIP3    H229559   4.024   6.184   4.705
 9868TIP3   OH229560   6.216   3.791   4.651
 9868TIP3    H129561   6.265   3.792   4.569
 9868TIP3    H229562   6.217   3.700   4.680
 9869TIP3   OH229563   7.833   3.766   3.087
 9869TIP3    H129564   7.799   3.853   3.066
 9869TIP3    H229565   7.901   3.750   3.022
 9870TIP3   OH229566   2.778   0.980   4.222
 9870TIP3    H129567   2.793   1.069   4.253
 9870TIP3    H229568   2.836   0.925   4.275
 9871TIP3   OH229569   2.954   6.463   0.916
 9871TIP3    H129570   3.038   6.467   0.870
 9871TIP3    H229571   2.976   6.426   1.002
 9872TIP3   OH229572   1.095   2.739   0.391
 9872TIP3    H129573   1.147   2.806   0.348
 9872TIP3    H229574   1.035   2.708   0.323
 9873TIP3   OH229575   4.930   6.450   1.173
 9873TIP3    H129576   4.972   6.523   1.219
 9873TIP3    H229577   4.988   6.375   1.190
 9874TIP3   OH229578   0.719   5.027   5.651
 9874TIP3    H129579   0.750   5.092   5.714
 9874TIP3    H229580   0.749   4.943   5.687
 9875TIP3   OH229581   2.553   3.667   6.177
 9875TIP3    H129582   2.609   3.676   6.254
 9875TIP3    H229583   2.534   3.757   6.151
 9876TIP3   OH229584   4.925   6.241   3.187
 9876TIP3    H129585   4.947   6.183   3.114
 9876TIP3    H229586   4.982   6.211   3.259
 9877TIP3   OH229587   3.542   7.016   1.028
 9877TIP3    H129588   3.494   6.935   1.013
 9877TIP3    H229589   3.573   7.011   1.118
 9878TIP3   OH229590   7.026   1.837   4.209
 9878TIP3    H129591   7.099   1.894   4.183
 9878TIP3    H229592   6.988   1.807   4.126
 9879TIP3   OH229593   0.981   0.713   5.770
 9879TIP3    H129594   1.009   0.622   5.760
 9879TIP3    H229595   0.961   0.742   5.681
 9880TIP3   OH229596   6.229   3.723   2.533
 9880TIP3    H129597   6.307   3.676   2.561
 9880TIP3    H229598   6.234   3.722   2.437
 9881TIP3   OH229599   1.092   4.829   4.574
 9881TIP3    H129600   1.087   4.923   4.591
 9881TIP3    H229601   1.155   4.822   4.502
 9882TIP3   OH229602   3.342   2.428   4.619
 9882TIP3    H129603   3.357   2.483   4.543
 9882TIP3    H229604   3.312   2.345   4.583
 9883TIP3   OH229605   2.722   4.892   5.149
 9883TIP3    H129606   2.742   4.969   5.202
 9883TIP3    H229607   2.656   4.845   5.199
 9884TIP3   OH229608   4.108   0.279   4.182
 9884TIP3    H129609   4.154   0.363   4.192
 9884TIP3    H229610   4.135   0.228   4.258
 9885TIP3   OH229611   0.915   1.306   0.867
 9885TIP3    H129612   0.827   1.322   0.831
 9885TIP3    H229613   0.926   1.372   0.935
 9886TIP3   OH229614   0.424   3.057   5.729
 9886TIP3    H129615   0.377   2.974   5.728
 9886TIP3    H229616   0.481   3.054   5.652
 9887TIP3   OH229617   3.732   6.182   2.151
 9887TIP3    H129618   3.788   6.186   2.229
 9887TIP3    H229619   3.720   6.274   2.126
 9888TIP3   OH229620   0.733   6.218   3.533
 9888TIP3    H129621   0.649   6.198   3.490
 9888TIP3    H229622   0.735   6.159   3.609
 9889TIP3   OH229623   3.850   4.537   0.542
 9889TIP3    H129624   3.821   4.483   0.469
 9889TIP3    H229625   3.806   4.500   0.618
 9890TIP3   OH229626   7.461   3.239   0.255
 9890TIP3    H129627   7.487   3.328   0.279
 9890TIP3    H229628   7.490   3.229   0.164
 9891TIP3   OH229629   7.093   3.683   2.892
 9891TIP3    H129630   7.140   3.641   2.963
 9891TIP3    H229631   7.155   3.684   2.819
 9892TIP3   OH229632   7.126   6.329   0.951
 9892TIP3    H129633   7.081   6.379   1.019
 9892TIP3    H229634   7.082   6.354   0.869
 9893TIP3   OH229635   5.323   6.167   4.838
 9893TIP3    H129636   5.258   6.210   4.893
 9893TIP3    H229637   5.407   6.196   4.872
 9894TIP3   OH229638   6.041   6.736   0.058
 9894TIP3    H129639   5.969   6.794   0.034
 9894TIP3    H229640   6.095   6.787   0.118
 9895TIP3   OH229641   2.249   1.393   5.095
 9895TIP3    H129642   2.279   1.309   5.063
 9895TIP3    H229643   2.319   1.423   5.154
 9896TIP3   OH229644   0.846   5.169   6.301
 9896TIP3    H129645   0.801   5.136   6.224
 9896TIP3    H229646   0.884   5.091   6.342
 9897TIP3   OH229647   4.274   3.748   6.728
 9897TIP3    H129648   4.344   3.691   6.760
 9897TIP3    H229649   4.243   3.794   6.806
 9898TIP3   OH229650   1.742   4.471   1.269
 9898TIP3    H129651   1.689   4.523   1.209
 9898TIP3    H229652   1.689   4.394   1.288
 9899TIP3   OH229653   2.266   1.936   4.093
 9899TIP3    H129654   2.274   1.932   3.998
 9899TIP3    H229655   2.214   1.859   4.117
 9900TIP3   OH229656   2.328   4.960   3.965
 9900TIP3    H129657   2.390   4.982   3.895
 9900TIP3    H229658   2.377   4.979   4.046
 9901TIP3   OH229659   5.364   3.317   3.529
 9901TIP3    H129660   5.403   3.230   3.520
 9901TIP3    H229661   5.333   3.340   3.442
 9902TIP3   OH229662   0.605   4.060   1.210
 9902TIP3    H129663   0.629   4.000   1.280
 9902TIP3    H229664   0.601   4.005   1.131
 9903TIP3   OH229665   7.371   1.867   5.145
 9903TIP3    H129666   7.379   1.892   5.053
 9903TIP3    H229667   7.447   1.907   5.188
 9904TIP3   OH229668   5.982   1.475   2.144
 9904TIP3    H129669   5.966   1.381   2.144
 9904TIP3    H229670   6.078   1.483   2.152
 9905TIP3   OH229671   1.168   7.510   5.321
 9905TIP3    H129672   1.227   7.584   5.334
 9905TIP3    H229673   1.137   7.489   5.409
 9906TIP3   OH229674   4.401   3.511   4.129
 9906TIP3    H129675   4.478   3.557   4.162
 9906TIP3    H229676   4.407   3.423   4.167
 9907TIP3   OH229677   0.301   1.648   2.315
 9907TIP3    H129678   0.284   1.718   2.252
 9907TIP3    H229679   0.396   1.642   2.320
 9908TIP3   OH229680   4.862   6.813   3.629
 9908TIP3    H129681   4.949   6.850   3.646
 9908TIP3    H229682   4.853   6.817   3.534
 9909TIP3   OH229683   5.476   3.662   3.952
 9909TIP3    H129684   5.435   3.740   3.913
 9909TIP3    H229685   5.567   3.666   3.922
 9910TIP3   OH229686   5.738   6.482   4.982
 9910TIP3    H129687   5.691   6.565   4.984
 9910TIP3    H229688   5.830   6.507   4.983
 9911TIP3   OH229689   2.734   5.033   3.158
 9911TIP3    H129690   2.708   5.116   3.197
 9911TIP3    H229691   2.802   4.999   3.216
 9912TIP3   OH229692   8.209   4.589   6.625
 9912TIP3    H129693   8.285   4.531   6.618
 9912TIP3    H229694   8.234   4.652   6.694
 9913TIP3   OH229695   1.011   7.114   0.424
 9913TIP3    H129696   0.917   7.100   0.425
 9913TIP3    H229697   1.047   7.043   0.477
 9914TIP3   OH229698   0.863   4.541   0.354
 9914TIP3    H129699   0.942   4.566   0.402
 9914TIP3    H229700   0.891   4.471   0.296
 9915TIP3   OH229701   3.536   5.228   5.719
 9915TIP3    H129702   3.537   5.234   5.814
 9915TIP3    H229703   3.575   5.142   5.700
 9916TIP3   OH229704   1.834   2.906   6.089
 9916TIP3    H129705   1.853   2.812   6.086
 9916TIP3    H229706   1.805   2.928   6.000
 9917TIP3   OH229707   8.116   3.105   6.731
 9917TIP3    H129708   8.123   3.030   6.790
 9917TIP3    H229709   8.201   3.149   6.738
 9918TIP3   OH229710   0.124   2.195   6.661
 9918TIP3    H129711   0.101   2.182   6.569
 9918TIP3    H229712   0.211   2.156   6.670
 9919TIP3   OH229713   3.813   0.147   4.689
 9919TIP3    H129714   3.876   0.136   4.761
 9919TIP3    H229715   3.799   0.241   4.684
 9920TIP3   OH229716   6.374   3.650   5.824
 9920TIP3    H129717   6.310   3.580   5.838
 9920TIP3    H229718   6.347   3.719   5.885
 9921TIP3   OH229719   4.589   7.297   6.028
 9921TIP3    H129720   4.625   7.324   5.943
 9921TIP3    H229721   4.626   7.359   6.090
 9922TIP3   OH229722   6.072   6.730   6.388
 9922TIP3    H129723   6.008   6.800   6.376
 9922TIP3    H229724   6.150   6.760   6.341
 9923TIP3   OH229725   3.380   4.304   6.272
 9923TIP3    H129726   3.459   4.358   6.270
 9923TIP3    H229727   3.309   4.364   6.247
 9924TIP3   OH229728   3.550   5.447   2.553
 9924TIP3    H129729   3.514   5.364   2.523
 9924TIP3    H229730   3.489   5.478   2.620
 9925TIP3   OH229731   6.765   3.057   6.381
 9925TIP3    H129732   6.686   3.058   6.327
 9925TIP3    H229733   6.749   3.123   6.449
 9926TIP3   OH229734   3.491   6.692   0.186
 9926TIP3    H129735   3.554   6.656   0.124
 9926TIP3    H229736   3.443   6.758   0.136
 9927TIP3   OH229737   0.015   0.187   5.054
 9927TIP3    H129738   0.041   0.189   4.962
 9927TIP3    H229739   0.052   0.106   5.088
 9928TIP3   OH229740   2.067   2.344   6.251
 9928TIP3    H129741   1.983   2.303   6.271
 9928TIP3    H229742   2.069   2.348   6.155
 9929TIP3   OH229743   3.382   4.300   0.747
 9929TIP3    H129744   3.294   4.327   0.717
 9929TIP3    H229745   3.436   4.378   0.733
 9930TIP3   OH229746   7.354   5.805   6.456
 9930TIP3    H129747   7.364   5.899   6.441
 9930TIP3    H229748   7.356   5.766   6.368
 9931TIP3   OH229749   6.477   0.504   3.310
 9931TIP3    H129750   6.573   0.510   3.311
 9931TIP3    H229751   6.455   0.501   3.217
 9932TIP3   OH229752   6.383   7.723   2.735
 9932TIP3    H129753   6.408   7.723   2.828
 9932TIP3    H229754   6.356   7.632   2.717
 9933TIP3   OH229755   5.693   0.138   4.140
 9933TIP3    H129756   5.657   0.052   4.121
 9933TIP3    H229757   5.690   0.184   4.056
 9934TIP3   OH229758   5.467   3.084   3.173
 9934TIP3    H129759   5.538   3.147   3.158
 9934TIP3    H229760   5.487   3.012   3.112
 9935TIP3   OH229761   6.180   3.976   5.007
 9935TIP3    H129762   6.164   4.036   4.934
 9935TIP3    H229763   6.178   4.032   5.084
 9936TIP3   OH229764   2.523   5.904   4.645
 9936TIP3    H129765   2.457   5.852   4.598
 9936TIP3    H229766   2.511   5.878   4.737
 9937TIP3   OH229767   0.645   7.381   2.217
 9937TIP3    H129768   0.550   7.388   2.205
 9937TIP3    H229769   0.675   7.329   2.142
 9938TIP3   OH229770   4.052   4.068   1.991
 9938TIP3    H129771   3.989   4.087   2.061
 9938TIP3    H229772   4.133   4.049   2.037
 9939TIP3   OH229773   4.863   4.233   4.712
 9939TIP3    H129774   4.801   4.244   4.784
 9939TIP3    H229775   4.909   4.317   4.707
 9940TIP3   OH229776   7.725   3.395   2.429
 9940TIP3    H129777   7.802   3.338   2.436
 9940TIP3    H229778   7.731   3.452   2.506
 9941TIP3   OH229779   2.941   3.946   5.959
 9941TIP3    H129780   3.027   3.988   5.964
 9941TIP3    H229781   2.926   3.935   5.865
 9942TIP3   OH229782   3.793   6.156   3.670
 9942TIP3    H129783   3.827   6.126   3.754
 9942TIP3    H229784   3.871   6.173   3.617
 9943TIP3   OH229785   1.524   2.863   4.318
 9943TIP3    H129786   1.611   2.862   4.279
 9943TIP3    H229787   1.490   2.950   4.297
 9944TIP3   OH229788   6.155   0.909   4.995
 9944TIP3    H129789   6.140   0.818   4.970
 9944TIP3    H229790   6.111   0.960   4.927
 9945TIP3   OH229791   2.420   4.856   2.493
 9945TIP3    H129792   2.444   4.811   2.412
 9945TIP3    H229793   2.327   4.876   2.483
 9946TIP3   OH229794   0.649  -0.002   2.085
 9946TIP3    H129795   0.566   0.007   2.039
 9946TIP3    H229796   0.674   0.088   2.107
 9947TIP3   OH229797   8.162   4.790   5.450
 9947TIP3    H129798   8.165   4.775   5.355
 9947TIP3    H229799   8.160   4.702   5.488
 9948TIP3   OH229800   7.344   2.040   1.561
 9948TIP3    H129801   7.386   1.956   1.545
 9948TIP3    H229802   7.268   2.041   1.503
 9949TIP3   OH229803   1.649   7.362   1.868
 9949TIP3    H129804   1.710   7.407   1.810
 9949TIP3    H229805   1.603   7.432   1.914
 9950TIP3   OH229806   1.203   3.220   3.943
 9950TIP3    H129807   1.110   3.223   3.968
 9950TIP3    H229808   1.248   3.269   4.011
 9951TIP3   OH229809   8.257   7.153   4.507
 9951TIP3    H129810   8.235   7.130   4.417
 9951TIP3    H229811   8.303   7.237   4.500
 9952TIP3   OH229812   8.010   1.938   1.037
 9952TIP3    H129813   7.976   1.852   1.012
 9952TIP3    H229814   7.980   1.997   0.967
 9953TIP3   OH229815   1.951   2.188   5.034
 9953TIP3    H129816   2.014   2.245   4.989
 9953TIP3    H229817   1.945   2.226   5.122
 9954TIP3   OH229818   1.273   1.005   3.480
 9954TIP3    H129819   1.302   0.999   3.389
 9954TIP3    H229820   1.355   1.009   3.531
 9955TIP3   OH229821   0.193   1.433   2.981
 9955TIP3    H129822   0.224   1.378   3.053
 9955TIP3    H229823   0.097   1.429   2.987
 9956TIP3   OH229824   0.633   3.903   0.970
 9956TIP3    H129825   0.664   3.818   1.001
 9956TIP3    H229826   0.707   3.941   0.923
 9957TIP3   OH229827   0.043   0.521   5.336
 9957TIP3    H129828   0.121   0.576   5.343
 9957TIP3    H229829   0.002   0.526   5.422
 9958TIP3   OH229830   3.598   5.545   2.046
 9958TIP3    H129831   3.568   5.472   2.100
 9958TIP3    H229832   3.598   5.511   1.956
 9959TIP3   OH229833   3.827   2.063   4.672
 9959TIP3    H129834   3.875   2.034   4.750
 9959TIP3    H229835   3.866   2.147   4.650
 9960TIP3   OH229836   1.729   5.393   0.104
 9960TIP3    H129837   1.749   5.408   0.012
 9960TIP3    H229838   1.731   5.480   0.143
 9961TIP3   OH229839   0.703   7.832   5.333
 9961TIP3    H129840   0.683   7.751   5.286
 9961TIP3    H229841   0.736   7.891   5.266
 9962TIP3   OH229842   5.181   2.764   0.882
 9962TIP3    H129843   5.260   2.813   0.905
 9962TIP3    H229844   5.193   2.679   0.924
 9963TIP3   OH229845   2.165   3.447   1.339
 9963TIP3    H129846   2.160   3.403   1.254
 9963TIP3    H229847   2.098   3.404   1.392
 9964TIP3   OH229848   6.499   3.457   6.231
 9964TIP3    H129849   6.540   3.541   6.209
 9964TIP3    H229850   6.521   3.400   6.158
 9965TIP3   OH229851   5.850   3.749   3.243
 9965TIP3    H129852   5.814   3.780   3.326
 9965TIP3    H229853   5.812   3.662   3.232
 9966TIP3   OH229854   6.391   6.777   2.807
 9966TIP3    H129855   6.385   6.704   2.746
 9966TIP3    H229856   6.384   6.737   2.893
 9967TIP3   OH229857   6.294   6.810   0.612
 9967TIP3    H129858   6.228   6.877   0.597
 9967TIP3    H229859   6.350   6.814   0.534
 9968TIP3   OH229860   1.110   7.357   2.849
 9968TIP3    H129861   1.090   7.374   2.757
 9968TIP3    H229862   1.112   7.262   2.856
 9969TIP3   OH229863   0.980   5.655   2.993
 9969TIP3    H129864   0.981   5.636   3.086
 9969TIP3    H229865   1.072   5.670   2.971
 9970TIP3   OH229866   3.207   7.650   2.382
 9970TIP3    H129867   3.233   7.693   2.300
 9970TIP3    H229868   3.260   7.570   2.384
 9971TIP3   OH229869   7.821   3.872   2.821
 9971TIP3    H129870   7.733   3.838   2.838
 9971TIP3    H229871   7.834   3.860   2.727
 9972TIP3   OH229872   1.989   5.828   6.425
 9972TIP3    H129873   1.969   5.841   6.333
 9972TIP3    H229874   1.971   5.913   6.466
 9973TIP3   OH229875   6.722   6.884   5.995
 9973TIP3    H129876   6.745   6.976   6.009
 9973TIP3    H229877   6.805   6.841   5.974
 9974TIP3   OH229878   4.760   4.107   0.354
 9974TIP3    H129879   4.737   4.024   0.396
 9974TIP3    H229880   4.854   4.116   0.370
 9975TIP3   OH229881   7.230   3.222   4.609
 9975TIP3    H129882   7.233   3.292   4.544
 9975TIP3    H229883   7.314   3.230   4.656
 9976TIP3   OH229884   6.957   7.427   3.981
 9976TIP3    H129885   6.995   7.340   3.979
 9976TIP3    H229886   6.865   7.413   4.004
 9977TIP3   OH229887   1.048   6.174   3.897
 9977TIP3    H129888   1.090   6.095   3.933
 9977TIP3    H229889   1.121   6.234   3.880
 9978TIP3   OH229890   5.960   0.498   0.621
 9978TIP3    H129891   6.006   0.469   0.542
 9978TIP3    H229892   5.973   0.427   0.683
 9979TIP3   OH229893   7.723   7.229   5.122
 9979TIP3    H129894   7.681   7.228   5.036
 9979TIP3    H229895   7.684   7.305   5.166
 9980TIP3   OH229896   2.128   6.770   6.483
 9980TIP3    H129897   2.175   6.833   6.538
 9980TIP3    H229898   2.037   6.800   6.484
 9981TIP3   OH229899   5.671   0.535   4.051
 9981TIP3    H129900   5.718   0.460   4.016
 9981TIP3    H229901   5.618   0.566   3.978
 9982TIP3   OH229902   3.157   7.008   5.940
 9982TIP3    H129903   3.206   7.089   5.929
 9982TIP3    H229904   3.074   7.035   5.978
 9983TIP3   OH229905   7.150   7.724   4.471
 9983TIP3    H129906   7.106   7.795   4.424
 9983TIP3    H229907   7.124   7.736   4.562
 9984TIP3   OH229908   7.225   1.814   6.205
 9984TIP3    H129909   7.276   1.885   6.167
 9984TIP3    H229910   7.145   1.812   6.153
 9985TIP3   OH229911   2.204   0.203   1.751
 9985TIP3    H129912   2.268   0.132   1.752
 9985TIP3    H229913   2.127   0.169   1.796
 9986TIP3   OH229914   1.670   0.838   4.163
 9986TIP3    H129915   1.743   0.813   4.219
 9986TIP3    H229916   1.700   0.819   4.074
 9987TIP3   OH229917   6.644   0.634   2.226
 9987TIP3    H129918   6.667   0.546   2.255
 9987TIP3    H229919   6.708   0.692   2.268
 9988TIP3   OH229920   0.574   1.165   2.846
 9988TIP3    H129921   0.482   1.161   2.822
 9988TIP3    H229922   0.585   1.252   2.885
 9989TIP3   OH229923   1.574   4.057   1.515
 9989TIP3    H129924   1.567   3.968   1.479
 9989TIP3    H229925   1.667   4.079   1.506
 9990TIP3   OH229926   1.842   7.218   5.179
 9990TIP3    H129927   1.893   7.258   5.250
 9990TIP3    H229928   1.762   7.187   5.222
 9991TIP3   OH229929   0.588   2.811   1.651
 9991TIP3    H129930   0.679   2.809   1.680
 9991TIP3    H229931   0.589   2.866   1.573
 9992TIP3   OH229932   5.843   4.103   2.611
 9992TIP3    H129933   5.838   4.034   2.544
 9992TIP3    H229934   5.836   4.055   2.694
 9993TIP3   OH229935   0.198   6.725   1.536
 9993TIP3    H129936   0.146   6.754   1.461
 9993TIP3    H229937   0.148   6.654   1.575
 9994TIP3   OH229938   8.154   7.743   2.034
 9994TIP3    H129939   8.191   7.831   2.047
 9994TIP3    H229940   8.146   7.707   2.123
 9995TIP3   OH229941   6.868   0.856   3.948
 9995TIP3    H129942   6.781   0.848   3.909
 9995TIP3    H229943   6.896   0.766   3.966
 9996TIP3   OH229944   7.980   3.779   0.397
 9996TIP3    H129945   8.019   3.727   0.326
 9996TIP3    H229946   7.983   3.721   0.473
 9997TIP3   OH229947   2.906   2.278   4.208
 9997TIP3    H129948   2.830   2.317   4.250
 9997TIP3    H229949   2.873   2.196   4.170
 9998TIP3   OH229950   7.403   7.253   2.907
 9998TIP3    H129951   7.336   7.259   2.976
 9998TIP3    H229952   7.481   7.291   2.946
 9999TIP3   OH229953   7.991   2.312   6.137
 9999TIP3    H129954   7.958   2.398   6.113
 9999TIP3    H229955   7.972   2.257   6.061
10000TIP3   OH229956   3.326   6.564   0.391
10000TIP3    H129957   3.371   6.618   0.326
10000TIP3    H229958   3.322   6.477   0.351
10001TIP3   OH229959   3.815   0.996   1.499
10001TIP3    H129960   3.742   0.996   1.438
10001TIP3    H229961   3.815   1.083   1.538
10002TIP3   OH229962   2.517   7.593   6.533
10002TIP3    H129963   2.451   7.659   6.554
10002TIP3    H229964   2.600   7.634   6.555
10003TIP3   OH229965   1.099   5.296   4.075
10003TIP3    H129966   1.126   5.271   3.987
10003TIP3    H229967   1.133   5.227   4.131
10004TIP3   OH229968   7.598   3.627   0.504
10004TIP3    H129969   7.583   3.537   0.532
10004TIP3    H229970   7.672   3.657   0.557
10005TIP3   OH229971   8.089   6.354   2.196
10005TIP3    H129972   8.094   6.294   2.122
10005TIP3    H229973   8.141   6.430   2.168
10006TIP3   OH229974   3.462   1.559   6.286
10006TIP3    H129975   3.409   1.480   6.287
10006TIP3    H229976   3.498   1.566   6.374
10007TIP3   OH229977   1.027   1.481   0.164
10007TIP3    H129978   0.940   1.516   0.184
10007TIP3    H229979   1.025   1.391   0.197
10008TIP3   OH229980   2.429   4.581   6.201
10008TIP3    H129981   2.419   4.536   6.285
10008TIP3    H229982   2.378   4.661   6.210
10009TIP3   OH229983   2.622   3.637   4.229
10009TIP3    H129984   2.569   3.657   4.152
10009TIP3    H229985   2.709   3.668   4.207
10010TIP3   OH229986   3.764   1.318   3.875
10010TIP3    H129987   3.847   1.270   3.870
10010TIP3    H229988   3.789   1.407   3.899
10011TIP3   OH229989   6.082   1.616   1.161
10011TIP3    H129990   6.105   1.675   1.232
10011TIP3    H229991   6.029   1.548   1.202
10012TIP3   OH229992   0.887   7.163   5.853
10012TIP3    H129993   0.814   7.220   5.829
10012TIP3    H229994   0.939   7.157   5.773
10013TIP3   OH229995   0.432   3.196   0.197
10013TIP3    H129996   0.407   3.103   0.202
10013TIP3    H229997   0.413   3.230   0.284
10014TIP3   OH229998   7.576   0.380   4.499
10014TIP3    H129999   7.517   0.321   4.452
10014TIP3    H230000   7.602   0.445   4.434
10015TIP3   OH230001   4.309   2.171   0.849
10015TIP3    H130002   4.226   2.177   0.803
10015TIP3    H230003   4.332   2.078   0.847
10016TIP3   OH230004   2.536   1.349   4.336
10016TIP3    H130005   2.545   1.372   4.243
10016TIP3    H230006   2.456   1.296   4.340
10017TIP3   OH230007   4.819   6.863   1.820
10017TIP3    H130008   4.779   6.935   1.771
10017TIP3    H230009   4.908   6.892   1.838
10018TIP3   OH230010   0.877   3.227   2.083
10018TIP3    H130011   0.887   3.305   2.137
10018TIP3    H230012   0.786   3.202   2.092
10019TIP3   OH230013   7.214   2.851   0.204
10019TIP3    H130014   7.242   2.760   0.217
10019TIP3    H230015   7.271   2.885   0.136
10020TIP3   OH230016   7.990   2.457   4.719
10020TIP3    H130017   7.972   2.386   4.781
10020TIP3    H230018   8.086   2.460   4.715
10021TIP3   OH230019   5.575   0.419   4.794
10021TIP3    H130020   5.553   0.331   4.823
10021TIP3    H230021   5.637   0.452   4.859
10022TIP3   OH230022   1.325   3.086   1.247
10022TIP3    H130023   1.257   3.129   1.299
10022TIP3    H230024   1.360   3.155   1.191
10023TIP3   OH230025   3.985   0.534   4.975
10023TIP3    H130026   4.072   0.543   5.012
10023TIP3    H230027   4.000   0.497   4.888
10024TIP3   OH230028   0.943   1.420   2.263
10024TIP3    H130029   0.865   1.374   2.232
10024TIP3    H230030   0.922   1.513   2.252
10025TIP3   OH230031   8.193   3.764   5.898
10025TIP3    H130032   8.106   3.780   5.934
10025TIP3    H230033   8.250   3.823   5.947
10026TIP3   OH230034   7.953   7.409   3.136
10026TIP3    H130035   8.042   7.380   3.115
10026TIP3    H230036   7.929   7.357   3.213
10027TIP3   OH230037   1.299   3.000   3.804
10027TIP3    H130038   1.350   2.959   3.874
10027TIP3    H230039   1.245   3.065   3.850
10028TIP3   OH230040   1.177   3.218   0.030
10028TIP3    H130041   1.155   3.149   0.093
10028TIP3    H230042   1.255   3.185  -0.015
10029TIP3   OH230043   3.728   4.243   5.939
10029TIP3    H130044   3.776   4.220   6.019
10029TIP3    H230045   3.708   4.336   5.950
10030TIP3   OH230046   7.274   6.069   2.925
10030TIP3    H130047   7.273   6.019   3.007
10030TIP3    H230048   7.259   6.004   2.857
10031TIP3   OH230049   0.407   0.056   1.908
10031TIP3    H130050   0.395  -0.039   1.900
10031TIP3    H230051   0.464   0.080   1.835
10032TIP3   OH230052   2.913   2.545   6.335
10032TIP3    H130053   2.926   2.591   6.418
10032TIP3    H230054   2.983   2.480   6.333
10033TIP3   OH230055   1.187   5.567   6.319
10033TIP3    H130056   1.174   5.612   6.403
10033TIP3    H230057   1.245   5.493   6.340
10034TIP3   OH230058   0.767   2.893   5.156
10034TIP3    H130059   0.740   2.880   5.247
10034TIP3    H230060   0.863   2.889   5.159
10035TIP3   OH230061   4.827   6.013   4.123
10035TIP3    H130062   4.733   6.006   4.109
10035TIP3    H230063   4.850   6.102   4.096
10036TIP3   OH230064   4.649   0.661   6.161
10036TIP3    H130065   4.612   0.577   6.130
10036TIP3    H230066   4.572   0.717   6.172
10037TIP3   OH230067   8.230   7.768   2.555
10037TIP3    H130068   8.311   7.817   2.568
10037TIP3    H230069   8.233   7.740   2.464
10038TIP3   OH230070   6.815   0.260   0.965
10038TIP3    H130071   6.873   0.271   1.041
10038TIP3    H230072   6.763   0.183   0.986
10039TIP3   OH230073   0.433   6.325   4.944
10039TIP3    H130074   0.377   6.351   4.871
10039TIP3    H230075   0.378   6.268   4.998
10040TIP3   OH230076   3.196   2.343   0.281
10040TIP3    H130077   3.225   2.434   0.275
10040TIP3    H230078   3.273   2.295   0.314
10041TIP3   OH230079   6.937   1.891   5.497
10041TIP3    H130080   6.849   1.929   5.500
10041TIP3    H230081   6.924   1.803   5.462
10042TIP3   OH230082   3.766   7.410   4.733
10042TIP3    H130083   3.756   7.352   4.658
10042TIP3    H230084   3.849   7.383   4.774
10043TIP3   OH230085   6.123   7.680   4.375
10043TIP3    H130086   6.209   7.700   4.413
10043TIP3    H230087   6.143   7.643   4.289
10044TIP3   OH230088   1.407   7.667   3.606
10044TIP3    H130089   1.469   7.692   3.538
10044TIP3    H230090   1.323   7.702   3.576
10045TIP3   OH230091   5.100   4.827   0.971
10045TIP3    H130092   5.094   4.788   0.884
10045TIP3    H230093   5.193   4.846   0.983
10046TIP3   OH230094   4.211   1.364   3.733
10046TIP3    H130095   4.271   1.293   3.707
10046TIP3    H230096   4.124   1.333   3.707
10047TIP3   OH230097   4.638   6.492   0.098
10047TIP3    H130098   4.617   6.582   0.071
10047TIP3    H230099   4.730   6.497   0.125
10048TIP3   OH230100   6.532   7.081   6.694
10048TIP3    H130101   6.580   7.026   6.632
10048TIP3    H230102   6.519   7.025   6.771
10049TIP3   OH230103   3.477   6.110   6.307
10049TIP3    H130104   3.452   6.122   6.215
10049TIP3    H230105   3.527   6.029   6.308
10050TIP3   OH230106   1.613   4.564   5.561
10050TIP3    H130107   1.708   4.571   5.547
10050TIP3    H230108   1.604   4.528   5.649
10051TIP3   OH230109   0.354   1.719   4.468
10051TIP3    H130110   0.384   1.672   4.546
10051TIP3    H230111   0.318   1.801   4.503
10052TIP3   OH230112   6.000   2.793   2.759
10052TIP3    H130113   6.017   2.886   2.742
10052TIP3    H230114   5.915   2.777   2.718
10053TIP3   OH230115   0.727   3.373   2.451
10053TIP3    H130116   0.695   3.290   2.418
10053TIP3    H230117   0.785   3.406   2.382
10054TIP3   OH230118   0.765   1.398   3.403
10054TIP3    H130119   0.692   1.389   3.464
10054TIP3    H230120   0.806   1.481   3.425
10055TIP3   OH230121   4.145   0.175   6.170
10055TIP3    H130122   4.165   0.208   6.083
10055TIP3    H230123   4.162   0.248   6.229
10056TIP3   OH230124   6.462   5.928   6.029
10056TIP3    H130125   6.551   5.963   6.018
10056TIP3    H230126   6.435   5.901   5.941
10057TIP3   OH230127   6.675   1.525   4.462
10057TIP3    H130128   6.761   1.517   4.504
10057TIP3    H230129   6.674   1.456   4.396
10058TIP3   OH230130   3.898   7.357   0.594
10058TIP3    H130131   3.867   7.429   0.648
10058TIP3    H230132   3.839   7.356   0.519
10059TIP3   OH230133   7.235   0.645   1.894
10059TIP3    H130134   7.186   0.588   1.835
10059TIP3    H230135   7.171   0.709   1.925
10060TIP3   OH230136   7.148   6.285   3.035
10060TIP3    H130137   7.194   6.203   3.019
10060TIP3    H230138   7.121   6.315   2.948
10061TIP3   OH230139   4.339   4.658   1.202
10061TIP3    H130140   4.349   4.745   1.162
10061TIP3    H230141   4.425   4.640   1.240
10062TIP3   OH230142   6.712   6.383   4.964
10062TIP3    H130143   6.677   6.311   4.912
10062TIP3    H230144   6.650   6.455   4.949
10063TIP3   OH230145   6.866   2.616   3.899
10063TIP3    H130146   6.817   2.559   3.959
10063TIP3    H230147   6.923   2.668   3.957
10064TIP3   OH230148   1.820   3.925   5.473
10064TIP3    H130149   1.892   3.981   5.503
10064TIP3    H230150   1.756   3.987   5.437
10065TIP3   OH230151   7.848   2.755   2.291
10065TIP3    H130152   7.756   2.728   2.282
10065TIP3    H230153   7.847   2.849   2.272
10066TIP3   OH230154   0.485   5.477   2.600
10066TIP3    H130155   0.415   5.542   2.612
10066TIP3    H230156   0.482   5.456   2.507
10067TIP3   OH230157   0.747   1.333   2.098
10067TIP3    H130158   0.782   1.298   2.016
10067TIP3    H230159   0.754   1.428   2.088
10068TIP3   OH230160   4.315   2.803   6.659
10068TIP3    H130161   4.289   2.719   6.623
10068TIP3    H230162   4.233   2.850   6.673
10069TIP3   OH230163   4.146   2.991   5.623
10069TIP3    H130164   4.130   3.042   5.703
10069TIP3    H230165   4.087   3.029   5.558
10070TIP3   OH230166   5.575   4.383   3.622
10070TIP3    H130167   5.623   4.383   3.540
10070TIP3    H230168   5.610   4.458   3.671
10071TIP3   OH230169   2.532   1.222   3.123
10071TIP3    H130170   2.540   1.317   3.119
10071TIP3    H230171   2.554   1.192   3.035
10072TIP3   OH230172   1.437   1.052   5.929
10072TIP3    H130173   1.439   0.962   5.896
10072TIP3    H230174   1.349   1.084   5.908
10073TIP3   OH230175   3.963   7.856   2.947
10073TIP3    H130176   3.875   7.835   2.980
10073TIP3    H230177   4.022   7.809   3.004
10074TIP3   OH230178   0.892   3.607   6.733
10074TIP3    H130179   0.887   3.629   6.640
10074TIP3    H230180   0.952   3.532   6.736
10075TIP3   OH230181   6.032   3.222   5.716
10075TIP3    H130182   6.025   3.163   5.791
10075TIP3    H230183   6.066   3.167   5.646
10076TIP3   OH230184   3.138   7.353   5.537
10076TIP3    H130185   3.195   7.276   5.538
10076TIP3    H230186   3.055   7.321   5.503
10077TIP3   OH230187   0.868   4.698   1.159
10077TIP3    H130188   0.950   4.657   1.187
10077TIP3    H230189   0.858   4.773   1.218
10078TIP3   OH230190   5.587   7.218   1.709
10078TIP3    H130191   5.631   7.279   1.768
10078TIP3    H230192   5.613   7.246   1.622
10079TIP3   OH230193   4.752   6.505   2.973
10079TIP3    H130194   4.693   6.440   3.011
10079TIP3    H230195   4.839   6.478   3.002
10080TIP3   OH230196   6.914   4.112   4.123
10080TIP3    H130197   7.005   4.097   4.096
10080TIP3    H230198   6.894   4.040   4.183
10081TIP3   OH230199   8.324   4.961   5.003
10081TIP3    H130200   8.318   5.002   4.917
10081TIP3    H230201   8.282   5.024   5.062
10082TIP3   OH230202   8.175   6.624   0.229
10082TIP3    H130203   8.176   6.540   0.183
10082TIP3    H230204   8.165   6.601   0.322
10083TIP3   OH230205   2.136   3.106   5.463
10083TIP3    H130206   2.089   3.190   5.467
10083TIP3    H230207   2.118   3.065   5.547
10084TIP3   OH230208   2.398   2.122   5.197
10084TIP3    H130209   2.447   2.065   5.257
10084TIP3    H230210   2.433   2.209   5.212
10085TIP3   OH230211   1.778   4.481   0.127
10085TIP3    H130212   1.708   4.484   0.062
10085TIP3    H230213   1.753   4.411   0.187
10086TIP3   OH230214   6.598   1.723   1.027
10086TIP3    H130215   6.660   1.796   1.026
10086TIP3    H230216   6.515   1.762   1.052
10087TIP3   OH230217   1.902   5.333   0.655
10087TIP3    H130218   1.992   5.357   0.632
10087TIP3    H230219   1.909   5.297   0.744
10088TIP3   OH230220   1.050   2.917   1.779
10088TIP3    H130221   1.035   3.009   1.802
10088TIP3    H230222   1.135   2.918   1.735
10089TIP3   OH230223   5.362   4.631   2.200
10089TIP3    H130224   5.381   4.705   2.258
10089TIP3    H230225   5.434   4.570   2.215
10090TIP3   OH230226   5.983   3.996   3.498
10090TIP3    H130227   5.924   3.942   3.445
10090TIP3    H230228   6.070   3.960   3.482
10091TIP3   OH230229   3.679   7.031   1.262
10091TIP3    H130230   3.756   7.079   1.233
10091TIP3    H230231   3.712   6.969   1.327
10092TIP3   OH230232   2.725   5.214   5.164
10092TIP3    H130233   2.787   5.189   5.233
10092TIP3    H230234   2.778   5.263   5.101
10093TIP3   OH230235   4.396   5.515   1.615
10093TIP3    H130236   4.353   5.598   1.595
10093TIP3    H230237   4.343   5.450   1.569
10094TIP3   OH230238   5.343   5.446   3.976
10094TIP3    H130239   5.364   5.517   4.037
10094TIP3    H230240   5.247   5.440   3.979
10095TIP3   OH230241   2.971   3.264   4.829
10095TIP3    H130242   3.051   3.213   4.818
10095TIP3    H230243   2.968   3.321   4.752
10096TIP3   OH230244   6.508   0.241   0.538
10096TIP3    H130245   6.464   0.191   0.469
10096TIP3    H230246   6.596   0.258   0.504
10097TIP3   OH230247   6.308   4.454   5.615
10097TIP3    H130248   6.349   4.447   5.701
10097TIP3    H230249   6.217   4.425   5.629
10098TIP3   OH230250   0.372   1.830   4.023
10098TIP3    H130251   0.358   1.748   4.070
10098TIP3    H230252   0.448   1.813   3.967
10099TIP3   OH230253   1.553   2.760   2.591
10099TIP3    H130254   1.557   2.811   2.511
10099TIP3    H230255   1.606   2.809   2.654
10100TIP3   OH230256   6.665   2.378   5.657
10100TIP3    H130257   6.653   2.406   5.566
10100TIP3    H230258   6.751   2.336   5.658
10101TIP3   OH230259   1.333   1.167   5.349
10101TIP3    H130260   1.388   1.208   5.282
10101TIP3    H230261   1.324   1.076   5.321
10102TIP3   OH230262   4.521   1.594   4.008
10102TIP3    H130263   4.505   1.568   4.099
10102TIP3    H230264   4.616   1.597   4.001
10103TIP3   OH230265   2.689   3.199   3.068
10103TIP3    H130266   2.778   3.204   3.103
10103TIP3    H230267   2.659   3.111   3.091
10104TIP3   OH230268   4.945   5.883   3.228
10104TIP3    H130269   4.983   5.963   3.192
10104TIP3    H230270   5.020   5.826   3.245
10105TIP3   OH230271   5.290   3.958   0.259
10105TIP3    H130272   5.331   3.914   0.184
10105TIP3    H230273   5.347   3.937   0.333
10106TIP3   OH230274   3.391   5.535   4.313
10106TIP3    H130275   3.314   5.534   4.370
10106TIP3    H230276   3.372   5.467   4.248
10107TIP3   OH230277   2.028   2.329   2.447
10107TIP3    H130278   2.087   2.405   2.451
10107TIP3    H230279   1.968   2.349   2.376
10108TIP3   OH230280   0.129   3.904   6.487
10108TIP3    H130281   0.047   3.936   6.449
10108TIP3    H230282   0.110   3.894   6.580
10109TIP3   OH230283   2.186   2.307   2.779
10109TIP3    H130284   2.166   2.256   2.700
10109TIP3    H230285   2.194   2.241   2.849
10110TIP3   OH230286   4.287   2.406   0.989
10110TIP3    H130287   4.299   2.316   0.958
10110TIP3    H230288   4.299   2.460   0.910
10111TIP3   OH230289   4.813   5.664   3.840
10111TIP3    H130290   4.794   5.687   3.931
10111TIP3    H230291   4.762   5.585   3.824
10112TIP3   OH230292   1.082   3.612   5.467
10112TIP3    H130293   1.071   3.588   5.559
10112TIP3    H230294   1.122   3.535   5.427
10113TIP3   OH230295   2.798   0.310   5.943
10113TIP3    H130296   2.886   0.284   5.971
10113TIP3    H230297   2.759   0.229   5.910
10114TIP3   OH230298   6.116   5.311   4.266
10114TIP3    H130299   6.074   5.388   4.229
10114TIP3    H230300   6.052   5.276   4.328
10115TIP3   OH230301   8.316   7.010   1.675
10115TIP3    H130302   8.353   7.094   1.649
10115TIP3    H230303   8.263   6.983   1.599
10116TIP3   OH230304   6.424   4.853   3.631
10116TIP3    H130305   6.484   4.874   3.703
10116TIP3    H230306   6.374   4.778   3.662
10117TIP3   OH230307   3.522   6.143   6.747
10117TIP3    H130308   3.576   6.163   6.671
10117TIP3    H230309   3.584   6.119   6.815
10118TIP3   OH230310   7.747   7.541   6.709
10118TIP3    H130311   7.814   7.579   6.767
10118TIP3    H230312   7.675   7.604   6.713
10119TIP3   OH230313   3.771   4.846   1.089
10119TIP3    H130314   3.772   4.771   1.029
10119TIP3    H230315   3.828   4.820   1.161
10120TIP3   OH230316   0.613   3.034   3.575
10120TIP3    H130317   0.646   3.048   3.664
10120TIP3    H230318   0.673   2.970   3.537
10121TIP3   OH230319   7.602   0.074   3.628
10121TIP3    H130320   7.604  -0.022   3.622
10121TIP3    H230321   7.511   0.097   3.608
10122TIP3   OH230322   3.592   2.764   6.302
10122TIP3    H130323   3.514   2.768   6.248
10122TIP3    H230324   3.620   2.673   6.298
10123TIP3   OH230325   1.041   7.323   3.594
10123TIP3    H130326   0.980   7.397   3.591
10123TIP3    H230327   1.123   7.361   3.625
10124TIP3   OH230328   0.669   2.017   0.419
10124TIP3    H130329   0.730   1.958   0.462
10124TIP3    H230330   0.674   2.098   0.470
10125TIP3   OH230331   7.946   5.273   0.129
10125TIP3    H130332   8.002   5.322   0.069
10125TIP3    H230333   7.922   5.336   0.197
10126TIP3   OH230334   6.953   4.454   3.699
10126TIP3    H130335   6.945   4.493   3.613
10126TIP3    H230336   6.865   4.455   3.735
10127TIP3   OH230337   4.688   4.637   3.720
10127TIP3    H130338   4.750   4.576   3.681
10127TIP3    H230339   4.633   4.665   3.646
10128TIP3   OH230340   4.855   1.359   5.516
10128TIP3    H130341   4.949   1.370   5.528
10128TIP3    H230342   4.838   1.389   5.427
10129TIP3   OH230343   1.329   6.470   6.620
10129TIP3    H130344   1.384   6.483   6.698
10129TIP3    H230345   1.245   6.439   6.655
10130TIP3   OH230346   3.249   7.822   4.468
10130TIP3    H130347   3.230   7.776   4.550
10130TIP3    H230348   3.315   7.887   4.492
10131TIP3   OH230349   2.244   1.541   1.196
10131TIP3    H130350   2.275   1.583   1.115
10131TIP3    H230351   2.180   1.476   1.166
10132TIP3   OH230352   6.941   2.247   5.736
10132TIP3    H130353   6.978   2.159   5.737
10132TIP3    H230354   6.861   2.241   5.788
10133TIP3   OH230355   6.868   2.127   3.008
10133TIP3    H130356   6.862   2.144   2.914
10133TIP3    H230357   6.786   2.081   3.029
10134TIP3   OH230358   5.199   6.717   1.082
10134TIP3    H130359   5.198   6.753   0.994
10134TIP3    H230360   5.207   6.622   1.069
10135TIP3   OH230361   0.139   6.379   1.295
10135TIP3    H130362   0.114   6.332   1.216
10135TIP3    H230363   0.085   6.341   1.365
10136TIP3   OH230364   2.338   7.792   6.629
10136TIP3    H130365   2.267   7.818   6.571
10136TIP3    H230366   2.295   7.743   6.699
10137TIP3   OH230367   8.205   7.250   1.819
10137TIP3    H130368   8.216   7.192   1.894
10137TIP3    H230369   8.174   7.332   1.857
10138TIP3   OH230370   4.194   3.245   4.498
10138TIP3    H130371   4.141   3.303   4.443
10138TIP3    H230372   4.269   3.298   4.523
10139TIP3   OH230373   6.768   7.110   0.061
10139TIP3    H130374   6.863   7.120   0.056
10139TIP3    H230375   6.738   7.186   0.110
10140TIP3   OH230376   6.165   3.323   2.767
10140TIP3    H130377   6.242   3.333   2.824
10140TIP3    H230378   6.190   3.367   2.686
10141TIP3   OH230379   5.385   3.638   1.494
10141TIP3    H130380   5.450   3.569   1.482
10141TIP3    H230381   5.308   3.608   1.447
10142TIP3   OH230382   5.907   7.688   4.543
10142TIP3    H130383   5.950   7.764   4.582
10142TIP3    H230384   5.957   7.670   4.463
10143TIP3   OH230385   6.603   0.247   2.544
10143TIP3    H130386   6.620   0.288   2.628
10143TIP3    H230387   6.612   0.153   2.560
10144TIP3   OH230388   3.954   3.454   0.284
10144TIP3    H130389   3.935   3.462   0.378
10144TIP3    H230390   3.903   3.379   0.256
10145TIP3   OH230391   0.306   6.183   4.409
10145TIP3    H130392   0.395   6.152   4.393
10145TIP3    H230393   0.265   6.184   4.323
10146TIP3   OH230394   6.485   7.464   1.965
10146TIP3    H130395   6.400   7.503   1.982
10146TIP3    H230396   6.548   7.521   2.010
10147TIP3   OH230397   3.637   6.153   4.359
10147TIP3    H130398   3.583   6.095   4.305
10147TIP3    H230399   3.575   6.219   4.391
10148TIP3   OH230400   7.627   6.562   0.896
10148TIP3    H130401   7.574   6.625   0.945
10148TIP3    H230402   7.716   6.575   0.929
10149TIP3   OH230403   2.019   4.288   1.752
10149TIP3    H130404   2.072   4.366   1.769
10149TIP3    H230405   1.929   4.316   1.770
10150TIP3   OH230406   4.533   1.836   2.478
10150TIP3    H130407   4.485   1.912   2.447
10150TIP3    H230408   4.620   1.845   2.439
10151TIP3   OH230409   4.129   4.565   3.268
10151TIP3    H130410   4.173   4.601   3.191
10151TIP3    H230411   4.193   4.573   3.338
10152TIP3   OH230412   4.629   5.336   1.631
10152TIP3    H130413   4.542   5.310   1.599
10152TIP3    H230414   4.621   5.333   1.726
10153TIP3   OH230415   8.160   2.688   0.197
10153TIP3    H130416   8.183   2.645   0.279
10153TIP3    H230417   8.143   2.616   0.136
10154TIP3   OH230418   5.978   4.156   6.515
10154TIP3    H130419   5.932   4.150   6.599
10154TIP3    H230420   5.925   4.218   6.464
10155TIP3   OH230421   2.294   5.253   4.639
10155TIP3    H130422   2.321   5.319   4.702
10155TIP3    H230423   2.221   5.292   4.591
10156TIP3   OH230424   5.025   4.361   2.105
10156TIP3    H130425   5.092   4.296   2.081
10156TIP3    H230426   4.979   4.379   2.024
10157TIP3   OH230427   8.149   2.832   0.798
10157TIP3    H130428   8.070   2.838   0.852
10157TIP3    H230429   8.220   2.819   0.861
10158TIP3   OH230430   0.675   0.257   2.177
10158TIP3    H130431   0.656   0.232   2.267
10158TIP3    H230432   0.641   0.346   2.168
10159TIP3   OH230433   5.266   1.814   0.229
10159TIP3    H130434   5.327   1.743   0.212
10159TIP3    H230435   5.321   1.889   0.248
10160TIP3   OH230436   6.812   2.097   2.148
10160TIP3    H130437   6.743   2.098   2.083
10160TIP3    H230438   6.791   2.169   2.208
10161TIP3   OH230439   4.921   3.005   6.346
10161TIP3    H130440   4.963   3.035   6.427
10161TIP3    H230441   4.993   2.994   6.284
10162TIP3   OH230442   5.239   4.196   1.279
10162TIP3    H130443   5.297   4.151   1.340
10162TIP3    H230444   5.186   4.254   1.335
10163TIP3   OH230445   4.626   5.625   2.632
10163TIP3    H130446   4.541   5.625   2.675
10163TIP3    H230447   4.689   5.618   2.703
10164TIP3   OH230448   6.027   5.375   6.218
10164TIP3    H130449   6.000   5.467   6.225
10164TIP3    H230450   5.984   5.331   6.291
10165TIP3   OH230451   0.113   4.999   2.890
10165TIP3    H130452   0.030   4.982   2.845
10165TIP3    H230453   0.178   5.003   2.820
10166TIP3   OH230454   4.811   1.646   4.542
10166TIP3    H130455   4.869   1.602   4.479
10166TIP3    H230456   4.776   1.576   4.596
10167TIP3   OH230457   6.934   2.082   6.193
10167TIP3    H130458   6.959   2.015   6.128
10167TIP3    H230459   6.878   2.036   6.255
10168TIP3   OH230460   1.575   1.286   1.562
10168TIP3    H130461   1.566   1.357   1.626
10168TIP3    H230462   1.661   1.249   1.579
10169TIP3   OH230463   4.263   0.598   0.385
10169TIP3    H130464   4.312   0.637   0.457
10169TIP3    H230465   4.321   0.531   0.349
10170TIP3   OH230466   3.509   0.186   0.769
10170TIP3    H130467   3.456   0.107   0.779
10170TIP3    H230468   3.597   0.154   0.755
10171TIP3   OH230469   7.881   7.817   1.917
10171TIP3    H130470   7.968   7.785   1.941
10171TIP3    H230471   7.855   7.763   1.842
10172TIP3   OH230472   3.936   3.667   6.360
10172TIP3    H130473   3.990   3.746   6.366
10172TIP3    H230474   3.967   3.623   6.281
10173TIP3   OH230475   5.548   5.431   1.911
10173TIP3    H130476   5.619   5.473   1.958
10173TIP3    H230477   5.499   5.384   1.979
10174TIP3   OH230478   0.359   2.636   6.613
10174TIP3    H130479   0.317   2.690   6.681
10174TIP3    H230480   0.305   2.649   6.535
10175TIP3   OH230481   1.607   4.434   1.639
10175TIP3    H130482   1.543   4.365   1.624
10175TIP3    H230483   1.643   4.414   1.725
10176TIP3   OH230484   7.330   0.705   4.829
10176TIP3    H130485   7.348   0.611   4.834
10176TIP3    H230486   7.398   0.740   4.772
10177TIP3   OH230487   6.354   2.062   1.536
10177TIP3    H130488   6.377   1.984   1.485
10177TIP3    H230489   6.333   2.028   1.623
10178TIP3   OH230490   7.847   5.194   1.356
10178TIP3    H130491   7.941   5.211   1.350
10178TIP3    H230492   7.806   5.279   1.341
10179TIP3   OH230493   1.311   1.200   6.637
10179TIP3    H130494   1.343   1.111   6.621
10179TIP3    H230495   1.348   1.225   6.722
10180TIP3   OH230496   0.471   5.117   6.405
10180TIP3    H130497   0.529   5.074   6.468
10180TIP3    H230498   0.525   5.129   6.327
10181TIP3   OH230499   7.217   3.581   0.019
10181TIP3    H130500   7.147   3.534   0.065
10181TIP3    H230501   7.237   3.656   0.075
10182TIP3   OH230502   3.009   5.068   2.895
10182TIP3    H130503   3.056   4.985   2.882
10182TIP3    H230504   2.918   5.042   2.905
10183TIP3   OH230505   1.189   3.493   0.828
10183TIP3    H130506   1.182   3.398   0.840
10183TIP3    H230507   1.274   3.516   0.866
10184TIP3   OH230508   2.507   2.687   5.561
10184TIP3    H130509   2.540   2.741   5.633
10184TIP3    H230510   2.476   2.606   5.603
10185TIP3   OH230511   3.841   3.947   5.078
10185TIP3    H130512   3.873   4.021   5.130
10185TIP3    H230513   3.764   3.915   5.125
10186TIP3   OH230514   4.487   4.892   1.488
10186TIP3    H130515   4.499   4.940   1.570
10186TIP3    H230516   4.460   4.804   1.516
10187TIP3   OH230517   0.851   3.691   1.622
10187TIP3    H130518   0.809   3.684   1.708
10187TIP3    H230519   0.840   3.604   1.583
10188TIP3   OH230520   5.768   1.688   0.397
10188TIP3    H130521   5.735   1.775   0.373
10188TIP3    H230522   5.829   1.705   0.469
10189TIP3   OH230523   0.400   7.014   5.242
10189TIP3    H130524   0.482   6.988   5.201
10189TIP3    H230525   0.386   6.951   5.312
10190TIP3   OH230526   1.606   6.637   2.311
10190TIP3    H130527   1.566   6.688   2.381
10190TIP3    H230528   1.550   6.561   2.301
10191TIP3   OH230529   5.903   3.891   0.650
10191TIP3    H130530   5.943   3.940   0.722
10191TIP3    H230531   5.891   3.803   0.685
10192TIP3   OH230532   3.936   5.486   3.590
10192TIP3    H130533   3.973   5.572   3.613
10192TIP3    H230534   3.874   5.505   3.520
10193TIP3   OH230535   0.162   4.719   5.347
10193TIP3    H130536   0.205   4.715   5.262
10193TIP3    H230537   0.073   4.747   5.328
10194TIP3   OH230538   2.709   6.359   2.441
10194TIP3    H130539   2.698   6.420   2.514
10194TIP3    H230540   2.770   6.403   2.382
10195TIP3   OH230541   0.359   0.329   4.183
10195TIP3    H130542   0.416   0.363   4.113
10195TIP3    H230543   0.381   0.236   4.189
10196TIP3   OH230544   6.422   1.969   5.926
10196TIP3    H130545   6.447   2.050   5.882
10196TIP3    H230546   6.491   1.906   5.902
10197TIP3   OH230547   1.832   7.418   6.029
10197TIP3    H130548   1.909   7.400   5.976
10197TIP3    H230549   1.790   7.493   5.988
10198TIP3   OH230550   2.119   0.038   2.708
10198TIP3    H130551   2.105   0.043   2.802
10198TIP3    H230552   2.057   0.100   2.671
10199TIP3   OH230553   3.887   6.621   6.750
10199TIP3    H130554   3.869   6.543   6.698
10199TIP3    H230555   3.976   6.607   6.784
10200TIP3   OH230556   7.344   1.965   4.612
10200TIP3    H130557   7.412   1.919   4.661
10200TIP3    H230558   7.383   2.050   4.592
10201TIP3   OH230559   1.241   0.224   2.546
10201TIP3    H130560   1.184   0.190   2.477
10201TIP3    H230561   1.224   0.168   2.622
10202TIP3   OH230562   3.730   4.110   3.877
10202TIP3    H130563   3.778   4.172   3.931
10202TIP3    H230564   3.761   4.127   3.788
10203TIP3   OH230565   2.281   5.119   0.068
10203TIP3    H130566   2.253   5.208   0.048
10203TIP3    H230567   2.224   5.092   0.141
10204TIP3   OH230568   1.967   2.382   4.375
10204TIP3    H130569   1.922   2.298   4.379
10204TIP3    H230570   2.006   2.392   4.462
10205TIP3   OH230571   2.566   7.408   2.375
10205TIP3    H130572   2.531   7.457   2.449
10205TIP3    H230573   2.548   7.316   2.397
10206TIP3   OH230574   3.580   7.331   5.858
10206TIP3    H130575   3.591   7.261   5.923
10206TIP3    H230576   3.604   7.411   5.905
10207TIP3   OH230577   3.336   0.807   2.770
10207TIP3    H130578   3.316   0.730   2.717
10207TIP3    H230579   3.426   0.793   2.799
10208TIP3   OH230580   4.358   5.956   4.667
10208TIP3    H130581   4.376   5.992   4.580
10208TIP3    H230582   4.431   5.895   4.683
10209TIP3   OH230583   1.977   3.359   5.450
10209TIP3    H130584   1.976   3.454   5.450
10209TIP3    H230585   1.885   3.333   5.451
10210TIP3   OH230586   8.275   1.686   4.919
10210TIP3    H130587   8.348   1.726   4.966
10210TIP3    H230588   8.238   1.623   4.981
10211TIP3   OH230589   1.740   7.039   0.549
10211TIP3    H130590   1.682   7.072   0.480
10211TIP3    H230591   1.714   6.948   0.561
10212TIP3   OH230592   6.549   2.101   5.121
10212TIP3    H130593   6.585   2.182   5.158
10212TIP3    H230594   6.464   2.091   5.165
10213TIP3   OH230595   0.139   6.077   2.598
10213TIP3    H130596   0.121   6.154   2.544
10213TIP3    H230597   0.170   6.011   2.536
10214TIP3   OH230598   3.042   5.964   4.637
10214TIP3    H130599   3.089   6.045   4.654
10214TIP3    H230600   3.041   5.918   4.721
10215TIP3   OH230601   4.694   0.272   3.897
10215TIP3    H130602   4.735   0.351   3.934
10215TIP3    H230603   4.600   0.286   3.909
10216TIP3   OH230604   4.612   1.007   4.198
10216TIP3    H130605   4.620   0.925   4.246
10216TIP3    H230606   4.689   1.009   4.140
10217TIP3   OH230607   7.967   5.562   3.132
10217TIP3    H130608   7.875   5.573   3.158
10217TIP3    H230609   7.995   5.649   3.106
10218TIP3   OH230610   8.316   5.451   1.947
10218TIP3    H130611   8.258   5.468   1.873
10218TIP3    H230612   8.327   5.356   1.948
10219TIP3   OH230613   7.755   6.536   3.422
10219TIP3    H130614   7.773   6.468   3.357
10219TIP3    H230615   7.668   6.570   3.399
10220TIP3   OH230616   1.244   2.873   1.559
10220TIP3    H130617   1.333   2.907   1.550
10220TIP3    H230618   1.253   2.779   1.541
10221TIP3   OH230619   3.867   5.150   5.592
10221TIP3    H130620   3.881   5.081   5.527
10221TIP3    H230621   3.849   5.103   5.673
10222TIP3   OH230622   2.849   2.473   0.381
10222TIP3    H130623   2.867   2.416   0.306
10222TIP3    H230624   2.932   2.474   0.429
10223TIP3   OH230625   3.253   5.717   3.604
10223TIP3    H130626   3.313   5.752   3.539
10223TIP3    H230627   3.298   5.729   3.688
10224TIP3   OH230628   1.073   1.809   2.331
10224TIP3    H130629   1.155   1.856   2.314
10224TIP3    H230630   1.076   1.789   2.425
10225TIP3   OH230631   0.743   3.370   5.952
10225TIP3    H130632   0.683   3.437   5.984
10225TIP3    H230633   0.720   3.291   6.001
10226TIP3   OH230634   1.997   0.927   3.175
10226TIP3    H130635   1.946   0.917   3.095
10226TIP3    H230636   2.087   0.935   3.145
10227TIP3   OH230637   3.578   0.168   5.161
10227TIP3    H130638   3.580   0.152   5.067
10227TIP3    H230639   3.498   0.218   5.175
10228TIP3   OH230640   5.834   1.045   1.541
10228TIP3    H130641   5.929   1.034   1.554
10228TIP3    H230642   5.814   0.988   1.466
10229TIP3   OH230643   2.962   1.263   2.164
10229TIP3    H130644   3.035   1.284   2.105
10229TIP3    H230645   2.978   1.172   2.190
10230TIP3   OH230646   5.586   7.499   5.665
10230TIP3    H130647   5.617   7.433   5.602
10230TIP3    H230648   5.631   7.579   5.639
10231TIP3   OH230649   3.266   3.439   1.855
10231TIP3    H130650   3.304   3.462   1.940
10231TIP3    H230651   3.212   3.362   1.873
10232TIP3   OH230652   4.605   3.363   6.140
10232TIP3    H130653   4.512   3.340   6.134
10232TIP3    H230654   4.642   3.298   6.200
10233TIP3   OH230655   1.553   6.546   2.610
10233TIP3    H130656   1.549   6.478   2.543
10233TIP3    H230657   1.540   6.628   2.563
10234TIP3   OH230658   3.859   0.773   5.376
10234TIP3    H130659   3.879   0.684   5.404
10234TIP3    H230660   3.923   0.828   5.421
10235TIP3   OH230661   2.341   5.736   4.471
10235TIP3    H130662   2.326   5.776   4.385
10235TIP3    H230663   2.392   5.657   4.452
10236TIP3   OH230664   7.557   5.091   1.120
10236TIP3    H130665   7.571   5.184   1.101
10236TIP3    H230666   7.637   5.048   1.088
10237TIP3   OH230667   3.283   6.738   3.167
10237TIP3    H130668   3.196   6.697   3.162
10237TIP3    H230669   3.334   6.678   3.221
10238TIP3   OH230670   2.019   2.128   5.878
10238TIP3    H130671   1.926   2.106   5.868
10238TIP3    H230672   2.053   2.059   5.936
10239TIP3   OH230673   3.656   3.396   4.050
10239TIP3    H130674   3.659   3.404   4.145
10239TIP3    H230675   3.647   3.486   4.019
10240TIP3   OH230676   0.352   2.601   3.487
10240TIP3    H130677   0.419   2.581   3.553
10240TIP3    H230678   0.379   2.686   3.451
10241TIP3   OH230679   8.245   5.576   3.822
10241TIP3    H130680   8.160   5.536   3.838
10241TIP3    H230681   8.265   5.624   3.903
10242TIP3   OH230682   3.226   2.778   5.045
10242TIP3    H130683   3.236   2.758   4.952
10242TIP3    H230684   3.147   2.731   5.071
10243TIP3   OH230685   1.848   0.914   6.656
10243TIP3    H130686   1.923   0.892   6.712
10243TIP3    H230687   1.820   1.000   6.686
10244TIP3   OH230688   7.998   1.275   4.787
10244TIP3    H130689   8.049   1.204   4.748
10244TIP3    H230690   7.907   1.255   4.763
10245TIP3   OH230691   4.064   0.903   1.386
10245TIP3    H130692   4.130   0.956   1.430
10245TIP3    H230693   3.982   0.926   1.429
10246TIP3   OH230694   4.201   7.137   0.727
10246TIP3    H130695   4.163   7.154   0.641
10246TIP3    H230696   4.158   7.201   0.785
10247TIP3   OH230697   1.617   2.990   5.609
10247TIP3    H130698   1.676   2.924   5.573
10247TIP3    H230699   1.529   2.958   5.586
10248TIP3   OH230700   4.800   2.050   6.658
10248TIP3    H130701   4.706   2.066   6.647
10248TIP3    H230702   4.833   2.130   6.699
10249TIP3   OH230703   5.678   1.725   2.407
10249TIP3    H130704   5.730   1.696   2.333
10249TIP3    H230705   5.684   1.821   2.405
10250TIP3   OH230706   0.705   1.328   5.681
10250TIP3    H130707   0.744   1.330   5.768
10250TIP3    H230708   0.695   1.420   5.657
10251TIP3   OH230709   1.303   5.300   2.084
10251TIP3    H130710   1.252   5.337   2.012
10251TIP3    H230711   1.319   5.374   2.143
10252TIP3   OH230712   3.290   2.807   5.911
10252TIP3    H130713   3.255   2.818   5.823
10252TIP3    H230714   3.213   2.788   5.965
10253TIP3   OH230715   7.797   5.156   3.286
10253TIP3    H130716   7.887   5.175   3.260
10253TIP3    H230717   7.776   5.224   3.350
10254TIP3   OH230718   7.212   2.204   0.644
10254TIP3    H130719   7.149   2.191   0.714
10254TIP3    H230720   7.221   2.118   0.602
10255TIP3   OH230721   8.162   3.294   2.396
10255TIP3    H130722   8.126   3.365   2.449
10255TIP3    H230723   8.245   3.272   2.439
10256TIP3   OH230724   7.412   3.551   2.486
10256TIP3    H130725   7.328   3.521   2.452
10256TIP3    H230726   7.476   3.492   2.446
10257TIP3   OH230727   2.966   0.391   4.376
10257TIP3    H130728   3.061   0.396   4.385
10257TIP3    H230729   2.933   0.425   4.460
10258TIP3   OH230730   2.424   5.407   2.700
10258TIP3    H130731   2.369   5.344   2.654
10258TIP3    H230732   2.513   5.376   2.685
10259TIP3   OH230733   7.797   6.700   4.571
10259TIP3    H130734   7.701   6.699   4.568
10259TIP3    H230735   7.820   6.793   4.577
10260TIP3   OH230736   1.888   6.971   2.135
10260TIP3    H130737   1.804   6.937   2.167
10260TIP3    H230738   1.934   6.894   2.102
10261TIP3   OH230739   0.094   2.503   1.198
10261TIP3    H130740   0.079   2.469   1.109
10261TIP3    H230741   0.013   2.483   1.244
10262TIP3   OH230742   7.251   4.157   0.538
10262TIP3    H130743   7.346   4.157   0.539
10262TIP3    H230744   7.226   4.127   0.625
10263TIP3   OH230745   0.944   4.628   4.686
10263TIP3    H130746   1.001   4.672   4.622
10263TIP3    H230747   0.944   4.536   4.658
10264TIP3   OH230748   0.984   0.107   5.332
10264TIP3    H130749   0.972   0.023   5.376
10264TIP3    H230750   1.010   0.167   5.402
10265TIP3   OH230751   5.511   5.661   0.059
10265TIP3    H130752   5.434   5.706   0.094
10265TIP3    H230753   5.494   5.653  -0.035
10266TIP3   OH230754   8.161   4.080   3.648
10266TIP3    H130755   8.143   4.160   3.598
10266TIP3    H230756   8.214   4.111   3.722
10267TIP3   OH230757   6.027   2.709   6.145
10267TIP3    H130758   6.053   2.801   6.144
10267TIP3    H230759   5.957   2.703   6.080
10268TIP3   OH230760   1.530   3.313   0.166
10268TIP3    H130761   1.443   3.309   0.205
10268TIP3    H230762   1.578   3.374   0.222
10269TIP3   OH230763   6.822   5.660   3.805
10269TIP3    H130764   6.912   5.690   3.818
10269TIP3    H230765   6.830   5.566   3.791
10270TIP3   OH230766   4.718   1.997   3.914
10270TIP3    H130767   4.676   2.015   3.830
10270TIP3    H230768   4.799   1.952   3.891
10271TIP3   OH230769   2.826   1.115   5.490
10271TIP3    H130770   2.795   1.101   5.580
10271TIP3    H230771   2.918   1.139   5.500
10272TIP3   OH230772   4.070   0.823   5.588
10272TIP3    H130773   3.998   0.780   5.634
10272TIP3    H230774   4.135   0.842   5.657
10273TIP3   OH230775   8.187   1.281   6.220
10273TIP3    H130776   8.180   1.215   6.151
10273TIP3    H230777   8.172   1.364   6.175
10274TIP3   OH230778   3.793   4.574   4.989
10274TIP3    H130779   3.735   4.598   4.916
10274TIP3    H230780   3.816   4.483   4.971
10275TIP3   OH230781   2.062   3.346   2.329
10275TIP3    H130782   2.051   3.437   2.356
10275TIP3    H230783   2.097   3.352   2.240
10276TIP3   OH230784   4.579   2.619   2.171
10276TIP3    H130785   4.668   2.584   2.170
10276TIP3    H230786   4.529   2.559   2.116
10277TIP3   OH230787   4.410   3.569   2.313
10277TIP3    H130788   4.414   3.613   2.228
10277TIP3    H230789   4.346   3.499   2.301
10278TIP3   OH230790   4.782   7.606   1.564
10278TIP3    H130791   4.830   7.539   1.612
10278TIP3    H230792   4.736   7.656   1.631
10279TIP3   OH230793   3.897   3.359   3.653
10279TIP3    H130794   3.834   3.416   3.609
10279TIP3    H230795   3.896   3.278   3.601
10280TIP3   OH230796   1.358   2.698   1.841
10280TIP3    H130797   1.408   2.637   1.895
10280TIP3    H230798   1.398   2.692   1.755
10281TIP3   OH230799   0.039   7.546   0.916
10281TIP3    H130800   0.103   7.526   0.847
10281TIP3    H230801  -0.045   7.549   0.871
10282TIP3   OH230802   5.828   7.161   4.404
10282TIP3    H130803   5.768   7.097   4.365
10282TIP3    H230804   5.910   7.150   4.356
10283TIP3   OH230805   7.940   4.767   3.171
10283TIP3    H130806   7.978   4.818   3.099
10283TIP3    H230807   7.848   4.795   3.174
10284TIP3   OH230808   7.081   1.270   6.754
10284TIP3    H130809   7.141   1.320   6.809
10284TIP3    H230810   7.010   1.330   6.734
10285TIP3   OH230811   4.463   2.503   3.934
10285TIP3    H130812   4.443   2.449   4.010
10285TIP3    H230813   4.468   2.592   3.968
10286TIP3   OH230814   2.251   4.774   5.165
10286TIP3    H130815   2.260   4.853   5.112
10286TIP3    H230816   2.218   4.708   5.105
10287TIP3   OH230817   2.450   7.761   1.162
10287TIP3    H130818   2.520   7.813   1.124
10287TIP3    H230819   2.371   7.813   1.150
10288TIP3   OH230820   6.053   3.872   6.081
10288TIP3    H130821   6.010   3.957   6.089
10288TIP3    H230822   6.146   3.891   6.092
10289TIP3   OH230823   2.290   4.123   3.386
10289TIP3    H130824   2.294   4.155   3.476
10289TIP3    H230825   2.247   4.193   3.337
10290TIP3   OH230826   7.400   7.607   4.506
10290TIP3    H130827   7.397   7.517   4.475
10290TIP3    H230828   7.322   7.648   4.469
10291TIP3   OH230829   0.582   0.862   3.614
10291TIP3    H130830   0.518   0.844   3.683
10291TIP3    H230831   0.664   0.827   3.649
10292TIP3   OH230832   5.177   6.967   3.288
10292TIP3    H130833   5.200   7.053   3.321
10292TIP3    H230834   5.215   6.906   3.351
10293TIP3   OH230835   7.715   3.059   1.063
10293TIP3    H130836   7.626   3.042   1.093
10293TIP3    H230837   7.769   3.048   1.142
10294TIP3   OH230838   7.339   4.387   4.323
10294TIP3    H130839   7.328   4.480   4.340
10294TIP3    H230840   7.430   4.378   4.295
10295TIP3   OH230841   6.461   0.197   6.739
10295TIP3    H130842   6.368   0.178   6.734
10295TIP3    H230843   6.485   0.226   6.650
10296TIP3   OH230844   0.735   7.646   6.554
10296TIP3    H130845   0.681   7.661   6.476
10296TIP3    H230846   0.679   7.673   6.627
10297TIP3   OH230847   3.442   6.416   1.911
10297TIP3    H130848   3.480   6.425   1.999
10297TIP3    H230849   3.398   6.331   1.913
10298TIP3   OH230850   4.419   1.163   3.822
10298TIP3    H130851   4.385   1.103   3.888
10298TIP3    H230852   4.413   1.114   3.740
10299TIP3   OH230853   6.048   1.478   0.282
10299TIP3    H130854   6.065   1.572   0.280
10299TIP3    H230855   5.966   1.467   0.233
10300TIP3   OH230856   2.452   3.340   3.944
10300TIP3    H130857   2.433   3.358   4.036
10300TIP3    H230858   2.546   3.323   3.941
10301TIP3   OH230859   6.614   1.985   2.805
10301TIP3    H130860   6.578   2.066   2.841
10301TIP3    H230861   6.620   1.926   2.880
10302TIP3   OH230862   2.311   2.199   0.299
10302TIP3    H130863   2.374   2.223   0.231
10302TIP3    H230864   2.357   2.134   0.353
10303TIP3   OH230865   3.735   6.581   2.817
10303TIP3    H130866   3.718   6.645   2.886
10303TIP3    H230867   3.788   6.629   2.752
10304TIP3   OH230868   4.896   0.439   5.088
10304TIP3    H130869   4.987   0.467   5.100
10304TIP3    H230870   4.855   0.512   5.042
10305TIP3   OH230871   6.935   7.053   0.741
10305TIP3    H130872   6.998   7.016   0.678
10305TIP3    H230873   6.956   7.146   0.743
10306TIP3   OH230874   6.477   2.202   0.294
10306TIP3    H130875   6.479   2.127   0.354
10306TIP3    H230876   6.551   2.188   0.235
10307TIP3   OH230877   7.319   3.471   3.341
10307TIP3    H130878   7.241   3.501   3.294
10307TIP3    H230879   7.382   3.542   3.327
10308TIP3   OH230880   4.184   6.017   1.948
10308TIP3    H130881   4.118   6.080   1.977
10308TIP3    H230882   4.247   6.012   2.020
10309TIP3   OH230883   1.130   4.758   3.622
10309TIP3    H130884   1.123   4.796   3.535
10309TIP3    H230885   1.215   4.715   3.623
10310TIP3   OH230886   6.689   4.887   3.496
10310TIP3    H130887   6.686   4.837   3.415
10310TIP3    H230888   6.597   4.901   3.518
10311TIP3   OH230889   1.291   2.239   6.533
10311TIP3    H130890   1.247   2.160   6.564
10311TIP3    H230891   1.220   2.302   6.520
10312TIP3   OH230892   2.916   6.971   1.236
10312TIP3    H130893   2.897   6.985   1.328
10312TIP3    H230894   2.909   7.057   1.196
10313TIP3   OH230895   8.251   6.287   1.047
10313TIP3    H130896   8.190   6.217   1.025
10313TIP3    H230897   8.331   6.242   1.073
10314TIP3   OH230898   1.731   3.721   5.655
10314TIP3    H130899   1.725   3.793   5.593
10314TIP3    H230900   1.818   3.730   5.694
10315TIP3   OH230901   6.333   3.225   3.927
10315TIP3    H130902   6.285   3.269   3.857
10315TIP3    H230903   6.274   3.156   3.957
10316TIP3   OH230904   4.511   1.075   0.711
10316TIP3    H130905   4.430   1.036   0.743
10316TIP3    H230906   4.577   1.049   0.775
10317TIP3   OH230907   3.899   2.864   1.813
10317TIP3    H130908   3.929   2.818   1.892
10317TIP3    H230909   3.809   2.888   1.832
10318TIP3   OH230910   3.419   5.622   4.032
10318TIP3    H130911   3.345   5.584   4.081
10318TIP3    H230912   3.496   5.601   4.085
10319TIP3   OH230913   6.193   4.702   5.913
10319TIP3    H130914   6.234   4.749   5.985
10319TIP3    H230915   6.234   4.615   5.915
10320TIP3   OH230916   3.394   0.050   5.602
10320TIP3    H130917   3.338   0.124   5.578
10320TIP3    H230918   3.368  -0.020   5.542
10321TIP3   OH230919   0.662   2.596   3.326
10321TIP3    H130920   0.577   2.566   3.295
10321TIP3    H230921   0.715   2.605   3.246
10322TIP3   OH230922   7.531   5.247   0.700
10322TIP3    H130923   7.496   5.285   0.781
10322TIP3    H230924   7.461   5.260   0.635
10323TIP3   OH230925   1.889   5.900   6.172
10323TIP3    H130926   1.870   5.806   6.162
10323TIP3    H230927   1.804   5.943   6.159
10324TIP3   OH230928   3.459   3.621   2.557
10324TIP3    H130929   3.376   3.625   2.605
10324TIP3    H230930   3.487   3.712   2.551
10325TIP3   OH230931   1.857   5.738   2.396
10325TIP3    H130932   1.763   5.737   2.379
10325TIP3    H230933   1.864   5.719   2.490
10326TIP3   OH230934   0.530   6.036   6.742
10326TIP3    H130935   0.604   5.976   6.749
10326TIP3    H230936   0.476   6.017   6.818
10327TIP3   OH230937   2.447   4.064   2.061
10327TIP3    H130938   2.484   4.099   2.143
10327TIP3    H230939   2.370   4.015   2.089
10328TIP3   OH230940   0.885   0.621   4.857
10328TIP3    H130941   0.943   0.672   4.802
10328TIP3    H230942   0.832   0.569   4.796
10329TIP3   OH230943   4.304   7.753   4.804
10329TIP3    H130944   4.228   7.695   4.802
10329TIP3    H230945   4.310   7.781   4.895
10330TIP3   OH230946   6.142   5.902   1.400
10330TIP3    H130947   6.215   5.944   1.446
10330TIP3    H230948   6.100   5.973   1.351
10331TIP3   OH230949   6.227   5.948   6.427
10331TIP3    H130950   6.198   5.926   6.515
10331TIP3    H230951   6.162   5.908   6.370
10332TIP3   OH230952   0.402   7.822   4.701
10332TIP3    H130953   0.324   7.844   4.649
10332TIP3    H230954   0.370   7.817   4.791
10333TIP3   OH230955   5.700   6.476   3.429
10333TIP3    H130956   5.750   6.556   3.411
10333TIP3    H230957   5.754   6.406   3.392
10334TIP3   OH230958   3.422   0.425   2.280
10334TIP3    H130959   3.357   0.421   2.210
10334TIP3    H230960   3.469   0.506   2.265
10335TIP3   OH230961   6.063   2.002   2.098
10335TIP3    H130962   5.968   1.999   2.090
10335TIP3    H230963   6.086   1.919   2.141
10336TIP3   OH230964   2.114   6.427   4.955
10336TIP3    H130965   2.158   6.463   4.878
10336TIP3    H230966   2.110   6.500   5.017
10337TIP3   OH230967   5.321   6.657   0.818
10337TIP3    H130968   5.304   6.677   0.726
10337TIP3    H230969   5.382   6.725   0.846
10338TIP3   OH230970   2.726   5.307   5.946
10338TIP3    H130971   2.694   5.242   6.007
10338TIP3    H230972   2.664   5.305   5.873
10339TIP3   OH230973   7.404   1.513   4.053
10339TIP3    H130974   7.387   1.421   4.033
10339TIP3    H230975   7.451   1.547   3.977
10340TIP3   OH230976   2.578   4.279   0.100
10340TIP3    H130977   2.566   4.277   0.195
10340TIP3    H230978   2.491   4.296   0.065
10341TIP3   OH230979   3.038   6.963   4.802
10341TIP3    H130980   3.077   7.048   4.822
10341TIP3    H230981   3.103   6.899   4.831
10342TIP3   OH230982   2.966   1.345   0.075
10342TIP3    H130983   3.018   1.267   0.093
10342TIP3    H230984   3.026   1.404   0.029
10343TIP3   OH230985   4.971   3.280   6.057
10343TIP3    H130986   4.900   3.344   6.048
10343TIP3    H230987   4.992   3.282   6.151
10344TIP3   OH230988   5.970   2.929   2.071
10344TIP3    H130989   6.064   2.945   2.071
10344TIP3    H230990   5.961   2.841   2.034
10345TIP3   OH230991   0.825   7.450   0.781
10345TIP3    H130992   0.739   7.408   0.787
10345TIP3    H230993   0.880   7.384   0.739
10346TIP3   OH230994   7.663   4.846   4.531
10346TIP3    H130995   7.635   4.847   4.440
10346TIP3    H230996   7.719   4.924   4.539
10347TIP3   OH230997   2.040   3.008   0.379
10347TIP3    H130998   1.996   3.078   0.330
10347TIP3    H230999   2.125   2.998   0.336
10348TIP3   OH231000   5.537   5.580   1.037
10348TIP3    H131001   5.595   5.512   1.070
10348TIP3    H231002   5.513   5.631   1.114
10349TIP3   OH231003   1.710   6.145   0.150
10349TIP3    H131004   1.735   6.167   0.061
10349TIP3    H231005   1.678   6.055   0.145
10350TIP3   OH231006   1.495   5.444   5.594
10350TIP3    H131007   1.450   5.442   5.679
10350TIP3    H231008   1.501   5.537   5.573
10351TIP3   OH231009   7.000   1.657   4.761
10351TIP3    H131010   6.931   1.690   4.819
10351TIP3    H231011   6.997   1.716   4.686
10352TIP3   OH231012   7.687   4.132   1.494
10352TIP3    H131013   7.723   4.044   1.506
10352TIP3    H231014   7.600   4.129   1.533
10353TIP3   OH231015   4.988   7.123   4.059
10353TIP3    H131016   5.067   7.081   4.026
10353TIP3    H231017   4.979   7.093   4.149
10354TIP3   OH231018   8.265   7.430   5.652
10354TIP3    H131019   8.267   7.501   5.589
10354TIP3    H231020   8.222   7.358   5.606
10355TIP3   OH231021   8.273   4.277   5.122
10355TIP3    H131022   8.334   4.330   5.173
10355TIP3    H231023   8.280   4.189   5.160
10356TIP3   OH231024   5.355   0.208   3.175
10356TIP3    H131025   5.341   0.184   3.084
10356TIP3    H231026   5.308   0.140   3.225
10357TIP3   OH231027   5.018   4.895   2.895
10357TIP3    H131028   4.997   4.931   2.810
10357TIP3    H231029   4.954   4.825   2.908
10358TIP3   OH231030   2.068   0.865   0.093
10358TIP3    H131031   2.122   0.854   0.171
10358TIP3    H231032   2.130   0.882   0.022
10359TIP3   OH231033   5.236   3.335   6.012
10359TIP3    H131034   5.156   3.283   6.020
10359TIP3    H231035   5.207   3.425   6.027
10360TIP3   OH231036   3.571   0.914   0.741
10360TIP3    H131037   3.596   0.901   0.833
10360TIP3    H231038   3.559   0.825   0.707
10361TIP3   OH231039   5.158   2.024   5.810
10361TIP3    H131040   5.065   2.035   5.789
10361TIP3    H231041   5.182   1.943   5.766
10362TIP3   OH231042   5.994   3.060   0.434
10362TIP3    H131043   6.005   2.968   0.455
10362TIP3    H231044   6.033   3.107   0.508
10363TIP3   OH231045   5.185   4.081   5.653
10363TIP3    H131046   5.145   4.143   5.713
10363TIP3    H231047   5.196   4.131   5.571
10364TIP3   OH231048   0.506   0.059   2.631
10364TIP3    H131049   0.509  -0.037   2.625
10364TIP3    H231050   0.523   0.077   2.724
10365TIP3   OH231051   2.650   2.596   0.542
10365TIP3    H131052   2.717   2.573   0.478
10365TIP3    H231053   2.689   2.668   0.593
10366TIP3   OH231054   7.529   3.053   5.992
10366TIP3    H131055   7.469   3.086   6.058
10366TIP3    H231056   7.480   3.059   5.910
10367TIP3   OH231057   6.540   4.953   1.163
10367TIP3    H131058   6.612   4.989   1.110
10367TIP3    H231059   6.510   5.027   1.216
10368TIP3   OH231060   5.276   0.953   1.750
10368TIP3    H131061   5.207   0.961   1.816
10368TIP3    H231062   5.230   0.930   1.670
10369TIP3   OH231063   4.028   2.768   0.061
10369TIP3    H131064   4.093   2.834   0.084
10369TIP3    H231065   3.989   2.742   0.145
10370TIP3   OH231066   6.469   0.773   6.594
10370TIP3    H131067   6.515   0.826   6.659
10370TIP3    H231068   6.433   0.700   6.644
10371TIP3   OH231069   5.251   6.491   2.731
10371TIP3    H131070   5.216   6.411   2.771
10371TIP3    H231071   5.272   6.465   2.641
10372TIP3   OH231072   7.616   1.978   2.025
10372TIP3    H131073   7.700   1.992   2.070
10372TIP3    H231074   7.636   1.911   1.960
10373TIP3   OH231075   5.753   4.412   0.699
10373TIP3    H131076   5.834   4.417   0.649
10373TIP3    H231077   5.693   4.362   0.643
10374TIP3   OH231078   2.948   5.090   5.254
10374TIP3    H131079   3.002   5.163   5.283
10374TIP3    H231080   3.010   5.027   5.218
10375TIP3   OH231081   0.678   2.803   2.268
10375TIP3    H131082   0.705   2.835   2.182
10375TIP3    H231083   0.623   2.726   2.249
10376TIP3   OH231084   3.582   2.841   3.192
10376TIP3    H131085   3.541   2.927   3.190
10376TIP3    H231086   3.540   2.795   3.264
10377TIP3   OH231087   0.406   2.699   2.642
10377TIP3    H131088   0.387   2.709   2.549
10377TIP3    H231089   0.479   2.758   2.659
10378TIP3   OH231090   2.720   2.062   4.136
10378TIP3    H131091   2.770   2.013   4.202
10378TIP3    H231092   2.649   2.103   4.186
10379TIP3   OH231093   0.331   6.899   6.060
10379TIP3    H131094   0.420   6.913   6.028
10379TIP3    H231095   0.290   6.985   6.054
10380TIP3   OH231096   6.792   6.914   4.728
10380TIP3    H131097   6.821   6.932   4.638
10380TIP3    H231098   6.760   6.824   4.726
10381TIP3   OH231099   7.168   5.068   1.536
10381TIP3    H131100   7.177   5.151   1.489
10381TIP3    H231101   7.133   5.007   1.472
10382TIP3   OH231102   2.188   0.539   1.380
10382TIP3    H131103   2.187   0.634   1.386
10382TIP3    H231104   2.169   0.509   1.469
10383TIP3   OH231105   8.004   0.379   5.442
10383TIP3    H131106   8.058   0.314   5.397
10383TIP3    H231107   8.055   0.402   5.520
10384TIP3   OH231108   3.302   1.596   3.885
10384TIP3    H131109   3.332   1.684   3.863
10384TIP3    H231110   3.366   1.564   3.948
10385TIP3   OH231111   3.574   1.007   1.396
10385TIP3    H131112   3.530   1.068   1.455
10385TIP3    H231113   3.552   0.920   1.429
10386TIP3   OH231114   1.694   6.327   3.938
10386TIP3    H131115   1.779   6.285   3.926
10386TIP3    H231116   1.681   6.379   3.858
10387TIP3   OH231117   8.286   3.571   1.593
10387TIP3    H131118   8.295   3.661   1.560
10387TIP3    H231119   8.196   3.547   1.572
10388TIP3   OH231120   0.807   7.775   0.023
10388TIP3    H131121   0.845   7.692  -0.008
10388TIP3    H231122   0.852   7.793   0.105
10389TIP3   OH231123   7.636   2.164   6.331
10389TIP3    H131124   7.717   2.116   6.349
10389TIP3    H231125   7.622   2.153   6.237
10390TIP3   OH231126   5.557   6.616   1.192
10390TIP3    H131127   5.488   6.667   1.149
10390TIP3    H231128   5.621   6.681   1.220
10391TIP3   OH231129   7.608   7.765   3.625
10391TIP3    H131130   7.578   7.849   3.661
10391TIP3    H231131   7.703   7.775   3.617
10392TIP3   OH231132   1.311   1.128   4.974
10392TIP3    H131133   1.303   1.162   4.884
10392TIP3    H231134   1.370   1.189   5.017
10393TIP3   OH231135   2.487   3.676   3.994
10393TIP3    H131136   2.441   3.600   3.957
10393TIP3    H231137   2.451   3.751   3.948
10394TIP3   OH231138   6.709   2.587   4.568
10394TIP3    H131139   6.700   2.637   4.649
10394TIP3    H231140   6.661   2.637   4.503
10395TIP3   OH231141   3.393   0.344   2.545
10395TIP3    H131142   3.404   0.384   2.459
10395TIP3    H231143   3.480   0.346   2.584
10396TIP3   OH231144   2.483   7.607   4.671
10396TIP3    H131145   2.491   7.532   4.612
10396TIP3    H231146   2.393   7.636   4.660
10397TIP3   OH231147   2.472   4.578   4.107
10397TIP3    H131148   2.401   4.641   4.116
10397TIP3    H231149   2.461   4.543   4.018
10398TIP3   OH231150   7.420   6.432   5.542
10398TIP3    H131151   7.513   6.433   5.565
10398TIP3    H231152   7.375   6.435   5.626
10399TIP3   OH231153   0.552   2.250   1.941
10399TIP3    H131154   0.493   2.319   1.912
10399TIP3    H231155   0.639   2.280   1.916
10400TIP3   OH231156   4.100   0.372   4.781
10400TIP3    H131157   4.194   0.358   4.794
10400TIP3    H231158   4.058   0.295   4.819
10401TIP3   OH231159   2.405   7.529   1.559
10401TIP3    H131160   2.404   7.466   1.486
10401TIP3    H231161   2.390   7.614   1.518
10402TIP3   OH231162   1.788   4.274   2.615
10402TIP3    H131163   1.866   4.245   2.568
10402TIP3    H231164   1.749   4.340   2.557
10403TIP3   OH231165   7.177   3.944   4.222
10403TIP3    H131166   7.200   4.026   4.179
10403TIP3    H231167   7.184   3.962   4.316
10404TIP3   OH231168   2.692   4.312   1.463
10404TIP3    H131169   2.659   4.223   1.472
10404TIP3    H231170   2.710   4.323   1.370
10405TIP3   OH231171   3.565   5.741   3.592
10405TIP3    H131172   3.584   5.679   3.662
10405TIP3    H231173   3.588   5.694   3.511
10406TIP3   OH231174   6.477   6.800   5.640
10406TIP3    H131175   6.435   6.857   5.575
10406TIP3    H231176   6.571   6.809   5.623
10407TIP3   OH231177   2.390   7.381   2.077
10407TIP3    H131178   2.401   7.345   2.165
10407TIP3    H231179   2.309   7.341   2.045
10408TIP3   OH231180   0.273   0.553   2.151
10408TIP3    H131181   0.210   0.610   2.195
10408TIP3    H231182   0.225   0.473   2.133
10409TIP3   OH231183   6.872   7.121   6.105
10409TIP3    H131184   6.964   7.106   6.129
10409TIP3    H231185   6.877   7.177   6.027
10410TIP3   OH231186   2.497   1.670   1.413
10410TIP3    H131187   2.425   1.653   1.472
10410TIP3    H231188   2.518   1.763   1.425
10411TIP3   OH231189   7.610   6.253   5.334
10411TIP3    H131190   7.555   6.306   5.392
10411TIP3    H231191   7.554   6.180   5.308
10412TIP3   OH231192   4.986   2.237   2.941
10412TIP3    H131193   5.031   2.154   2.956
10412TIP3    H231194   5.055   2.303   2.944
10413TIP3   OH231195   4.617   5.764   4.344
10413TIP3    H131196   4.668   5.831   4.390
10413TIP3    H231197   4.649   5.681   4.380
10414TIP3   OH231198   2.680   4.607   1.428
10414TIP3    H131199   2.665   4.523   1.471
10414TIP3    H231200   2.755   4.592   1.371
10415TIP3   OH231201   3.625   2.834   1.605
10415TIP3    H131202   3.589   2.790   1.682
10415TIP3    H231203   3.606   2.927   1.619
10416TIP3   OH231204   6.487   3.764   0.980
10416TIP3    H131205   6.441   3.704   0.921
10416TIP3    H231206   6.494   3.846   0.931
10417TIP3   OH231207   1.265   3.396   0.253
10417TIP3    H131208   1.238   3.357   0.170
10417TIP3    H231209   1.189   3.447   0.281
10418TIP3   OH231210   7.981   0.884   4.441
10418TIP3    H131211   7.972   0.816   4.375
10418TIP3    H231212   7.970   0.966   4.393
10419TIP3   OH231213   2.811   5.715   0.364
10419TIP3    H131214   2.820   5.778   0.293
10419TIP3    H231215   2.886   5.656   0.354
10420TIP3   OH231216   4.075   2.191   6.432
10420TIP3    H131217   4.132   2.122   6.398
10420TIP3    H231218   3.996   2.186   6.378
10421TIP3   OH231219   0.792   0.274   1.430
10421TIP3    H131220   0.741   0.203   1.390
10421TIP3    H231221   0.730   0.317   1.489
10422TIP3   OH231222   6.537   0.793   2.929
10422TIP3    H131223   6.600   0.771   2.860
10422TIP3    H231224   6.579   0.865   2.978
10423TIP3   OH231225   2.623   7.558   2.096
10423TIP3    H131226   2.549   7.498   2.083
10423TIP3    H231227   2.685   7.534   2.027
10424TIP3   OH231228   3.358   7.567   1.585
10424TIP3    H131229   3.289   7.621   1.545
10424TIP3    H231230   3.425   7.630   1.612
10425TIP3   OH231231   7.584   2.058   3.163
10425TIP3    H131232   7.666   2.079   3.119
10425TIP3    H231233   7.579   2.121   3.234
10426TIP3   OH231234   3.882   0.619   3.760
10426TIP3    H131235   3.809   0.588   3.813
10426TIP3    H231236   3.883   0.714   3.774
10427TIP3   OH231237   4.273   2.724   1.976
10427TIP3    H131238   4.276   2.637   1.936
10427TIP3    H231239   4.352   2.768   1.945
10428TIP3   OH231240   1.981   4.757   2.717
10428TIP3    H131241   2.042   4.685   2.730
10428TIP3    H231242   2.026   4.834   2.753
10429TIP3   OH231243   6.059   5.441   5.428
10429TIP3    H131244   6.087   5.373   5.490
10429TIP3    H231245   6.137   5.495   5.415
10430TIP3   OH231246   3.075   3.501   3.690
10430TIP3    H131247   3.020   3.565   3.645
10430TIP3    H231248   3.165   3.532   3.675
10431TIP3   OH231249   6.914   0.631   2.675
10431TIP3    H131250   6.836   0.669   2.635
10431TIP3    H231251   6.909   0.656   2.768
10432TIP3   OH231252   2.928   5.672   5.644
10432TIP3    H131253   2.958   5.758   5.617
10432TIP3    H231254   2.914   5.679   5.738
10433TIP3   OH231255   7.857   2.347   4.395
10433TIP3    H131256   7.937   2.294   4.392
10433TIP3    H231257   7.868   2.410   4.324
10434TIP3   OH231258   3.764   7.702   5.869
10434TIP3    H131259   3.729   7.638   5.931
10434TIP3    H231260   3.835   7.746   5.917
10435TIP3   OH231261   5.480   2.752   4.940
10435TIP3    H131262   5.504   2.844   4.953
10435TIP3    H231263   5.562   2.704   4.953
10436TIP3   OH231264   2.876   0.080   2.230
10436TIP3    H131265   2.945   0.029   2.188
10436TIP3    H231266   2.873   0.047   2.320
10437TIP3   OH231267   4.340   6.233   2.639
10437TIP3    H131268   4.309   6.176   2.709
10437TIP3    H231269   4.414   6.281   2.678
10438TIP3   OH231270   3.655   7.308   4.963
10438TIP3    H131271   3.566   7.337   4.985
10438TIP3    H231272   3.670   7.342   4.875
10439TIP3   OH231273   3.459   7.517   4.971
10439TIP3    H131274   3.470   7.546   4.881
10439TIP3    H231275   3.366   7.529   4.989
10440TIP3   OH231276   7.639   3.302   5.938
10440TIP3    H131277   7.615   3.229   5.995
10440TIP3    H231278   7.609   3.276   5.851
10441TIP3   OH231279   6.528   0.636   5.191
10441TIP3    H131280   6.476   0.557   5.180
10441TIP3    H231281   6.614   0.613   5.155
10442TIP3   OH231282   3.712   1.629   5.184
10442TIP3    H131283   3.690   1.583   5.265
10442TIP3    H231284   3.774   1.696   5.212
10443TIP3   OH231285   0.450   5.123   5.574
10443TIP3    H131286   0.532   5.083   5.604
10443TIP3    H231287   0.455   5.121   5.479
10444TIP3   OH231288   7.991   5.763   1.024
10444TIP3    H131289   7.912   5.794   1.070
10444TIP3    H231290   7.957   5.727   0.941
10445TIP3   OH231291   1.849   2.168   3.456
10445TIP3    H131292   1.874   2.207   3.539
10445TIP3    H231293   1.911   2.205   3.393
10446TIP3   OH231294   8.123   0.470   3.718
10446TIP3    H131295   8.206   0.517   3.719
10446TIP3    H231296   8.139   0.396   3.659
10447TIP3   OH231297   5.026   3.525   4.508
10447TIP3    H131298   4.945   3.476   4.515
10447TIP3    H231299   5.000   3.617   4.518
10448TIP3   OH231300   5.230   3.483   1.078
10448TIP3    H131301   5.196   3.572   1.067
10448TIP3    H231302   5.308   3.494   1.133
10449TIP3   OH231303   2.354   5.245   1.751
10449TIP3    H131304   2.401   5.162   1.743
10449TIP3    H231305   2.329   5.266   1.661
10450TIP3   OH231306   0.206   3.769   3.461
10450TIP3    H131307   0.228   3.707   3.531
10450TIP3    H231308   0.112   3.756   3.446
10451TIP3   OH231309   3.148   6.892   1.634
10451TIP3    H131310   3.155   6.957   1.565
10451TIP3    H231311   3.181   6.811   1.594
10452TIP3   OH231312   1.319   1.328   3.482
10452TIP3    H131313   1.225   1.310   3.479
10452TIP3    H231314   1.351   1.276   3.556
10453TIP3   OH231315   7.359   3.326   5.604
10453TIP3    H131316   7.352   3.393   5.672
10453TIP3    H231317   7.284   3.342   5.547
10454TIP3   OH231318   3.020   0.121   1.174
10454TIP3    H131319   2.941   0.164   1.205
10454TIP3    H231320   3.053   0.179   1.105
10455TIP3   OH231321   8.197   2.161   2.938
10455TIP3    H131322   8.171   2.160   2.846
10455TIP3    H231323   8.145   2.092   2.978
10456TIP3   OH231324   1.785   3.227   0.605
10456TIP3    H131325   1.853   3.161   0.620
10456TIP3    H231326   1.830   3.296   0.556
10457TIP3   OH231327   2.920   4.665   1.852
10457TIP3    H131328   2.885   4.748   1.884
10457TIP3    H231329   2.968   4.689   1.773
10458TIP3   OH231330   7.351   0.294   4.288
10458TIP3    H131331   7.317   0.378   4.317
10458TIP3    H231332   7.289   0.264   4.221
10459TIP3   OH231333   7.105   1.888   3.749
10459TIP3    H131334   7.185   1.937   3.730
10459TIP3    H231335   7.068   1.868   3.663
10460TIP3   OH231336   4.161   4.451   5.926
10460TIP3    H131337   4.184   4.489   6.011
10460TIP3    H231338   4.234   4.393   5.906
10461TIP3   OH231339   2.604   5.599   3.806
10461TIP3    H131340   2.520   5.602   3.761
10461TIP3    H231341   2.635   5.509   3.795
10462TIP3   OH231342   7.034   1.557   2.723
10462TIP3    H131343   6.980   1.636   2.716
10462TIP3    H231344   7.110   1.575   2.668
10463TIP3   OH231345   1.675   3.503   5.481
10463TIP3    H131346   1.736   3.553   5.426
10463TIP3    H231347   1.668   3.554   5.562
10464TIP3   OH231348   3.320   2.337   4.879
10464TIP3    H131349   3.404   2.353   4.922
10464TIP3    H231350   3.334   2.364   4.788
10465TIP3   OH231351   2.394   5.440   3.260
10465TIP3    H131352   2.318   5.475   3.215
10465TIP3    H231353   2.401   5.493   3.340
10466TIP3   OH231354   4.739   3.089   2.438
10466TIP3    H131355   4.655   3.133   2.430
10466TIP3    H231356   4.725   3.002   2.401
10467TIP3   OH231357   3.675   3.191   1.038
10467TIP3    H131358   3.762   3.203   1.000
10467TIP3    H231359   3.691   3.175   1.131
10468TIP3   OH231360   5.462   0.845   1.402
10468TIP3    H131361   5.464   0.861   1.308
10468TIP3    H231362   5.371   0.861   1.427
10469TIP3   OH231363   3.875   7.258   0.285
10469TIP3    H131364   3.908   7.170   0.268
10469TIP3    H231365   3.780   7.251   0.273
10470TIP3   OH231366   3.306   6.940   1.383
10470TIP3    H131367   3.315   7.034   1.396
10470TIP3    H231368   3.384   6.903   1.425
10471TIP3   OH231369   5.407   4.407   1.939
10471TIP3    H131370   5.356   4.461   1.879
10471TIP3    H231371   5.350   4.394   2.015
10472TIP3   OH231372   1.395   7.358   6.542
10472TIP3    H131373   1.355   7.352   6.629
10472TIP3    H231374   1.489   7.346   6.558
10473TIP3   OH231375   7.290   5.700   1.250
10473TIP3    H131376   7.234   5.776   1.267
10473TIP3    H231377   7.270   5.676   1.160
10474TIP3   OH231378   2.061   2.603   3.278
10474TIP3    H131379   2.023   2.656   3.348
10474TIP3    H231380   2.146   2.644   3.261
10475TIP3   OH231381   2.545   2.123   2.550
10475TIP3    H131382   2.529   2.068   2.473
10475TIP3    H231383   2.639   2.111   2.567
10476TIP3   OH231384   3.156   6.591   3.670
10476TIP3    H131385   3.155   6.685   3.689
10476TIP3    H231386   3.085   6.556   3.723
10477TIP3   OH231387   7.944   2.460   1.032
10477TIP3    H131388   7.987   2.405   0.967
10477TIP3    H231389   7.885   2.401   1.079
10478TIP3   OH231390   8.239   0.864   5.573
10478TIP3    H131391   8.193   0.834   5.494
10478TIP3    H231392   8.320   0.903   5.539
10479TIP3   OH231393   0.439   6.559   2.808
10479TIP3    H131394   0.458   6.515   2.891
10479TIP3    H231395   0.481   6.645   2.817
10480TIP3   OH231396   5.408   6.313   3.866
10480TIP3    H131397   5.332   6.370   3.854
10480TIP3    H231398   5.456   6.321   3.783
10481TIP3   OH231399   0.594   4.861   5.002
10481TIP3    H131400   0.669   4.822   4.958
10481TIP3    H231401   0.519   4.835   4.949
10482TIP3   OH231402   2.921   5.707   5.931
10482TIP3    H131403   2.827   5.693   5.922
10482TIP3    H231404   2.929   5.760   6.011
10483TIP3   OH231405   4.329   1.330   4.923
10483TIP3    H131406   4.347   1.423   4.938
10483TIP3    H231407   4.291   1.299   5.006
10484TIP3   OH231408   1.447   0.993   2.789
10484TIP3    H131409   1.392   0.918   2.812
10484TIP3    H231410   1.449   0.992   2.693
10485TIP3   OH231411   6.003   2.846   1.193
10485TIP3    H131412   5.917   2.887   1.200
10485TIP3    H231413   5.992   2.781   1.123
10486TIP3   OH231414   3.786   3.079   5.134
10486TIP3    H131415   3.709   3.129   5.105
10486TIP3    H231416   3.750   3.015   5.195
10487TIP3   OH231417   1.471   5.848   0.919
10487TIP3    H131418   1.538   5.781   0.906
10487TIP3    H231419   1.403   5.805   0.970
10488TIP3   OH231420   6.550   1.259   6.629
10488TIP3    H131421   6.588   1.346   6.642
10488TIP3    H231422   6.624   1.200   6.636
10489TIP3   OH231423   0.587   2.538   3.592
10489TIP3    H131424   0.635   2.602   3.645
10489TIP3    H231425   0.625   2.546   3.504
10490TIP3   OH231426   1.929   6.051   4.648
10490TIP3    H131427   1.883   6.117   4.699
10490TIP3    H231428   1.859   5.994   4.614
10491TIP3   OH231429   6.931   1.216   6.380
10491TIP3    H131430   6.995   1.237   6.311
10491TIP3    H231431   6.877   1.295   6.386
10492TIP3   OH231432   7.562   6.074   4.816
10492TIP3    H131433   7.632   6.083   4.751
10492TIP3    H231434   7.582   6.140   4.882
10493TIP3   OH231435   0.170   6.190   5.719
10493TIP3    H131436   0.181   6.184   5.814
10493TIP3    H231437   0.200   6.279   5.697
10494TIP3   OH231438   0.198   6.341   4.766
10494TIP3    H131439   0.245   6.356   4.685
10494TIP3    H231440   0.112   6.380   4.753
10495TIP3   OH231441   6.120   2.621   3.499
10495TIP3    H131442   6.088   2.546   3.549
10495TIP3    H231443   6.201   2.646   3.542
10496TIP3   OH231444   2.321   6.238   5.187
10496TIP3    H131445   2.343   6.154   5.147
10496TIP3    H231446   2.245   6.269   5.138
10497TIP3   OH231447   6.970   7.689   0.199
10497TIP3    H131448   6.927   7.752   0.257
10497TIP3    H231449   6.897   7.644   0.155
10498TIP3   OH231450   1.656   3.663   3.759
10498TIP3    H131451   1.684   3.574   3.778
10498TIP3    H231452   1.694   3.716   3.829
10499TIP3   OH231453   0.828   5.863   5.233
10499TIP3    H131454   0.755   5.918   5.262
10499TIP3    H231455   0.897   5.924   5.209
10500TIP3   OH231456   7.347   3.192   2.726
10500TIP3    H131457   7.363   3.098   2.729
10500TIP3    H231458   7.266   3.201   2.675
10501TIP3   OH231459   2.324   4.130   4.567
10501TIP3    H131460   2.330   4.224   4.583
10501TIP3    H231461   2.411   4.105   4.534
10502TIP3   OH231462   5.024   1.201   6.757
10502TIP3    H131463   5.103   1.172   6.713
10502TIP3    H231464   5.053   1.275   6.812
10503TIP3   OH231465   4.050   2.187   0.750
10503TIP3    H131466   3.989   2.172   0.822
10503TIP3    H231467   4.013   2.138   0.676
10504TIP3   OH231468   0.031   1.588   1.536
10504TIP3    H131469   0.057   1.570   1.627
10504TIP3    H231470  -0.059   1.620   1.542
10505TIP3   OH231471   0.151   5.612   2.363
10505TIP3    H131472   0.197   5.561   2.296
10505TIP3    H231473   0.060   5.615   2.333
10506TIP3   OH231474   5.378   4.907   2.285
10506TIP3    H131475   5.453   4.962   2.264
10506TIP3    H231476   5.307   4.969   2.300
10507TIP3   OH231477   2.474   6.271   4.558
10507TIP3    H131478   2.560   6.228   4.565
10507TIP3    H231479   2.422   6.210   4.506
10508TIP3   OH231480   0.208   7.033   6.612
10508TIP3    H131481   0.220   6.954   6.559
10508TIP3    H231482   0.144   7.008   6.678
10509TIP3   OH231483   7.376   0.424   2.940
10509TIP3    H131484   7.311   0.375   2.890
10509TIP3    H231485   7.366   0.392   3.030
10510TIP3   OH231486   0.452   4.542   1.206
10510TIP3    H131487   0.498   4.591   1.137
10510TIP3    H231488   0.364   4.580   1.207
10511TIP3   OH231489   6.871   1.817   6.319
10511TIP3    H131490   6.803   1.781   6.376
10511TIP3    H231491   6.945   1.759   6.332
10512TIP3   OH231492   4.891   4.394   1.258
10512TIP3    H131493   4.956   4.374   1.325
10512TIP3    H231494   4.920   4.478   1.221
10513TIP3   OH231495   2.899   4.458   2.116
10513TIP3    H131496   2.908   4.543   2.073
10513TIP3    H231497   2.826   4.416   2.071
10514TIP3   OH231498   7.706   4.096   0.071
10514TIP3    H131499   7.635   4.034   0.086
10514TIP3    H231500   7.782   4.057   0.114
10515TIP3   OH231501   8.136   3.250   5.760
10515TIP3    H131502   8.067   3.260   5.826
10515TIP3    H231503   8.089   3.249   5.677
10516TIP3   OH231504   3.994   6.636   1.421
10516TIP3    H131505   4.036   6.564   1.470
10516TIP3    H231506   4.024   6.623   1.331
10517TIP3   OH231507   3.650   7.616   5.155
10517TIP3    H131508   3.678   7.543   5.211
10517TIP3    H231509   3.589   7.576   5.094
10518TIP3   OH231510   5.606   6.620   4.739
10518TIP3    H131511   5.567   6.564   4.807
10518TIP3    H231512   5.688   6.652   4.779
10519TIP3   OH231513   2.696   1.492   1.437
10519TIP3    H131514   2.635   1.561   1.411
10519TIP3    H231515   2.640   1.426   1.480
10520TIP3   OH231516   7.785   2.544   0.297
10520TIP3    H131517   7.841   2.506   0.365
10520TIP3    H231518   7.830   2.623   0.268
10521TIP3   OH231519   3.870   4.940   2.340
10521TIP3    H131520   3.964   4.957   2.349
10521TIP3    H231521   3.846   4.978   2.256
10522TIP3   OH231522   5.056   4.280   2.997
10522TIP3    H131523   4.972   4.326   3.003
10522TIP3    H231524   5.052   4.235   2.912
10523TIP3   OH231525   2.130   7.061   1.172
10523TIP3    H131526   2.125   6.989   1.235
10523TIP3    H231527   2.091   7.026   1.092
10524TIP3   OH231528   4.238   3.329   1.980
10524TIP3    H131529   4.233   3.241   1.944
10524TIP3    H231530   4.147   3.360   1.980
10525TIP3   OH231531   7.433   5.756   5.546
10525TIP3    H131532   7.375   5.832   5.550
10525TIP3    H231533   7.373   5.681   5.545
10526TIP3   OH231534   1.913   1.417   2.942
10526TIP3    H131535   1.883   1.455   3.024
10526TIP3    H231536   1.987   1.471   2.916
10527TIP3   OH231537   7.188   7.510   6.579
10527TIP3    H131538   7.102   7.481   6.611
10527TIP3    H231539   7.168   7.586   6.524
10528TIP3   OH231540   4.061   6.778   2.402
10528TIP3    H131541   4.075   6.835   2.326
10528TIP3    H231542   4.144   6.731   2.411
10529TIP3   OH231543   6.695   5.797   0.121
10529TIP3    H131544   6.625   5.764   0.178
10529TIP3    H231545   6.654   5.866   0.069
10530TIP3   OH231546   4.879   2.740   0.396
10530TIP3    H131547   4.860   2.811   0.456
10530TIP3    H231548   4.922   2.782   0.322
10531TIP3   OH231549   2.273   5.662   5.880
10531TIP3    H131550   2.307   5.636   5.965
10531TIP3    H231551   2.239   5.750   5.894
10532TIP3   OH231552   7.634   3.680   4.055
10532TIP3    H131553   7.680   3.668   4.137
10532TIP3    H231554   7.615   3.591   4.024
10533TIP3   OH231555   1.435   5.518   2.220
10533TIP3    H131556   1.430   5.549   2.310
10533TIP3    H231557   1.502   5.573   2.179
10534TIP3   OH231558   1.533   7.074   2.385
10534TIP3    H131559   1.609   7.022   2.357
10534TIP3    H231560   1.480   7.082   2.305
10535TIP3   OH231561   6.338   3.900   4.058
10535TIP3    H131562   6.302   3.899   4.147
10535TIP3    H231563   6.263   3.882   4.001
10536TIP3   OH231564   5.636   5.852   0.935
10536TIP3    H131565   5.562   5.835   0.993
10536TIP3    H231566   5.675   5.766   0.921
10537TIP3   OH231567   4.400   4.322   5.860
10537TIP3    H131568   4.463   4.286   5.923
10537TIP3    H231569   4.374   4.246   5.807
10538TIP3   OH231570   7.597   5.855   1.629
10538TIP3    H131571   7.561   5.940   1.605
10538TIP3    H231572   7.679   5.875   1.674
10539TIP3   OH231573   6.519   3.306   3.215
10539TIP3    H131574   6.566   3.311   3.132
10539TIP3    H231575   6.437   3.262   3.193
10540TIP3   OH231576   4.697   5.182   3.566
10540TIP3    H131577   4.648   5.196   3.647
10540TIP3    H231578   4.686   5.089   3.547
10541TIP3   OH231579   6.094   3.200   1.365
10541TIP3    H131580   6.023   3.251   1.404
10541TIP3    H231581   6.126   3.145   1.437
10542TIP3   OH231582   3.767   5.683   6.595
10542TIP3    H131583   3.713   5.730   6.531
10542TIP3    H231584   3.765   5.739   6.673
10543TIP3   OH231585   3.479   7.222   2.863
10543TIP3    H131586   3.410   7.208   2.798
10543TIP3    H231587   3.460   7.309   2.900
10544TIP3   OH231588   7.972   6.637   1.564
10544TIP3    H131589   7.901   6.642   1.500
10544TIP3    H231590   7.987   6.544   1.577
10545TIP3   OH231591   4.710   3.174   1.263
10545TIP3    H131592   4.764   3.102   1.294
10545TIP3    H231593   4.741   3.251   1.310
10546TIP3   OH231594   8.317   1.004   0.849
10546TIP3    H131595   8.254   0.946   0.893
10546TIP3    H231596   8.269   1.038   0.774
10547TIP3   OH231597   0.850   3.318   0.309
10547TIP3    H131598   0.918   3.373   0.349
10547TIP3    H231599   0.868   3.323   0.215
10548TIP3   OH231600   4.304   1.657   4.652
10548TIP3    H131601   4.231   1.708   4.687
10548TIP3    H231602   4.380   1.715   4.660
10549TIP3   OH231603   1.993   6.668   5.568
10549TIP3    H131604   2.003   6.729   5.641
10549TIP3    H231605   2.071   6.683   5.514
10550TIP3   OH231606   6.535   1.095   4.630
10550TIP3    H131607   6.576   1.091   4.543
10550TIP3    H231608   6.609   1.099   4.691
10551TIP3   OH231609   5.555   2.065   5.749
10551TIP3    H131610   5.623   2.049   5.684
10551TIP3    H231611   5.491   2.119   5.704
10552TIP3   OH231612   2.799   7.062   2.901
10552TIP3    H131613   2.840   6.976   2.887
10552TIP3    H231614   2.730   7.045   2.965
10553TIP3   OH231615   3.372   3.075   1.894
10553TIP3    H131616   3.284   3.111   1.900
10553TIP3    H231617   3.385   3.058   1.801
10554TIP3   OH231618   1.515   7.333   5.849
10554TIP3    H131619   1.541   7.297   5.933
10554TIP3    H231620   1.420   7.327   5.848
10555TIP3   OH231621   7.352   2.712   4.686
10555TIP3    H131622   7.299   2.653   4.631
10555TIP3    H231623   7.308   2.797   4.679
10556TIP3   OH231624   1.946   0.924   2.180
10556TIP3    H131625   1.907   0.869   2.248
10556TIP3    H231626   1.885   0.997   2.170
10557TIP3   OH231627   5.203   0.702   5.983
10557TIP3    H131628   5.150   0.638   5.936
10557TIP3    H231629   5.140   0.761   6.023
10558TIP3   OH231630   5.918   7.497   3.817
10558TIP3    H131631   5.848   7.498   3.752
10558TIP3    H231632   5.938   7.405   3.831
10559TIP3   OH231633   3.715   1.407   5.884
10559TIP3    H131634   3.661   1.467   5.935
10559TIP3    H231635   3.791   1.459   5.857
10560TIP3   OH231636   3.198   1.499   1.032
10560TIP3    H131637   3.203   1.464   1.120
10560TIP3    H231638   3.107   1.483   1.005
10561TIP3   OH231639   2.368   5.420   4.841
10561TIP3    H131640   2.381   5.382   4.928
10561TIP3    H231641   2.342   5.511   4.859
10562TIP3   OH231642   4.396   5.038   2.649
10562TIP3    H131643   4.459   5.058   2.719
10562TIP3    H231644   4.443   4.977   2.592
10563TIP3   OH231645   0.229   3.198   5.592
10563TIP3    H131646   0.291   3.125   5.603
10563TIP3    H231647   0.158   3.177   5.654
10564TIP3   OH231648   8.058   1.722   6.141
10564TIP3    H131649   7.970   1.748   6.113
10564TIP3    H231650   8.044   1.679   6.226
10565TIP3   OH231651   7.313   1.754   5.500
10565TIP3    H131652   7.244   1.768   5.565
10565TIP3    H231653   7.332   1.841   5.466
10566TIP3   OH231654   8.250   3.096   0.663
10566TIP3    H131655   8.251   3.011   0.707
10566TIP3    H231656   8.166   3.135   0.689
10567TIP3   OH231657   7.821   3.644   5.933
10567TIP3    H131658   7.742   3.616   5.980
10567TIP3    H231659   7.893   3.615   5.988
10568TIP3   OH231660   7.520   1.602   2.601
10568TIP3    H131661   7.574   1.592   2.523
10568TIP3    H231662   7.583   1.611   2.673
10569TIP3   OH231663   2.527   7.314   3.034
10569TIP3    H131664   2.493   7.309   3.123
10569TIP3    H231665   2.505   7.403   3.005
10570TIP3   OH231666   6.405   3.345   1.043
10570TIP3    H131667   6.361   3.299   0.971
10570TIP3    H231668   6.496   3.353   1.014
10571TIP3   OH231669   1.640   7.446   3.495
10571TIP3    H131670   1.572   7.489   3.443
10571TIP3    H231671   1.628   7.352   3.478
10572TIP3   OH231672   0.948   5.817   1.185
10572TIP3    H131673   0.929   5.771   1.103
10572TIP3    H231674   0.876   5.879   1.196
10573TIP3   OH231675   5.702  -0.025   5.193
10573TIP3    H131676   5.793  -0.002   5.177
10573TIP3    H231677   5.664   0.053   5.234
10574TIP3   OH231678   3.527   0.799   0.980
10574TIP3    H131679   3.593   0.757   1.035
10574TIP3    H231680   3.451   0.741   0.984
10575TIP3   OH231681   7.959   1.179   3.787
10575TIP3    H131682   7.896   1.248   3.767
10575TIP3    H231683   7.907   1.109   3.825
10576TIP3   OH231684   4.165   0.115   1.444
10576TIP3    H131685   4.133   0.104   1.534
10576TIP3    H231686   4.090   0.149   1.396
10577TIP3   OH231687   4.617   4.800   5.523
10577TIP3    H131688   4.664   4.853   5.587
10577TIP3    H231689   4.666   4.718   5.520
10578TIP3   OH231690   6.192   5.512   1.198
10578TIP3    H131691   6.244   5.538   1.122
10578TIP3    H231692   6.250   5.525   1.273
10579TIP3   OH231693   0.027   6.990   5.860
10579TIP3    H131694   0.085   7.039   5.919
10579TIP3    H231695  -0.055   6.983   5.908
10580TIP3   OH231696   5.119   0.295   1.882
10580TIP3    H131697   5.197   0.263   1.836
10580TIP3    H231698   5.067   0.217   1.900
10581TIP3   OH231699   8.061   3.412   3.780
10581TIP3    H131700   8.142   3.418   3.831
10581TIP3    H231701   8.090   3.395   3.691
10582TIP3   OH231702   3.132   0.965   0.722
10582TIP3    H131703   3.208   0.984   0.776
10582TIP3    H231704   3.057   0.984   0.779
10583TIP3   OH231705   3.198   3.929   6.560
10583TIP3    H131706   3.215   3.839   6.532
10583TIP3    H231707   3.269   3.980   6.521
10584TIP3   OH231708   7.469   7.066   3.170
10584TIP3    H131709   7.455   7.032   3.081
10584TIP3    H231710   7.394   7.123   3.185
10585TIP3   OH231711   5.531   4.581   4.268
10585TIP3    H131712   5.499   4.491   4.278
10585TIP3    H231713   5.609   4.573   4.214
10586TIP3   OH231714   0.428   4.603   6.429
10586TIP3    H131715   0.359   4.644   6.378
10586TIP3    H231716   0.384   4.533   6.477
10587TIP3   OH231717   0.278   4.690   3.552
10587TIP3    H131718   0.318   4.612   3.514
10587TIP3    H231719   0.257   4.665   3.642
10588TIP3   OH231720   3.817   5.304   5.953
10588TIP3    H131721   3.735   5.325   5.996
10588TIP3    H231722   3.833   5.379   5.895
10589TIP3   OH231723   3.230   7.450   3.290
10589TIP3    H131724   3.256   7.391   3.360
10589TIP3    H231725   3.137   7.431   3.275
10590TIP3   OH231726   2.860   2.793   5.314
10590TIP3    H131727   2.836   2.753   5.398
10590TIP3    H231728   2.948   2.828   5.328
10591TIP3   OH231729   2.767   7.521   2.521
10591TIP3    H131730   2.707   7.468   2.467
10591TIP3    H231731   2.853   7.481   2.507
10592TIP3   OH231732   2.971   2.829   4.862
10592TIP3    H131733   2.978   2.760   4.928
10592TIP3    H231734   3.022   2.901   4.898
10593TIP3   OH231735   3.137   0.784   5.897
10593TIP3    H131736   3.138   0.874   5.865
10593TIP3    H231737   3.050   0.774   5.937
10594TIP3   OH231738   4.746   5.605   5.106
10594TIP3    H131739   4.680   5.597   5.037
10594TIP3    H231740   4.743   5.698   5.130
10595TIP3   OH231741   2.719   1.606   5.792
10595TIP3    H131742   2.669   1.653   5.726
10595TIP3    H231743   2.663   1.606   5.870
10596TIP3   OH231744   5.172   5.079   2.272
10596TIP3    H131745   5.091   5.078   2.322
10596TIP3    H231746   5.149   5.123   2.190
10597TIP3   OH231747   5.998   0.414   1.527
10597TIP3    H131748   5.921   0.383   1.480
10597TIP3    H231749   5.964   0.468   1.598
10598TIP3   OH231750   0.134   0.984   2.294
10598TIP3    H131751   0.192   1.053   2.326
10598TIP3    H231752   0.063   1.031   2.250
10599TIP3   OH231753   3.742   6.503   2.257
10599TIP3    H131754   3.834   6.477   2.264
10599TIP3    H231755   3.744   6.587   2.212
10600TIP3   OH231756   1.400   2.071   0.273
10600TIP3    H131757   1.402   2.133   0.346
10600TIP3    H231758   1.394   1.985   0.315
10601TIP3   OH231759   3.837   5.620   4.185
10601TIP3    H131760   3.768   5.556   4.164
10601TIP3    H231761   3.789   5.697   4.216
10602TIP3   OH231762   2.707   0.695   2.319
10602TIP3    H131763   2.679   0.758   2.253
10602TIP3    H231764   2.773   0.642   2.275
10603TIP3   OH231765   3.363   3.834   5.567
10603TIP3    H131766   3.278   3.877   5.579
10603TIP3    H231767   3.394   3.865   5.482
10604TIP3   OH231768   1.877   5.355   2.662
10604TIP3    H131769   1.815   5.335   2.732
10604TIP3    H231770   1.955   5.303   2.683
10605TIP3   OH231771   2.845   2.323   2.779
10605TIP3    H131772   2.751   2.337   2.789
10605TIP3    H231773   2.879   2.320   2.869
10606TIP3   OH231774   0.969   2.460   1.186
10606TIP3    H131775   0.976   2.464   1.091
10606TIP3    H231776   0.883   2.421   1.202
10607TIP3   OH231777   1.770   2.515   3.618
10607TIP3    H131778   1.766   2.538   3.525
10607TIP3    H231779   1.682   2.535   3.651
10608TIP3   OH231780   4.869   6.698   4.430
10608TIP3    H131781   4.851   6.792   4.437
10608TIP3    H231782   4.964   6.691   4.439
10609TIP3   OH231783   4.623   2.884   2.176
10609TIP3    H131784   4.648   2.941   2.104
10609TIP3    H231785   4.600   2.801   2.135
10610TIP3   OH231786   1.284   5.581   4.554
10610TIP3    H131787   1.258   5.517   4.488
10610TIP3    H231788   1.369   5.614   4.524
10611TIP3   OH231789   3.986   0.318   6.560
10611TIP3    H131790   3.901   0.283   6.533
10611TIP3    H231791   3.975   0.338   6.653
10612TIP3   OH231792   0.940   7.747   5.403
10612TIP3    H131793   1.010   7.809   5.426
10612TIP3    H231794   0.867   7.803   5.378
10613TIP3   OH231795   1.441   0.187   2.316
10613TIP3    H131796   1.423   0.243   2.391
10613TIP3    H231797   1.482   0.244   2.252
10614TIP3   OH231798   5.081   2.615   4.367
10614TIP3    H131799   5.031   2.613   4.285
10614TIP3    H231800   5.037   2.681   4.421
10615TIP3   OH231801   3.459   4.743   5.043
10615TIP3    H131802   3.535   4.801   5.052
10615TIP3    H231803   3.412   4.779   4.968
10616TIP3   OH231804   2.371   7.419   6.058
10616TIP3    H131805   2.420   7.357   6.003
10616TIP3    H231806   2.438   7.471   6.102
10617TIP3   OH231807   2.149   0.909   5.645
10617TIP3    H131808   2.146   0.940   5.554
10617TIP3    H231809   2.189   0.822   5.639
10618TIP3   OH231810   7.486   2.580   4.374
10618TIP3    H131811   7.502   2.655   4.431
10618TIP3    H231812   7.482   2.617   4.286
10619TIP3   OH231813   7.769   1.177   1.626
10619TIP3    H131814   7.850   1.221   1.599
10619TIP3    H231815   7.707   1.198   1.556
10620TIP3   OH231816   3.998   5.268   6.501
10620TIP3    H131817   4.020   5.344   6.556
10620TIP3    H231818   3.987   5.304   6.413
10621TIP3   OH231819   4.551   6.709   4.488
10621TIP3    H131820   4.507   6.791   4.511
10621TIP3    H231821   4.644   6.730   4.490
10622TIP3   OH231822   3.181   7.313   0.465
10622TIP3    H131823   3.170   7.377   0.394
10622TIP3    H231824   3.133   7.236   0.435
10623TIP3   OH231825   3.830   0.120   1.864
10623TIP3    H131826   3.786   0.148   1.783
10623TIP3    H231827   3.761   0.077   1.915
10624TIP3   OH231828   1.097   6.884   3.954
10624TIP3    H131829   1.166   6.898   4.019
10624TIP3    H231830   1.036   6.956   3.968
10625TIP3   OH231831   2.940   3.896   5.677
10625TIP3    H131832   2.924   3.802   5.674
10625TIP3    H231833   2.854   3.936   5.670
10626TIP3   OH231834   5.542   3.674   4.647
10626TIP3    H131835   5.552   3.594   4.595
10626TIP3    H231836   5.459   3.713   4.615
10627TIP3   OH231837   2.994   5.045   0.790
10627TIP3    H131838   2.952   5.055   0.876
10627TIP3    H231839   2.992   5.133   0.752
10628TIP3   OH231840   7.899   2.673   1.274
10628TIP3    H131841   7.980   2.696   1.227
10628TIP3    H231842   7.930   2.625   1.351
10629TIP3   OH231843   1.716   3.057   1.498
10629TIP3    H131844   1.725   3.122   1.567
10629TIP3    H231845   1.635   3.010   1.519
10630TIP3   OH231846   2.357   3.798   4.727
10630TIP3    H131847   2.318   3.871   4.775
10630TIP3    H231848   2.435   3.774   4.778
10631TIP3   OH231849   3.464   0.626   3.690
10631TIP3    H131850   3.496   0.566   3.623
10631TIP3    H231851   3.471   0.713   3.650
10632TIP3   OH231852   0.547   0.831   5.257
10632TIP3    H131853   0.551   0.736   5.265
10632TIP3    H231854   0.454   0.852   5.264
10633TIP3   OH231855   3.695   4.461   3.625
10633TIP3    H131856   3.609   4.485   3.591
10633TIP3    H231857   3.711   4.374   3.589
10634TIP3   OH231858   4.956   2.406   1.722
10634TIP3    H131859   5.013   2.404   1.646
10634TIP3    H231860   4.912   2.490   1.718
10635TIP3   OH231861   5.647   4.627   5.600
10635TIP3    H131862   5.594   4.691   5.552
10635TIP3    H231863   5.730   4.624   5.552
10636TIP3   OH231864   1.167   0.473   1.903
10636TIP3    H131865   1.191   0.396   1.955
10636TIP3    H231866   1.239   0.483   1.841
10637TIP3   OH231867   8.054   2.158   4.354
10637TIP3    H131868   8.018   2.077   4.390
10637TIP3    H231869   8.140   2.167   4.396
10638TIP3   OH231870   6.375   0.334   2.442
10638TIP3    H131871   6.452   0.287   2.475
10638TIP3    H231872   6.344   0.280   2.368
10639TIP3   OH231873   5.276   4.054   6.521
10639TIP3    H131874   5.287   4.009   6.605
10639TIP3    H231875   5.181   4.058   6.508
10640TIP3   OH231876   7.643   0.124   1.129
10640TIP3    H131877   7.694   0.174   1.193
10640TIP3    H231878   7.566   0.178   1.111
10641TIP3   OH231879   4.387   5.746   3.164
10641TIP3    H131880   4.364   5.696   3.242
10641TIP3    H231881   4.442   5.817   3.196
10642TIP3   OH231882   4.476   1.251   2.150
10642TIP3    H131883   4.416   1.268   2.222
10642TIP3    H231884   4.563   1.263   2.188
10643TIP3   OH231885   7.164   3.115   3.683
10643TIP3    H131886   7.107   3.111   3.760
10643TIP3    H231887   7.168   3.208   3.661
10644TIP3   OH231888   5.504   4.067   6.039
10644TIP3    H131889   5.469   4.103   6.121
10644TIP3    H231890   5.443   4.098   5.972
10645TIP3   OH231891   7.007   5.410   2.050
10645TIP3    H131892   7.005   5.320   2.083
10645TIP3    H231893   6.922   5.421   2.007
10646TIP3   OH231894   2.319   3.747   2.651
10646TIP3    H131895   2.261   3.805   2.701
10646TIP3    H231896   2.366   3.806   2.592
10647TIP3   OH231897   4.443   6.081   3.558
10647TIP3    H131898   4.435   6.175   3.541
10647TIP3    H231899   4.497   6.075   3.637
10648TIP3   OH231900   2.606   6.164   6.082
10648TIP3    H131901   2.612   6.069   6.081
10648TIP3    H231902   2.674   6.191   6.144
10649TIP3   OH231903   8.163   3.951   6.229
10649TIP3    H131904   8.222   3.953   6.154
10649TIP3    H231905   8.204   4.008   6.293
10650TIP3   OH231906   2.207   1.956   3.390
10650TIP3    H131907   2.156   1.962   3.470
10650TIP3    H231908   2.243   2.044   3.377
10651TIP3   OH231909  -0.022   1.321   1.800
10651TIP3    H131910   0.066   1.324   1.837
10651TIP3    H231911  -0.020   1.247   1.739
10652TIP3   OH231912   2.172   2.951   2.200
10652TIP3    H131913   2.188   3.001   2.119
10652TIP3    H231914   2.237   2.986   2.262
10653TIP3   OH231915   7.619   6.217   3.354
10653TIP3    H131916   7.673   6.242   3.279
10653TIP3    H231917   7.680   6.182   3.418
10654TIP3   OH231918   4.511   2.066   6.685
10654TIP3    H131919   4.487   1.979   6.654
10654TIP3    H231920   4.434   2.119   6.672
10655TIP3   OH231921   2.254   7.730   4.569
10655TIP3    H131922   2.292   7.693   4.489
10655TIP3    H231923   2.162   7.746   4.546
10656TIP3   OH231924   0.560   1.006   0.968
10656TIP3    H131925   0.537   0.945   1.037
10656TIP3    H231926   0.478   1.019   0.920
10657TIP3   OH231927   1.291   1.096   4.169
10657TIP3    H131928   1.273   1.116   4.261
10657TIP3    H231929   1.386   1.096   4.163
10658TIP3   OH231930   4.217   7.807   1.854
10658TIP3    H131931   4.137   7.776   1.896
10658TIP3    H231932   4.261   7.860   1.921
10659TIP3   OH231933   2.003   6.616   2.025
10659TIP3    H131934   2.062   6.625   2.101
10659TIP3    H231935   2.006   6.523   2.004
10660TIP3   OH231936   7.626   1.636   6.023
10660TIP3    H131937   7.692   1.569   6.006
10660TIP3    H231938   7.552   1.612   5.968
10661TIP3   OH231939   1.772   7.563   1.376
10661TIP3    H131940   1.728   7.645   1.400
10661TIP3    H231941   1.861   7.589   1.353
10662TIP3   OH231942   7.529   7.643   1.247
10662TIP3    H131943   7.600   7.589   1.213
10662TIP3    H231944   7.500   7.599   1.326
10663TIP3   OH231945   3.309   3.094   5.958
10663TIP3    H131946   3.226   3.131   5.988
10663TIP3    H231947   3.295   2.999   5.959
10664TIP3   OH231948   4.110   3.895   6.357
10664TIP3    H131949   4.157   3.967   6.397
10664TIP3    H231950   4.178   3.830   6.336
10665TIP3   OH231951   5.429   5.715   1.776
10665TIP3    H131952   5.477   5.712   1.693
10665TIP3    H231953   5.338   5.698   1.752
10666TIP3   OH231954   4.517  -0.026   1.650
10666TIP3    H131955   4.479  -0.008   1.564
10666TIP3    H231956   4.547   0.059   1.682
10667TIP3   OH231957   2.786   0.194   1.308
10667TIP3    H131958   2.789   0.236   1.394
10667TIP3    H231959   2.765   0.264   1.247
10668TIP3   OH231960   5.313   7.411   2.614
10668TIP3    H131961   5.285   7.489   2.567
10668TIP3    H231962   5.315   7.438   2.706
10669TIP3   OH231963   7.051   6.727   5.635
10669TIP3    H131964   7.082   6.801   5.687
10669TIP3    H231965   6.956   6.726   5.649
10670TIP3   OH231966   7.092   3.215   2.542
10670TIP3    H131967   7.081   3.125   2.571
10670TIP3    H231968   7.024   3.264   2.590
10671TIP3   OH231969   1.056   5.929   3.210
10671TIP3    H131970   0.999   5.907   3.283
10671TIP3    H231971   1.130   5.869   3.219
10672TIP3   OH231972   6.667   6.887   6.506
10672TIP3    H131973   6.725   6.963   6.500
10672TIP3    H231974   6.645   6.867   6.415
10673TIP3   OH231975   3.801   7.252   1.517
10673TIP3    H131976   3.829   7.333   1.561
10673TIP3    H231977   3.880   7.220   1.473
10674TIP3   OH231978   0.260   7.253   5.290
10674TIP3    H131979   0.290   7.166   5.262
10674TIP3    H231980   0.189   7.235   5.351
10675TIP3   OH231981   5.422   2.819   4.549
10675TIP3    H131982   5.432   2.773   4.632
10675TIP3    H231983   5.491   2.784   4.493
10676TIP3   OH231984   1.367   5.442   4.131
10676TIP3    H131985   1.448   5.453   4.181
10676TIP3    H231986   1.297   5.450   4.196
10677TIP3   OH231987   4.032   4.061   5.432
10677TIP3    H131988   4.081   4.131   5.476
10677TIP3    H231989   4.090   3.985   5.436
10678TIP3   OH231990   5.960   7.221   4.160
10678TIP3    H131991   5.925   7.133   4.152
10678TIP3    H231992   6.036   7.223   4.103
10679TIP3   OH231993   7.153   2.920   2.292
10679TIP3    H131994   7.119   2.867   2.364
10679TIP3    H231995   7.147   2.863   2.215
10680TIP3   OH231996   1.332   4.202   5.933
10680TIP3    H131997   1.376   4.240   6.008
10680TIP3    H231998   1.241   4.193   5.961
10681TIP3   OH231999   2.418   6.095   5.835
10681TIP3    H132000   2.494   6.151   5.848
10681TIP3    H232001   2.370   6.136   5.763
10682TIP3   OH232002   5.337   4.209   0.033
10682TIP3    H132003   5.332   4.114   0.049
10682TIP3    H232004   5.366   4.246   0.116
10683TIP3   OH232005   6.291   0.302   0.101
10683TIP3    H132006   6.318   0.241   0.033
10683TIP3    H232007   6.232   0.252   0.156
10684TIP3   OH232008   2.867   3.497   1.141
10684TIP3    H132009   2.938   3.455   1.190
10684TIP3    H232010   2.789   3.447   1.166
10685TIP3   OH232011   6.272   2.946   5.714
10685TIP3    H132012   6.349   2.892   5.726
10685TIP3    H232013   6.200   2.884   5.702
10686TIP3   OH232014   0.082   7.113   2.282
10686TIP3    H132015  -0.001   7.124   2.328
10686TIP3    H232016   0.144   7.169   2.329
10687TIP3   OH232017   2.982   5.217   5.941
10687TIP3    H132018   2.889   5.229   5.925
10687TIP3    H232019   3.019   5.305   5.934
10688TIP3   OH232020   7.314   3.045   1.341
10688TIP3    H132021   7.329   3.132   1.378
10688TIP3    H232022   7.334   2.985   1.413
10689TIP3   OH232023   1.551   3.609   6.391
10689TIP3    H132024   1.463   3.581   6.363
10689TIP3    H232025   1.591   3.530   6.426
10690TIP3   OH232026   2.527   1.822   0.552
10690TIP3    H132027   2.477   1.740   0.548
10690TIP3    H232028   2.543   1.835   0.645
10691TIP3   OH232029   2.516   7.392   3.657
10691TIP3    H132030   2.552   7.316   3.612
10691TIP3    H232031   2.560   7.468   3.617
10692TIP3   OH232032   5.160   4.920   5.256
10692TIP3    H132033   5.109   4.962   5.187
10692TIP3    H232034   5.170   4.987   5.323
10693TIP3   OH232035   3.560   1.438   5.341
10693TIP3    H132036   3.601   1.436   5.427
10693TIP3    H232037   3.522   1.351   5.331
10694TIP3   OH232038   6.200   7.259   0.427
10694TIP3    H132039   6.227   7.308   0.349
10694TIP3    H232040   6.181   7.326   0.492
10695TIP3   OH232041   3.196   3.982   0.265
10695TIP3    H132042   3.188   4.064   0.216
10695TIP3    H232043   3.287   3.955   0.252
10696TIP3   OH232044   5.114   5.619   6.305
10696TIP3    H132045   5.146   5.577   6.385
10696TIP3    H232046   5.059   5.691   6.336
10697TIP3   OH232047   3.119   7.540   4.076
10697TIP3    H132048   3.183   7.604   4.108
10697TIP3    H232049   3.040   7.592   4.057
10698TIP3   OH232050   3.340   3.012   0.586
10698TIP3    H132051   3.379   3.051   0.664
10698TIP3    H232052   3.326   3.087   0.527
10699TIP3   OH232053   8.273   5.721   4.058
10699TIP3    H132054   8.247   5.803   4.016
10699TIP3    H232055   8.315   5.748   4.140
10700TIP3   OH232056   0.418   3.124   1.666
10700TIP3    H132057   0.339   3.176   1.655
10700TIP3    H232058   0.399   3.066   1.739
10701TIP3   OH232059   3.744   6.420   1.574
10701TIP3    H132060   3.664   6.461   1.608
10701TIP3    H232061   3.752   6.454   1.485
10702TIP3   OH232062   1.095   2.693   1.929
10702TIP3    H132063   1.076   2.766   1.870
10702TIP3    H232064   1.191   2.691   1.934
10703TIP3   OH232065   0.232   4.955   1.792
10703TIP3    H132066   0.316   4.992   1.818
10703TIP3    H232067   0.232   4.866   1.828
10704TIP3   OH232068   0.376   4.750   4.854
10704TIP3    H132069   0.309   4.794   4.801
10704TIP3    H232070   0.330   4.725   4.934
10705TIP3   OH232071   7.968   0.920   3.383
10705TIP3    H132072   8.006   0.844   3.340
10705TIP3    H232073   8.040   0.954   3.438
10706TIP3   OH232074   7.597   5.215   0.211
10706TIP3    H132075   7.631   5.259   0.133
10706TIP3    H232076   7.660   5.144   0.227
10707TIP3   OH232077   0.264   0.631   5.874
10707TIP3    H132078   0.286   0.564   5.809
10707TIP3    H232079   0.275   0.586   5.958
10708TIP3   OH232080   2.250   1.037   1.287
10708TIP3    H132081   2.295   1.106   1.240
10708TIP3    H232082   2.270   1.054   1.379
10709TIP3   OH232083   2.916   1.755   3.863
10709TIP3    H132084   3.003   1.736   3.900
10709TIP3    H232085   2.855   1.713   3.924
10710TIP3   OH232086   6.971   5.694   3.063
10710TIP3    H132087   7.061   5.684   3.034
10710TIP3    H232088   6.963   5.638   3.140
10711TIP3   OH232089   6.142   0.472   5.312
10711TIP3    H132090   6.183   0.540   5.365
10711TIP3    H232091   6.086   0.424   5.373
10712TIP3   OH232092   7.681   4.767   5.581
10712TIP3    H132093   7.748   4.833   5.600
10712TIP3    H232094   7.618   4.775   5.654
10713TIP3   OH232095   1.807   3.847   5.150
10713TIP3    H132096   1.767   3.760   5.148
10713TIP3    H232097   1.735   3.907   5.169
10714TIP3   OH232098   3.326   0.579   0.672
10714TIP3    H132099   3.250   0.558   0.617
10714TIP3    H232100   3.401   0.552   0.619
10715TIP3   OH232101   4.024   6.654   5.569
10715TIP3    H132102   3.953   6.673   5.508
10715TIP3    H232103   4.090   6.610   5.516
10716TIP3   OH232104   1.155   7.531   2.421
10716TIP3    H132105   1.075   7.580   2.440
10716TIP3    H232106   1.213   7.595   2.379
10717TIP3   OH232107   7.917   4.190   6.110
10717TIP3    H132108   7.976   4.208   6.183
10717TIP3    H232109   7.976   4.180   6.034
10718TIP3   OH232110   3.395   0.933   6.510
10718TIP3    H132111   3.382   0.911   6.602
10718TIP3    H232112   3.416   1.027   6.511
10719TIP3   OH232113   4.686   5.481   0.970
10719TIP3    H132114   4.674   5.461   1.063
10719TIP3    H232115   4.629   5.420   0.925
10720TIP3   OH232116   2.404   0.265   5.725
10720TIP3    H132117   2.398   0.359   5.743
10720TIP3    H232118   2.466   0.232   5.791
10721TIP3   OH232119   0.049   2.005   6.349
10721TIP3    H132120   0.076   1.929   6.298
10721TIP3    H232121  -0.006   1.969   6.419
10722TIP3   OH232122   1.519   6.857   6.558
10722TIP3    H132123   1.558   6.771   6.573
10722TIP3    H232124   1.438   6.839   6.510
10723TIP3   OH232125   4.781   1.934   4.551
10723TIP3    H132126   4.850   1.973   4.605
10723TIP3    H232127   4.816   1.850   4.524
10724TIP3   OH232128   7.957   2.443   0.491
10724TIP3    H132129   7.895   2.441   0.564
10724TIP3    H232130   8.003   2.360   0.497
10725TIP3   OH232131   5.508   6.780   2.881
10725TIP3    H132132   5.491   6.687   2.895
10725TIP3    H232133   5.445   6.824   2.938
10726TIP3   OH232134   7.243   7.543   4.912
10726TIP3    H132135   7.297   7.614   4.948
10726TIP3    H232136   7.156   7.581   4.904
10727TIP3   OH232137   5.436   0.560   5.619
10727TIP3    H132138   5.531   0.550   5.615
10727TIP3    H232139   5.408   0.555   5.528
10728TIP3   OH232140   4.589   7.326   4.385
10728TIP3    H132141   4.565   7.290   4.470
10728TIP3    H232142   4.582   7.421   4.396
10729TIP3   OH232143   6.509   0.854   3.220
10729TIP3    H132144   6.446   0.829   3.287
10729TIP3    H232145   6.457   0.900   3.154
10730TIP3   OH232146   1.647   5.119   2.634
10730TIP3    H132147   1.644   5.081   2.721
10730TIP3    H232148   1.569   5.174   2.628
10731TIP3   OH232149   1.716   2.941   3.819
10731TIP3    H132150   1.799   2.918   3.861
10731TIP3    H232151   1.742   2.997   3.746
10732TIP3   OH232152   5.321   7.792   4.716
10732TIP3    H132153   5.343   7.789   4.623
10732TIP3    H232154   5.361   7.713   4.753
10733TIP3   OH232155   8.101   7.250   1.565
10733TIP3    H132156   8.168   7.234   1.631
10733TIP3    H232157   8.019   7.250   1.613
10734TIP3   OH232158   0.957   0.887   0.340
10734TIP3    H132159   0.915   0.952   0.284
10734TIP3    H232160   0.998   0.826   0.279
10735TIP3   OH232161   3.969   0.365   6.032
10735TIP3    H132162   3.994   0.443   6.082
10735TIP3    H232163   3.910   0.398   5.964
10736TIP3   OH232164   6.815   7.483   1.841
10736TIP3    H132165   6.757   7.525   1.905
10736TIP3    H232166   6.780   7.512   1.756
10737TIP3   OH232167   3.701   1.771   4.098
10737TIP3    H132168   3.765   1.765   4.169
10737TIP3    H232169   3.687   1.865   4.087
10738TIP3   OH232170   0.362   0.820   2.907
10738TIP3    H132171   0.444   0.869   2.915
10738TIP3    H232172   0.349   0.810   2.812
10739TIP3   OH232173   1.524   5.728   5.606
10739TIP3    H132174   1.613   5.744   5.637
10739TIP3    H232175   1.529   5.736   5.511
10740TIP3   OH232176   2.664   5.859   0.534
10740TIP3    H132177   2.704   5.803   0.467
10740TIP3    H232178   2.584   5.813   0.559
10741TIP3   OH232179   2.270   4.247   6.595
10741TIP3    H132180   2.345   4.258   6.652
10741TIP3    H232181   2.197   4.226   6.653
10742TIP3   OH232182   0.267   6.913   0.934
10742TIP3    H132183   0.262   6.893   1.027
10742TIP3    H232184   0.269   6.828   0.891
10743TIP3   OH232185   6.221   2.823   6.564
10743TIP3    H132186   6.191   2.733   6.575
10743TIP3    H232187   6.256   2.848   6.650
10744TIP3   OH232188   3.128   4.887   6.679
10744TIP3    H132189   3.218   4.857   6.683
10744TIP3    H232190   3.134   4.982   6.683
10745TIP3   OH232191   5.541   6.090   0.191
10745TIP3    H132192   5.529   6.185   0.193
10745TIP3    H232193   5.512   6.060   0.277
10746TIP3   OH232194   5.937   6.427   1.135
10746TIP3    H132195   5.906   6.370   1.205
10746TIP3    H232196   5.912   6.515   1.163
10747TIP3   OH232197   7.933   2.632   6.692
10747TIP3    H132198   7.888   2.677   6.622
10747TIP3    H232199   7.864   2.596   6.747
10748TIP3   OH232200   2.280   3.377   0.543
10748TIP3    H132201   2.283   3.307   0.478
10748TIP3    H232202   2.305   3.456   0.494
10749TIP3   OH232203   1.904   6.762   3.346
10749TIP3    H132204   1.979   6.757   3.287
10749TIP3    H232205   1.844   6.824   3.305
10750TIP3   OH232206   2.070   6.140   0.111
10750TIP3    H132207   2.096   6.048   0.113
10750TIP3    H232208   2.153   6.189   0.116
10751TIP3   OH232209   3.469   0.977   2.585
10751TIP3    H132210   3.454   0.966   2.491
10751TIP3    H232211   3.405   0.919   2.626
10752TIP3   OH232212   5.902   1.652   5.305
10752TIP3    H132213   5.935   1.562   5.313
10752TIP3    H232214   5.888   1.680   5.396
10753TIP3   OH232215   1.517   7.818   0.140
10753TIP3    H132216   1.526   7.739   0.087
10753TIP3    H232217   1.606   7.849   0.153
10754TIP3   OH232218   4.310   5.401   1.088
10754TIP3    H132219   4.310   5.317   1.043
10754TIP3    H232220   4.217   5.422   1.099
10755TIP3   OH232221   1.249   6.692   5.513
10755TIP3    H132222   1.271   6.784   5.501
10755TIP3    H232223   1.212   6.665   5.429
10756TIP3   OH232224   3.267   1.777   4.530
10756TIP3    H132225   3.305   1.689   4.528
10756TIP3    H232226   3.338   1.835   4.504
10757TIP3   OH232227   3.280   7.311   3.526
10757TIP3    H132228   3.290   7.401   3.556
10757TIP3    H232229   3.303   7.257   3.602
10758TIP3   OH232230   3.675   6.683   3.075
10758TIP3    H132231   3.689   6.612   3.137
10758TIP3    H232232   3.628   6.750   3.125
10759TIP3   OH232233   1.142   2.247   3.262
10759TIP3    H132234   1.211   2.193   3.223
10759TIP3    H232235   1.075   2.253   3.194
10760TIP3   OH232236   3.393   0.171   3.021
10760TIP3    H132237   3.411   0.094   3.075
10760TIP3    H232238   3.363   0.237   3.084
10761TIP3   OH232239   1.443   6.012   2.561
10761TIP3    H132240   1.511   5.988   2.498
10761TIP3    H232241   1.378   6.061   2.510
10762TIP3   OH232242   0.756   7.052   6.224
10762TIP3    H132243   0.762   6.957   6.215
10762TIP3    H232244   0.845   7.083   6.211
10763TIP3   OH232245   7.468   3.427   5.345
10763TIP3    H132246   7.407   3.388   5.408
10763TIP3    H232247   7.482   3.516   5.377
10764TIP3   OH232248   1.125   2.419   2.457
10764TIP3    H132249   1.215   2.419   2.425
10764TIP3    H232250   1.076   2.470   2.393
10765TIP3   OH232251   3.933   2.998   5.918
10765TIP3    H132252   3.955   3.061   5.849
10765TIP3    H232253   3.939   3.047   5.999
10766TIP3   OH232254   5.251   5.684   3.735
10766TIP3    H132255   5.224   5.773   3.756
10766TIP3    H232256   5.172   5.632   3.744
10767TIP3   OH232257   5.266   1.396   2.262
10767TIP3    H132258   5.244   1.318   2.211
10767TIP3    H232259   5.352   1.423   2.229
10768TIP3   OH232260   1.386   0.337   3.539
10768TIP3    H132261   1.396   0.338   3.444
10768TIP3    H232262   1.408   0.426   3.566
10769TIP3   OH232263   4.668   2.246   5.293
10769TIP3    H132264   4.756   2.280   5.285
10769TIP3    H232265   4.651   2.243   5.388
10770TIP3   OH232266   8.240   0.607   1.439
10770TIP3    H132267   8.326   0.630   1.475
10770TIP3    H232268   8.178   0.659   1.490
10771TIP3   OH232269   6.895   2.175   4.766
10771TIP3    H132270   6.921   2.121   4.692
10771TIP3    H232271   6.973   2.227   4.786
10772TIP3   OH232272   6.169   3.379   4.342
10772TIP3    H132273   6.239   3.348   4.399
10772TIP3    H232274   6.178   3.474   4.342
10773TIP3   OH232275   1.896   0.390   4.754
10773TIP3    H132276   1.928   0.447   4.825
10773TIP3    H232277   1.942   0.422   4.676
10774TIP3   OH232278   5.247   6.992   3.962
10774TIP3    H132279   5.304   7.027   3.894
10774TIP3    H232280   5.224   6.905   3.932
10775TIP3   OH232281   3.856   0.103   3.279
10775TIP3    H132282   3.813   0.187   3.296
10775TIP3    H232283   3.933   0.125   3.227
10776TIP3   OH232284   4.636   1.336   0.858
10776TIP3    H132285   4.647   1.375   0.771
10776TIP3    H232286   4.557   1.378   0.892
10777TIP3   OH232287   2.960   4.434   0.078
10777TIP3    H132288   2.954   4.468   0.167
10777TIP3    H232289   2.997   4.505   0.027
10778TIP3   OH232290   5.389   3.577   4.874
10778TIP3    H132291   5.332   3.654   4.882
10778TIP3    H232292   5.453   3.601   4.808
10779TIP3   OH232293   8.110   7.540   4.445
10779TIP3    H132294   8.134   7.517   4.534
10779TIP3    H232295   8.028   7.492   4.429
10780TIP3   OH232296   0.598   0.586   4.492
10780TIP3    H132297   0.533   0.526   4.457
10780TIP3    H232298   0.603   0.566   4.585
10781TIP3   OH232299   1.174   6.911   1.846
10781TIP3    H132300   1.210   6.871   1.926
10781TIP3    H232301   1.122   6.985   1.877
10782TIP3   OH232302   6.242   0.190   0.946
10782TIP3    H132303   6.241   0.103   0.986
10782TIP3    H232304   6.302   0.181   0.872
10783TIP3   OH232305   7.383   7.683   5.107
10783TIP3    H132306   7.455   7.623   5.126
10783TIP3    H232307   7.366   7.727   5.190
10784TIP3   OH232308   6.310   4.902   3.191
10784TIP3    H132309   6.285   4.810   3.198
10784TIP3    H232310   6.306   4.935   3.280
10785TIP3   OH232311   1.318   3.896   3.483
10785TIP3    H132312   1.305   3.938   3.398
10785TIP3    H232313   1.257   3.822   3.483
10786TIP3   OH232314   1.928   6.014   0.694
10786TIP3    H132315   1.855   6.023   0.632
10786TIP3    H232316   1.924   5.922   0.722
10787TIP3   OH232317   4.075   4.977   4.955
10787TIP3    H132318   4.054   5.069   4.940
10787TIP3    H232319   4.157   4.978   5.003
10788TIP3   OH232320   7.234   6.181   2.627
10788TIP3    H132321   7.280   6.227   2.697
10788TIP3    H232322   7.155   6.146   2.669
10789TIP3   OH232323   3.683   1.171   0.318
10789TIP3    H132324   3.732   1.253   0.310
10789TIP3    H232325   3.670   1.142   0.228
10790TIP3   OH232326   5.053   7.028   1.555
10790TIP3    H132327   5.067   7.093   1.486
10790TIP3    H232328   5.073   6.945   1.513
10791TIP3   OH232329   7.296   4.697   1.399
10791TIP3    H132330   7.350   4.744   1.336
10791TIP3    H232331   7.231   4.651   1.346
10792TIP3   OH232332   0.773   7.800   1.754
10792TIP3    H132333   0.687   7.814   1.713
10792TIP3    H232334   0.830   7.776   1.681
10793TIP3   OH232335   4.087   1.820   6.231
10793TIP3    H132336   4.004   1.868   6.234
10793TIP3    H232337   4.137   1.856   6.305
10794TIP3   OH232338   0.861   2.760   1.708
10794TIP3    H132339   0.895   2.711   1.633
10794TIP3    H232340   0.937   2.809   1.740
10795TIP3   OH232341   5.873   1.868   0.857
10795TIP3    H132342   5.924   1.905   0.929
10795TIP3    H232343   5.793   1.836   0.898
10796TIP3   OH232344   4.271   4.158   4.459
10796TIP3    H132345   4.190   4.197   4.426
10796TIP3    H232346   4.246   4.120   4.543
10797TIP3   OH232347   5.539   6.907   4.049
10797TIP3    H132348   5.604   6.848   4.011
10797TIP3    H232349   5.455   6.870   4.023
10798TIP3   OH232350   2.510   2.250   0.857
10798TIP3    H132351   2.440   2.301   0.818
10798TIP3    H232352   2.574   2.239   0.787
10799TIP3   OH232353   2.213   5.518   4.285
10799TIP3    H132354   2.302   5.488   4.302
10799TIP3    H232355   2.170   5.444   4.241
10800TIP3   OH232356   4.551   5.156   3.278
10800TIP3    H132357   4.598   5.117   3.204
10800TIP3    H232358   4.617   5.207   3.324
10801TIP3   OH232359   8.053   6.111   1.919
10801TIP3    H132360   8.025   6.199   1.944
10801TIP3    H232361   8.076   6.070   2.003
10802TIP3   OH232362   4.935   3.774   4.555
10802TIP3    H132363   5.010   3.833   4.556
10802TIP3    H232364   4.894   3.785   4.641
10803TIP3   OH232365   2.054   2.987   4.618
10803TIP3    H132366   2.060   2.894   4.597
10803TIP3    H232367   2.135   3.007   4.665
10804TIP3   OH232368   1.670   6.204   6.370
10804TIP3    H132369   1.586   6.231   6.407
10804TIP3    H232370   1.647   6.133   6.309
10805TIP3   OH232371   6.596   3.763   5.652
10805TIP3    H132372   6.557   3.838   5.607
10805TIP3    H232373   6.584   3.781   5.745
10806TIP3   OH232374   6.579   3.944   3.042
10806TIP3    H132375   6.624   4.023   3.071
10806TIP3    H232376   6.496   3.975   3.005
10807TIP3   OH232377   0.169   5.373   1.197
10807TIP3    H132378   0.263   5.389   1.203
10807TIP3    H232379   0.140   5.366   1.288
10808TIP3   OH232380   3.699   4.506   1.202
10808TIP3    H132381   3.607   4.532   1.205
10808TIP3    H232382   3.731   4.517   1.291
10809TIP3   OH232383   0.473   7.833   1.244
10809TIP3    H132384   0.458   7.739   1.259
10809TIP3    H232385   0.389   7.865   1.209
10810TIP3   OH232386   0.202   3.137   4.091
10810TIP3    H132387   0.136   3.070   4.110
10810TIP3    H232388   0.255   3.142   4.171
10811TIP3   OH232389   1.114   6.369   2.881
10811TIP3    H132390   1.041   6.395   2.824
10811TIP3    H232391   1.160   6.451   2.899
10812TIP3   OH232392   1.337   7.200   0.703
10812TIP3    H132393   1.350   7.107   0.716
10812TIP3    H232394   1.384   7.241   0.775
10813TIP3   OH232395   1.864   3.470   5.132
10813TIP3    H132396   1.784   3.521   5.135
10813TIP3    H232397   1.922   3.512   5.196
10814TIP3   OH232398   4.208   5.510   3.871
10814TIP3    H132399   4.186   5.418   3.888
10814TIP3    H232400   4.135   5.559   3.909
10815TIP3   OH232401   5.682   2.682   1.265
10815TIP3    H132402   5.661   2.722   1.181
10815TIP3    H232403   5.612   2.619   1.280
10816TIP3   OH232404   7.324   0.773   2.696
10816TIP3    H132405   7.344   0.849   2.752
10816TIP3    H232406   7.233   0.785   2.671
10817TIP3   OH232407   6.165   5.276   5.181
10817TIP3    H132408   6.204   5.305   5.264
10817TIP3    H232409   6.236   5.229   5.137
10818TIP3   OH232410   5.857   3.426   5.159
10818TIP3    H132411   5.906   3.345   5.173
10818TIP3    H232412   5.775   3.412   5.208
10819TIP3   OH232413   8.261   0.367   5.896
10819TIP3    H132414   8.219   0.284   5.919
10819TIP3    H232415   8.355   0.346   5.892
10820TIP3   OH232416   0.377   2.678   4.979
10820TIP3    H132417   0.287   2.681   5.011
10820TIP3    H232418   0.389   2.760   4.932
10821TIP3   OH232419   0.894   7.445   4.505
10821TIP3    H132420   0.919   7.523   4.555
10821TIP3    H232421   0.977   7.399   4.490
10822TIP3   OH232422   6.336   2.066   5.306
10822TIP3    H132423   6.262   2.074   5.246
10822TIP3    H232424   6.295   2.051   5.391
10823TIP3   OH232425   4.709   4.365   4.360
10823TIP3    H132426   4.622   4.359   4.321
10823TIP3    H232427   4.737   4.273   4.369
10824TIP3   OH232428   8.216   7.626   3.442
10824TIP3    H132429   8.120   7.626   3.440
10824TIP3    H232430   8.242   7.603   3.353
10825TIP3   OH232431   0.140   2.720   0.163
10825TIP3    H132432   0.073   2.674   0.215
10825TIP3    H232433   0.122   2.813   0.179
10826TIP3   OH232434   2.005   5.654   4.126
10826TIP3    H132435   2.028   5.561   4.121
10826TIP3    H232436   2.019   5.678   4.217
10827TIP3   OH232437   6.801   0.295   5.414
10827TIP3    H132438   6.871   0.312   5.351
10827TIP3    H232439   6.780   0.381   5.450
10828TIP3   OH232440   7.340   5.775   0.846
10828TIP3    H132441   7.373   5.696   0.889
10828TIP3    H232442   7.335   5.751   0.753
10829TIP3   OH232443   6.088   5.265   3.745
10829TIP3    H132444   6.065   5.179   3.780
10829TIP3    H232445   6.146   5.246   3.671
10830TIP3   OH232446   4.539   2.505   5.349
10830TIP3    H132447   4.616   2.480   5.297
10830TIP3    H232448   4.539   2.601   5.347
10831TIP3   OH232449   4.855   3.105   0.940
10831TIP3    H132450   4.877   3.162   1.014
10831TIP3    H232451   4.939   3.069   0.912
10832TIP3   OH232452   7.186   6.246   2.322
10832TIP3    H132453   7.121   6.305   2.361
10832TIP3    H232454   7.237   6.214   2.396
10833TIP3   OH232455   6.505   4.727   5.834
10833TIP3    H132456   6.567   4.738   5.906
10833TIP3    H232457   6.526   4.797   5.773
10834TIP3   OH232458   8.046   5.989   6.288
10834TIP3    H132459   7.979   6.040   6.334
10834TIP3    H232460   7.999   5.950   6.214
10835TIP3   OH232461   0.234   7.480   5.991
10835TIP3    H132462   0.202   7.424   5.920
10835TIP3    H232463   0.299   7.427   6.036
10836TIP3   OH232464   5.272   4.953   5.911
10836TIP3    H132465   5.337   4.939   5.843
10836TIP3    H232466   5.208   5.013   5.872
10837TIP3   OH232467   1.473   6.156   1.358
10837TIP3    H132468   1.503   6.109   1.280
10837TIP3    H232469   1.386   6.188   1.334
10838TIP3   OH232470   3.485   1.580   4.790
10838TIP3    H132471   3.461   1.501   4.741
10838TIP3    H232472   3.563   1.555   4.839
10839TIP3   OH232473   5.369   2.513   5.940
10839TIP3    H132474   5.393   2.521   5.847
10839TIP3    H232475   5.289   2.564   5.949
10840TIP3   OH232476   6.549   4.093   4.327
10840TIP3    H132477   6.642   4.107   4.313
10840TIP3    H232478   6.541   4.074   4.421
10841TIP3   OH232479   1.503   6.386   2.377
10841TIP3    H132480   1.587   6.340   2.385
10841TIP3    H232481   1.444   6.322   2.338
10842TIP3   OH232482   7.877   4.138   0.649
10842TIP3    H132483   7.847   4.173   0.565
10842TIP3    H232484   7.866   4.211   0.710
10843TIP3   OH232485   7.843   2.138   0.356
10843TIP3    H132486   7.874   2.055   0.320
10843TIP3    H232487   7.849   2.199   0.282
10844TIP3   OH232488   8.292   7.149   0.677
10844TIP3    H132489   8.272   7.056   0.672
10844TIP3    H232490   8.228   7.191   0.620
10845TIP3   OH232491   4.455   3.058   4.678
10845TIP3    H132492   4.383   3.011   4.720
10845TIP3    H232493   4.484   3.121   4.743
10846TIP3   OH232494   0.896   5.010   2.259
10846TIP3    H132495   0.971   5.047   2.212
10846TIP3    H232496   0.877   5.074   2.328
10847TIP3   OH232497   3.943   4.710   1.624
10847TIP3    H132498   4.028   4.693   1.585
10847TIP3    H232499   3.957   4.789   1.678
10848TIP3   OH232500   3.248   3.876   6.253
10848TIP3    H132501   3.293   3.944   6.304
10848TIP3    H232502   3.215   3.815   6.318
10849TIP3   OH232503   6.188   1.785   2.220
10849TIP3    H132504   6.215   1.704   2.175
10849TIP3    H232505   6.190   1.763   2.313
10850TIP3   OH232506   2.908   4.899   4.964
10850TIP3    H132507   2.841   4.914   5.030
10850TIP3    H232508   2.990   4.894   5.014
10851TIP3   OH232509   6.113   2.372   3.995
10851TIP3    H132510   6.102   2.278   4.003
10851TIP3    H232511   6.147   2.400   4.080
10852TIP3   OH232512   5.085   0.121   5.556
10852TIP3    H132513   5.133   0.046   5.521
10852TIP3    H232514   5.010   0.130   5.498
10853TIP3   OH232515   6.017   2.655   2.106
10853TIP3    H132516   5.970   2.654   2.189
10853TIP3    H232517   6.013   2.565   2.075
10854TIP3   OH232518   3.774   7.066   4.448
10854TIP3    H132519   3.776   7.100   4.359
10854TIP3    H232520   3.796   6.973   4.438
10855TIP3   OH232521   0.384   0.573   0.006
10855TIP3    H132522   0.355   0.557   0.096
10855TIP3    H232523   0.322   0.637  -0.028
10856TIP3   OH232524   7.729   3.306   2.848
10856TIP3    H132525   7.763   3.338   2.931
10856TIP3    H232526   7.707   3.385   2.798
10857TIP3   OH232527   2.145   2.344   5.966
10857TIP3    H132528   2.122   2.257   5.935
10857TIP3    H232529   2.120   2.402   5.894
10858TIP3   OH232530   3.064   1.545   5.999
10858TIP3    H132531   3.058   1.555   6.094
10858TIP3    H232532   3.017   1.621   5.965
10859TIP3   OH232533   6.959   1.001   3.218
10859TIP3    H132534   7.010   1.022   3.140
10859TIP3    H232535   6.874   0.972   3.184
10860TIP3   OH232536   7.109   6.531   6.408
10860TIP3    H132537   7.026   6.490   6.431
10860TIP3    H232538   7.164   6.518   6.485
10861TIP3   OH232539   3.027   2.511   4.469
10861TIP3    H132540   3.107   2.550   4.432
10861TIP3    H232541   3.027   2.421   4.437
10862TIP3   OH232542   4.304   1.502   2.663
10862TIP3    H132543   4.380   1.559   2.677
10862TIP3    H232544   4.246   1.552   2.606
10863TIP3   OH232545   6.793   4.864   4.525
10863TIP3    H132546   6.830   4.800   4.585
10863TIP3    H232547   6.724   4.908   4.575
10864TIP3   OH232548   6.111   4.897   1.061
10864TIP3    H132549   6.056   4.972   1.085
10864TIP3    H232550   6.070   4.862   0.981
10865TIP3   OH232551   3.983   3.496   1.066
10865TIP3    H132552   3.985   3.403   1.042
10865TIP3    H232553   4.070   3.513   1.102
10866TIP3   OH232554   3.717   3.362   4.331
10866TIP3    H132555   3.770   3.441   4.330
10866TIP3    H232556   3.628   3.392   4.351
10867TIP3   OH232557   0.532   6.053   4.346
10867TIP3    H132558   0.559   5.984   4.406
10867TIP3    H232559   0.607   6.114   4.345
10868TIP3   OH232560   4.424   7.644   3.609
10868TIP3    H132561   4.495   7.673   3.551
10868TIP3    H232562   4.352   7.623   3.549
10869TIP3   OH232563   7.914   7.765   1.012
10869TIP3    H132564   7.991   7.711   1.028
10869TIP3    H232565   7.867   7.719   0.941
10870TIP3   OH232566   0.555   0.417   3.573
10870TIP3    H132567   0.608   0.490   3.540
10870TIP3    H232568   0.596   0.339   3.536
10871TIP3   OH232569   7.789   1.415   5.199
10871TIP3    H132570   7.765   1.372   5.281
10871TIP3    H232571   7.869   1.371   5.171
10872TIP3   OH232572   3.510   6.404   2.165
10872TIP3    H132573   3.579   6.421   2.229
10872TIP3    H232574   3.430   6.435   2.207
10873TIP3   OH232575   1.836   6.504   3.408
10873TIP3    H132576   1.859   6.597   3.402
10873TIP3    H232577   1.881   6.473   3.487
10874TIP3   OH232578   6.173   1.230   0.384
10874TIP3    H132579   6.102   1.166   0.380
10874TIP3    H232580   6.153   1.293   0.314
10875TIP3   OH232581   7.046   2.941   3.129
10875TIP3    H132582   7.062   3.032   3.104
10875TIP3    H232583   7.082   2.934   3.217
10876TIP3   OH232584   5.958   5.070   0.763
10876TIP3    H132585   5.943   5.085   0.857
10876TIP3    H232586   5.875   5.034   0.731
10877TIP3   OH232587   0.716   3.151   5.434
10877TIP3    H132588   0.738   3.163   5.527
10877TIP3    H232589   0.796   3.118   5.394
10878TIP3   OH232590   7.950   4.283   0.285
10878TIP3    H132591   7.895   4.207   0.302
10878TIP3    H232592   7.912   4.353   0.338
10879TIP3   OH232593   2.045   6.069   2.788
10879TIP3    H132594   2.068   6.078   2.695
10879TIP3    H232595   2.057   5.976   2.806
10880TIP3   OH232596   2.251   6.011   0.759
10880TIP3    H132597   2.221   6.095   0.795
10880TIP3    H232598   2.344   6.009   0.778
10881TIP3   OH232599   0.687   0.180   4.467
10881TIP3    H132600   0.595   0.182   4.441
10881TIP3    H232601   0.722   0.265   4.439
10882TIP3   OH232602   3.569   7.175   1.727
10882TIP3    H132603   3.574   7.082   1.749
10882TIP3    H232604   3.628   7.185   1.652
10883TIP3   OH232605   7.050   5.317   2.336
10883TIP3    H132606   6.958   5.334   2.317
10883TIP3    H232607   7.053   5.224   2.357
10884TIP3   OH232608   2.893   6.325   4.336
10884TIP3    H132609   2.883   6.396   4.273
10884TIP3    H232610   2.918   6.249   4.283
10885TIP3   OH232611   4.652   7.818   2.590
10885TIP3    H132612   4.563   7.809   2.557
10885TIP3    H232613   4.693   7.734   2.573
10886TIP3   OH232614   3.342   3.333   3.458
10886TIP3    H132615   3.325   3.285   3.539
10886TIP3    H232616   3.256   3.370   3.434
10887TIP3   OH232617   6.003   0.841   6.238
10887TIP3    H132618   5.934   0.878   6.292
10887TIP3    H232619   6.048   0.778   6.294
10888TIP3   OH232620   7.388   6.080   6.488
10888TIP3    H132621   7.445   6.079   6.565
10888TIP3    H232622   7.305   6.115   6.520
10889TIP3   OH232623   3.807   0.813   0.593
10889TIP3    H132624   3.751   0.747   0.634
10889TIP3    H232625   3.841   0.769   0.515
10890TIP3   OH232626   5.682   2.557   5.142
10890TIP3    H132627   5.749   2.590   5.082
10890TIP3    H232628   5.719   2.477   5.178
10891TIP3   OH232629   0.892   6.546   0.157
10891TIP3    H132630   0.819   6.508   0.206
10891TIP3    H232631   0.899   6.492   0.078
10892TIP3   OH232632   7.381   4.905   5.473
10892TIP3    H132633   7.343   4.821   5.448
10892TIP3    H232634   7.475   4.888   5.482
10893TIP3   OH232635   0.412   0.419   5.749
10893TIP3    H132636   0.346   0.349   5.742
10893TIP3    H232637   0.449   0.425   5.661
10894TIP3   OH232638   5.353   1.145   0.073
10894TIP3    H132639   5.300   1.070   0.047
10894TIP3    H232640   5.299   1.221   0.054
10895TIP3   OH232641   6.210   1.254   5.716
10895TIP3    H132642   6.294   1.292   5.690
10895TIP3    H232643   6.170   1.226   5.634
10896TIP3   OH232644   1.679   0.962   1.741
10896TIP3    H132645   1.647   0.967   1.832
10896TIP3    H232646   1.767   0.924   1.749
10897TIP3   OH232647   2.752   3.783   1.197
10897TIP3    H132648   2.837   3.826   1.200
10897TIP3    H232649   2.770   3.693   1.224
10898TIP3   OH232650   8.173   3.433   0.607
10898TIP3    H132651   8.195   3.523   0.584
10898TIP3    H232652   8.134   3.439   0.694
10899TIP3   OH232653   0.220   4.777   0.903
10899TIP3    H132654   0.166   4.852   0.930
10899TIP3    H232655   0.306   4.794   0.944
10900TIP3   OH232656   5.795   3.937   1.296
10900TIP3    H132657   5.784   3.949   1.391
10900TIP3    H232658   5.778   4.024   1.259
10901TIP3   OH232659   6.377   3.642   1.543
10901TIP3    H132660   6.421   3.623   1.460
10901TIP3    H232661   6.283   3.642   1.521
10902TIP3   OH232662   8.237   5.572   5.027
10902TIP3    H132663   8.278   5.653   5.058
10902TIP3    H232664   8.310   5.521   4.992
10903TIP3   OH232665   8.277   5.301   1.039
10903TIP3    H132666   8.244   5.390   1.023
10903TIP3    H232667   8.357   5.315   1.090
10904TIP3   OH232668   4.430   6.986   6.304
10904TIP3    H132669   4.411   6.932   6.380
10904TIP3    H232670   4.367   7.058   6.308
10905TIP3   OH232671   5.983   6.788   5.088
10905TIP3    H132672   6.057   6.783   5.148
10905TIP3    H232673   6.020   6.762   5.003
10906TIP3   OH232674   2.479   6.673   4.836
10906TIP3    H132675   2.519   6.620   4.905
10906TIP3    H232676   2.485   6.618   4.757
10907TIP3   OH232677   5.741   7.309   5.510
10907TIP3    H132678   5.806   7.257   5.556
10907TIP3    H232679   5.791   7.357   5.443
10908TIP3   OH232680   5.063   1.018   1.922
10908TIP3    H132681   5.069   1.090   1.984
10908TIP3    H232682   4.977   0.979   1.937
10909TIP3   OH232683   3.440   1.524   2.267
10909TIP3    H132684   3.492   1.471   2.327
10909TIP3    H232685   3.489   1.605   2.258
10910TIP3   OH232686   4.163   0.966   3.853
10910TIP3    H132687   4.202   0.957   3.940
10910TIP3    H232688   4.202   0.896   3.801
10911TIP3   OH232689   1.397   6.742   0.241
10911TIP3    H132690   1.449   6.771   0.167
10911TIP3    H232691   1.319   6.704   0.202
10912TIP3   OH232692   6.624   1.992   1.701
10912TIP3    H132693   6.661   1.939   1.771
10912TIP3    H232694   6.537   2.018   1.734
10913TIP3   OH232695   1.011   2.727   2.891
10913TIP3    H132696   1.076   2.749   2.825
10913TIP3    H232697   0.928   2.758   2.855
10914TIP3   OH232698   0.670   2.845   1.315
10914TIP3    H132699   0.728   2.906   1.269
10914TIP3    H232700   0.607   2.902   1.359
10915TIP3   OH232701   1.587   3.021   6.416
10915TIP3    H132702   1.516   3.085   6.415
10915TIP3    H232703   1.644   3.047   6.343
10916TIP3   OH232704   0.209   0.167   1.622
10916TIP3    H132705   0.150   0.156   1.697
10916TIP3    H232706   0.190   0.091   1.566
10917TIP3   OH232707   5.640   1.882   3.513
10917TIP3    H132708   5.705   1.814   3.501
10917TIP3    H232709   5.556   1.837   3.501
10918TIP3   OH232710   1.050   2.544   0.902
10918TIP3    H132711   0.994   2.596   0.844
10918TIP3    H232712   1.138   2.556   0.867
10919TIP3   OH232713   8.309   0.125   1.241
10919TIP3    H132714   8.224   0.101   1.279
10919TIP3    H232715   8.321   0.064   1.169
10920TIP3   OH232716   3.201   3.538   0.022
10920TIP3    H132717   3.126   3.594   0.042
10920TIP3    H232718   3.178   3.494  -0.059
10921TIP3   OH232719   3.889   6.508   0.648
10921TIP3    H132720   3.805   6.463   0.636
10921TIP3    H232721   3.897   6.566   0.572
10922TIP3   OH232722   0.462   6.346   5.976
10922TIP3    H132723   0.441   6.411   6.043
10922TIP3    H232724   0.404   6.272   5.994
10923TIP3   OH232725   1.027   6.867   4.832
10923TIP3    H132726   1.025   6.919   4.751
10923TIP3    H232727   1.012   6.931   4.902
10924TIP3   OH232728   2.167   2.674   5.486
10924TIP3    H132729   2.201   2.690   5.574
10924TIP3    H232730   2.245   2.658   5.432
10925TIP3   OH232731   0.852   7.598   2.380
10925TIP3    H132732   0.763   7.635   2.375
10925TIP3    H232733   0.840   7.505   2.363
10926TIP3   OH232734   4.235   6.533   2.605
10926TIP3    H132735   4.295   6.608   2.598
10926TIP3    H232736   4.284   6.468   2.656
10927TIP3   OH232737   2.833   2.428   5.707
10927TIP3    H132738   2.818   2.420   5.802
10927TIP3    H232739   2.928   2.417   5.697
10928TIP3   OH232740   4.484   6.486   2.694
10928TIP3    H132741   4.533   6.432   2.756
10928TIP3    H232742   4.543   6.495   2.619
10929TIP3   OH232743   5.073   0.801   3.743
10929TIP3    H132744   5.059   0.795   3.648
10929TIP3    H232745   5.036   0.720   3.777
10930TIP3   OH232746   5.624   4.831   1.766
10930TIP3    H132747   5.700   4.773   1.781
10930TIP3    H232748   5.559   4.801   1.829
10931TIP3   OH232749   4.386   4.955   2.295
10931TIP3    H132750   4.439   5.035   2.300
10931TIP3    H232751   4.346   4.958   2.208
10932TIP3   OH232752   6.310   4.630   6.724
10932TIP3    H132753   6.254   4.706   6.740
10932TIP3    H232754   6.251   4.555   6.723
10933TIP3   OH232755   2.325   1.708   3.359
10933TIP3    H132756   2.368   1.724   3.443
10933TIP3    H232757   2.287   1.793   3.335
10934TIP3   OH232758   8.142   2.101   3.923
10934TIP3    H132759   8.122   2.008   3.929
10934TIP3    H232760   8.237   2.106   3.927
10935TIP3   OH232761   3.896   2.814   3.811
10935TIP3    H132762   3.800   2.819   3.807
10935TIP3    H232763   3.921   2.886   3.868
10936TIP3   OH232764   6.999   3.341   1.408
10936TIP3    H132765   7.014   3.310   1.318
10936TIP3    H232766   6.921   3.396   1.401
10937TIP3   OH232767   2.996   1.381   4.217
10937TIP3    H132768   2.991   1.372   4.312
10937TIP3    H232769   3.078   1.428   4.201
10938TIP3   OH232770   5.845   5.567   6.308
10938TIP3    H132771   5.764   5.556   6.358
10938TIP3    H232772   5.818   5.612   6.228
10939TIP3   OH232773   2.209   4.242   2.825
10939TIP3    H132774   2.280   4.277   2.878
10939TIP3    H232775   2.171   4.172   2.878
10940TIP3   OH232776   0.050   1.688   2.465
10940TIP3    H132777   0.074   1.768   2.512
10940TIP3    H232778   0.122   1.675   2.403
10941TIP3   OH232779   1.374   3.525   6.068
10941TIP3    H132780   1.466   3.503   6.060
10941TIP3    H232781   1.348   3.489   6.153
10942TIP3   OH232782   4.139   4.709   5.768
10942TIP3    H132783   4.160   4.629   5.817
10942TIP3    H232784   4.224   4.750   5.750
10943TIP3   OH232785   8.094   4.553   5.162
10943TIP3    H132786   8.028   4.573   5.229
10943TIP3    H232787   8.136   4.473   5.194
10944TIP3   OH232788   5.677   0.888   4.836
10944TIP3    H132789   5.702   0.974   4.803
10944TIP3    H232790   5.736   0.872   4.910
10945TIP3   OH232791   6.925   2.881   1.769
10945TIP3    H132792   6.972   2.850   1.847
10945TIP3    H232793   6.990   2.876   1.699
10946TIP3   OH232794   0.553   4.314   2.385
10946TIP3    H132795   0.491   4.286   2.453
10946TIP3    H232796   0.583   4.232   2.345
10947TIP3   OH232797   2.135   2.335   1.514
10947TIP3    H132798   2.151   2.275   1.441
10947TIP3    H232799   2.165   2.287   1.591
10948TIP3   OH232800   7.170   5.390   5.889
10948TIP3    H132801   7.100   5.419   5.831
10948TIP3    H232802   7.126   5.363   5.969
10949TIP3   OH232803   1.300   4.266   0.119
10949TIP3    H132804   1.287   4.171   0.115
10949TIP3    H232805   1.247   4.300   0.047
10950TIP3   OH232806   3.574   4.832   6.744
10950TIP3    H132807   3.632   4.768   6.701
10950TIP3    H232808   3.500   4.841   6.685
10951TIP3   OH232809   2.976   7.382   3.228
10951TIP3    H132810   2.998   7.297   3.190
10951TIP3    H232811   2.921   7.425   3.162
10952TIP3   OH232812   1.152   4.877   1.405
10952TIP3    H132813   1.163   4.910   1.495
10952TIP3    H232814   1.241   4.878   1.369
10953TIP3   OH232815   3.478   6.782   5.477
10953TIP3    H132816   3.465   6.734   5.559
10953TIP3    H232817   3.394   6.776   5.431
10954TIP3   OH232818   1.219   2.394   5.470
10954TIP3    H132819   1.277   2.359   5.537
10954TIP3    H232820   1.133   2.396   5.511
10955TIP3   OH232821   3.659   6.881   6.330
10955TIP3    H132822   3.664   6.791   6.298
10955TIP3    H232823   3.568   6.893   6.355
10956TIP3   OH232824   1.900   5.157   4.284
10956TIP3    H132825   1.825   5.119   4.330
10956TIP3    H232826   1.975   5.108   4.316
10957TIP3   OH232827   6.373   1.379   0.846
10957TIP3    H132828   6.298   1.440   0.845
10957TIP3    H232829   6.424   1.405   0.922
10958TIP3   OH232830   4.762   6.196   2.238
10958TIP3    H132831   4.729   6.107   2.223
10958TIP3    H232832   4.721   6.223   2.321
10959TIP3   OH232833   0.655   6.803   1.338
10959TIP3    H132834   0.618   6.891   1.332
10959TIP3    H232835   0.664   6.775   1.247
10960TIP3   OH232836   3.123   2.367   2.381
10960TIP3    H132837   3.112   2.350   2.475
10960TIP3    H232838   3.217   2.380   2.369
10961TIP3   OH232839   3.434   7.153   6.735
10961TIP3    H132840   3.521   7.145   6.695
10961TIP3    H232841   3.451   7.191   6.821
10962TIP3   OH232842   2.183   3.915   2.796
10962TIP3    H132843   2.162   3.909   2.889
10962TIP3    H232844   2.138   3.995   2.766
10963TIP3   OH232845   5.527   4.641   6.308
10963TIP3    H132846   5.584   4.685   6.245
10963TIP3    H232847   5.458   4.705   6.325
10964TIP3   OH232848   5.240   4.081   2.575
10964TIP3    H132849   5.180   4.119   2.640
10964TIP3    H232850   5.265   4.155   2.520
10965TIP3   OH232851   3.509   7.082   5.279
10965TIP3    H132852   3.447   7.019   5.243
10965TIP3    H232853   3.580   7.087   5.214
10966TIP3   OH232854   2.704   1.385   2.791
10966TIP3    H132855   2.649   1.463   2.786
10966TIP3    H232856   2.785   1.414   2.831
10967TIP3   OH232857   1.244   6.819   3.744
10967TIP3    H132858   1.199   6.872   3.678
10967TIP3    H232859   1.198   6.838   3.825
10968TIP3   OH232860   0.372   2.059   1.789
10968TIP3    H132861   0.414   2.117   1.852
10968TIP3    H232862   0.393   2.097   1.703
10969TIP3   OH232863   0.606   6.260   0.301
10969TIP3    H132864   0.691   6.224   0.326
10969TIP3    H232865   0.591   6.331   0.363
10970TIP3   OH232866   2.399   1.059   0.632
10970TIP3    H132867   2.380   1.143   0.590
10970TIP3    H232868   2.313   1.021   0.650
10971TIP3   OH232869   6.940   0.439   0.795
10971TIP3    H132870   6.909   0.361   0.842
10971TIP3    H232871   6.860   0.487   0.773
10972TIP3   OH232872   6.675   1.772   1.403
10972TIP3    H132873   6.739   1.701   1.411
10972TIP3    H232874   6.592   1.733   1.427
10973TIP3   OH232875   8.160   6.659   2.910
10973TIP3    H132876   8.151   6.647   2.815
10973TIP3    H232877   8.152   6.754   2.922
10974TIP3   OH232878   2.748   2.071   0.942
10974TIP3    H132879   2.752   2.141   0.878
10974TIP3    H232880   2.726   2.115   1.024
10975TIP3   OH232881   5.415   6.822   0.179
10975TIP3    H132882   5.452   6.895   0.228
10975TIP3    H232883   5.398   6.857   0.092
10976TIP3   OH232884   2.777   6.093   6.471
10976TIP3    H132885   2.772   6.081   6.376
10976TIP3    H232886   2.688   6.075   6.502
10977TIP3   OH232887   2.019   2.882   3.431
10977TIP3    H132888   2.035   2.901   3.338
10977TIP3    H232889   2.035   2.965   3.475
10978TIP3   OH232890   7.138   0.403   6.418
10978TIP3    H132891   7.199   0.447   6.478
10978TIP3    H232892   7.193   0.367   6.349
10979TIP3   OH232893   0.966   1.671   1.637
10979TIP3    H132894   0.973   1.766   1.644
10979TIP3    H232895   1.054   1.642   1.613
10980TIP3   OH232896   0.221   3.140   2.104
10980TIP3    H132897   0.229   3.200   2.030
10980TIP3    H232898   0.135   3.100   2.092
10981TIP3   OH232899   1.671   7.318   2.364
10981TIP3    H132900   1.591   7.266   2.354
10981TIP3    H232901   1.741   7.261   2.335
10982TIP3   OH232902   5.806   6.710   5.719
10982TIP3    H132903   5.750   6.702   5.642
10982TIP3    H232904   5.745   6.706   5.794
10983TIP3   OH232905   0.270   4.387   0.585
10983TIP3    H132906   0.182   4.370   0.551
10983TIP3    H232907   0.257   4.405   0.678
10984TIP3   OH232908   3.563   2.878   4.818
10984TIP3    H132909   3.575   2.794   4.862
10984TIP3    H232910   3.483   2.867   4.768
10985TIP3   OH232911   4.093   2.450   1.195
10985TIP3    H132912   4.017   2.472   1.141
10985TIP3    H232913   4.154   2.407   1.135
10986TIP3   OH232914   2.026   5.443   1.436
10986TIP3    H132915   1.988   5.389   1.506
10986TIP3    H232916   2.117   5.455   1.462
10987TIP3   OH232917   0.997   1.978   0.006
10987TIP3    H132918   1.033   1.966   0.094
10987TIP3    H232919   0.906   2.006   0.022
10988TIP3   OH232920   1.748   5.434   2.458
10988TIP3    H132921   1.787   5.417   2.544
10988TIP3    H232922   1.782   5.364   2.402
10989TIP3   OH232923   8.252   6.922   3.017
10989TIP3    H132924   8.321   6.872   3.061
10989TIP3    H232925   8.237   6.998   3.074
10990TIP3   OH232926   4.356   5.022   4.652
10990TIP3    H132927   4.409   5.051   4.727
10990TIP3    H232928   4.323   4.936   4.678
10991TIP3   OH232929   2.613   7.811   4.426
10991TIP3    H132930   2.641   7.831   4.515
10991TIP3    H232931   2.538   7.752   4.438
10992TIP3   OH232932   5.703   6.908   5.336
10992TIP3    H132933   5.791   6.903   5.372
10992TIP3    H232934   5.708   6.976   5.269
10993TIP3   OH232935   3.045   1.945   3.260
10993TIP3    H132936   3.135   1.936   3.293
10993TIP3    H232937   3.022   1.857   3.230
10994TIP3   OH232938   6.846   3.109   6.756
10994TIP3    H132939   6.765   3.095   6.806
10994TIP3    H232940   6.820   3.167   6.684
10995TIP3   OH232941   0.403   2.192   2.165
10995TIP3    H132942   0.407   2.262   2.229
10995TIP3    H232943   0.459   2.222   2.093
10996TIP3   OH232944   7.721   4.368   4.008
10996TIP3    H132945   7.814   4.388   4.013
10996TIP3    H232946   7.711   4.285   4.053
10997TIP3   OH232947   7.339   3.579   3.687
10997TIP3    H132948   7.312   3.671   3.694
10997TIP3    H232949   7.375   3.558   3.774
10998TIP3   OH232950   2.620   6.583   1.751
10998TIP3    H132951   2.705   6.626   1.745
10998TIP3    H232952   2.603   6.576   1.845
10999TIP3   OH232953   4.870   7.775   1.949
10999TIP3    H132954   4.867   7.856   1.898
10999TIP3    H232955   4.815   7.794   2.026
11000TIP3   OH232956   2.039   7.331   5.865
11000TIP3    H132957   2.113   7.271   5.880
11000TIP3    H232958   2.076   7.418   5.880
11001TIP3   OH232959   0.524   4.675   1.557
11001TIP3    H132960   0.460   4.677   1.628
11001TIP3    H232961   0.539   4.582   1.541
11002TIP3   OH232962   5.633   1.359   0.173
11002TIP3    H132963   5.728   1.346   0.176
11002TIP3    H232964   5.600   1.305   0.244
11003TIP3   OH232965   2.633   6.058   4.422
11003TIP3    H132966   2.600   5.989   4.480
11003TIP3    H232967   2.726   6.038   4.411
11004TIP3   OH232968   6.546   0.024   3.838
11004TIP3    H132969   6.477   0.021   3.904
11004TIP3    H232970   6.627   0.014   3.889
11005TIP3   OH232971   2.554   6.923   5.514
11005TIP3    H132972   2.525   6.983   5.445
11005TIP3    H232973   2.572   6.841   5.467
11006TIP3   OH232974   7.807   1.151   2.989
11006TIP3    H132975   7.890   1.150   2.942
11006TIP3    H232976   7.786   1.059   3.003
11007TIP3   OH232977   4.073   1.823   4.082
11007TIP3    H132978   4.078   1.749   4.021
11007TIP3    H232979   3.999   1.875   4.051
11008TIP3   OH232980   2.692   1.183   3.838
11008TIP3    H132981   2.764   1.161   3.898
11008TIP3    H232982   2.619   1.129   3.868
11009TIP3   OH232983   3.976   1.237   2.693
11009TIP3    H132984   4.029   1.167   2.656
11009TIP3    H232985   3.930   1.197   2.766
11010TIP3   OH232986   3.980   1.930   1.670
11010TIP3    H132987   3.904   1.981   1.698
11010TIP3    H232988   4.044   1.941   1.740
11011TIP3   OH232989   1.142   6.439   0.373
11011TIP3    H132990   1.212   6.386   0.336
11011TIP3    H232991   1.187   6.501   0.430
11012TIP3   OH232992   2.394   3.297   3.093
11012TIP3    H132993   2.450   3.283   3.169
11012TIP3    H232994   2.328   3.359   3.123
11013TIP3   OH232995   5.298   6.202   2.737
11013TIP3    H132996   5.363   6.134   2.749
11013TIP3    H232997   5.275   6.198   2.644
11014TIP3   OH232998   0.009   5.211   4.293
11014TIP3    H132999   0.039   5.239   4.206
11014TIP3    H233000   0.071   5.142   4.318
11015TIP3   OH233001   7.249   1.739   1.985
11015TIP3    H133002   7.289   1.816   1.947
11015TIP3    H233003   7.175   1.719   1.928
11016TIP3   OH233004   7.058   7.172   6.625
11016TIP3    H133005   7.001   7.247   6.636
11016TIP3    H233006   7.097   7.158   6.712
11017TIP3   OH233007   5.094   1.476   3.588
11017TIP3    H133008   5.056   1.542   3.529
11017TIP3    H233009   5.175   1.515   3.619
11018TIP3   OH233010   0.319   1.699   2.712
11018TIP3    H133011   0.334   1.606   2.694
11018TIP3    H233012   0.363   1.714   2.796
11019TIP3   OH233013   4.831   6.776   2.351
11019TIP3    H133014   4.868   6.736   2.272
11019TIP3    H233015   4.860   6.719   2.422
11020TIP3   OH233016   2.432   2.855   1.999
11020TIP3    H133017   2.388   2.781   1.957
11020TIP3    H233018   2.469   2.906   1.926
11021TIP3   OH233019   5.765   2.343   2.151
11021TIP3    H133020   5.779   2.273   2.214
11021TIP3    H233021   5.754   2.422   2.205
11022TIP3   OH233022   6.325   4.318   2.087
11022TIP3    H133023   6.406   4.287   2.046
11022TIP3    H233024   6.342   4.410   2.105
11023TIP3   OH233025   1.127   7.342   4.375
11023TIP3    H133026   1.086   7.255   4.377
11023TIP3    H233027   1.197   7.334   4.310
11024TIP3   OH233028   3.993   2.436   5.269
11024TIP3    H133029   4.056   2.505   5.287
11024TIP3    H233030   4.020   2.363   5.325
11025TIP3   OH233031   7.871   5.799   3.036
11025TIP3    H133032   7.893   5.792   2.943
11025TIP3    H233033   7.778   5.823   3.037
11026TIP3   OH233034   2.368   3.947   5.287
11026TIP3    H133035   2.325   3.911   5.209
11026TIP3    H233036   2.381   4.040   5.267
11027TIP3   OH233037   3.698   6.580   4.955
11027TIP3    H133038   3.631   6.618   5.012
11027TIP3    H233039   3.728   6.503   5.003
11028TIP3   OH233040   4.445   1.381   1.734
11028TIP3    H133041   4.392   1.330   1.673
11028TIP3    H233042   4.502   1.433   1.679
11029TIP3   OH233043   7.315   2.687   1.238
11029TIP3    H133044   7.256   2.630   1.287
11029TIP3    H233045   7.313   2.770   1.286
11030TIP3   OH233046   6.243   2.632   2.543
11030TIP3    H133047   6.168   2.686   2.517
11030TIP3    H233048   6.269   2.588   2.462
11031TIP3   OH233049   3.072   0.379   5.201
11031TIP3    H133050   2.992   0.345   5.242
11031TIP3    H233051   3.108   0.439   5.266
11032TIP3   OH233052   1.105   6.363   4.662
11032TIP3    H133053   1.100   6.458   4.651
11032TIP3    H233054   1.175   6.349   4.726
11033TIP3   OH233055   1.319   1.407   1.936
11033TIP3    H133056   1.336   1.432   2.027
11033TIP3    H233057   1.354   1.319   1.927
11034TIP3   OH233058   6.206   1.352   1.138
11034TIP3    H133059   6.164   1.431   1.106
11034TIP3    H233060   6.161   1.280   1.094
11035TIP3   OH233061   4.919   2.209   1.915
11035TIP3    H133062   4.889   2.278   1.856
11035TIP3    H233063   4.954   2.257   1.991
11036TIP3   OH233064   2.243   3.243   4.263
11036TIP3    H133065   2.185   3.261   4.337
11036TIP3    H233066   2.301   3.320   4.259
11037TIP3   OH233067   1.864   1.420   3.709
11037TIP3    H133068   1.951   1.447   3.680
11037TIP3    H233069   1.806   1.491   3.679
11038TIP3   OH233070   1.280   2.623   6.459
11038TIP3    H133071   1.243   2.558   6.519
11038TIP3    H233072   1.374   2.619   6.475
11039TIP3   OH233073   2.068   0.079   4.030
11039TIP3    H133074   2.034   0.003   4.078
11039TIP3    H233075   2.081   0.046   3.941
11040TIP3   OH233076   3.500   4.799   1.332
11040TIP3    H133077   3.515   4.706   1.315
11040TIP3    H233078   3.413   4.804   1.371
11041TIP3   OH233079   0.161   5.493   4.928
11041TIP3    H133080   0.210   5.570   4.959
11041TIP3    H233081   0.211   5.418   4.961
11042TIP3   OH233082   1.212   6.159   3.144
11042TIP3    H133083   1.173   6.228   3.196
11042TIP3    H233084   1.162   6.080   3.167
11043TIP3   OH233085   3.032   5.178   2.487
11043TIP3    H133086   3.072   5.179   2.574
11043TIP3    H233087   3.081   5.111   2.439
11044TIP3   OH233088   5.155   2.504   0.958
11044TIP3    H133089   5.089   2.445   0.922
11044TIP3    H233090   5.231   2.448   0.976
11045TIP3   OH233091   7.236   6.031   3.881
11045TIP3    H133092   7.264   6.051   3.791
11045TIP3    H233093   7.207   5.940   3.878
11046TIP3   OH233094   3.507   5.618   1.710
11046TIP3    H133095   3.598   5.586   1.706
11046TIP3    H233096   3.510   5.703   1.665
11047TIP3   OH233097   7.248   3.820   4.848
11047TIP3    H133098   7.250   3.916   4.852
11047TIP3    H233099   7.175   3.801   4.788
11048TIP3   OH233100   7.447   6.022   5.368
11048TIP3    H133101   7.491   5.941   5.342
11048TIP3    H233102   7.371   5.993   5.418
11049TIP3   OH233103   0.358   2.200   0.734
11049TIP3    H133104   0.371   2.123   0.678
11049TIP3    H233105   0.440   2.248   0.726
11050TIP3   OH233106   7.488   3.700   1.405
11050TIP3    H133107   7.483   3.788   1.443
11050TIP3    H233108   7.567   3.701   1.352
11051TIP3   OH233109   1.154   7.071   0.195
11051TIP3    H133110   1.141   6.981   0.226
11051TIP3    H233111   1.152   7.124   0.275
11052TIP3   OH233112   0.497   0.782   4.125
11052TIP3    H133113   0.474   0.744   4.040
11052TIP3    H233114   0.558   0.719   4.164
11053TIP3   OH233115   3.119   0.895   5.531
11053TIP3    H133116   3.110   0.964   5.596
11053TIP3    H233117   3.175   0.830   5.572
11054TIP3   OH233118   4.495   3.356   3.816
11054TIP3    H133119   4.559   3.343   3.886
11054TIP3    H233120   4.442   3.276   3.815
11055TIP3   OH233121   5.981   2.393   1.978
11055TIP3    H133122   5.911   2.356   2.032
11055TIP3    H233123   5.936   2.425   1.899
11056TIP3   OH233124   7.807   0.349   4.670
11056TIP3    H133125   7.816   0.419   4.735
11056TIP3    H233126   7.728   0.373   4.621
11057TIP3   OH233127   4.994   7.088   5.222
11057TIP3    H133128   5.057   7.088   5.294
11057TIP3    H233129   4.995   6.998   5.190
11058TIP3   OH233130   7.456   1.821   2.746
11058TIP3    H133131   7.472   1.756   2.677
11058TIP3    H233132   7.369   1.800   2.780
11059TIP3   OH233133   5.079   1.647   1.174
11059TIP3    H133134   5.058   1.554   1.164
11059TIP3    H233135   5.044   1.670   1.260
11060TIP3   OH233136   4.280   7.531   5.319
11060TIP3    H133137   4.234   7.556   5.399
11060TIP3    H233138   4.311   7.442   5.335
11061TIP3   OH233139   8.256   7.794   2.989
11061TIP3    H133140   8.324   7.845   2.945
11061TIP3    H233141   8.226   7.852   3.060
11062TIP3   OH233142   2.109   5.842   0.941
11062TIP3    H133143   2.132   5.928   0.906
11062TIP3    H233144   2.147   5.780   0.878
11063TIP3   OH233145   2.924   2.710   1.032
11063TIP3    H133146   2.987   2.642   1.008
11063TIP3    H233147   2.878   2.676   1.108
11064TIP3   OH233148   8.078   3.569   6.488
11064TIP3    H133149   8.149   3.523   6.443
11064TIP3    H233150   8.048   3.634   6.425
11065TIP3   OH233151   7.855   2.291   3.207
11065TIP3    H133152   7.840   2.247   3.124
11065TIP3    H233153   7.909   2.367   3.185
11066TIP3   OH233154   1.107   4.885   4.864
11066TIP3    H133155   1.180   4.836   4.902
11066TIP3    H233156   1.113   4.867   4.770
11067TIP3   OH233157   3.194   1.868   3.583
11067TIP3    H133158   3.225   1.784   3.548
11067TIP3    H233159   3.099   1.860   3.583
11068TIP3   OH233160   4.399   6.099   5.020
11068TIP3    H133161   4.329   6.036   5.001
11068TIP3    H233162   4.408   6.150   4.940
11069TIP3   OH233163   0.961   1.622   1.239
11069TIP3    H133164   1.009   1.560   1.183
11069TIP3    H233165   0.933   1.569   1.313
11070TIP3   OH233166   6.628   6.569   0.423
11070TIP3    H133167   6.625   6.665   0.427
11070TIP3    H233168   6.546   6.541   0.464
11071TIP3   OH233169   3.568   4.888   2.676
11071TIP3    H133170   3.517   4.948   2.731
11071TIP3    H233171   3.652   4.933   2.664
11072TIP3   OH233172   3.824   3.393   0.785
11072TIP3    H133173   3.793   3.447   0.857
11072TIP3    H233174   3.917   3.380   0.802
11073TIP3   OH233175   3.821   2.723   0.853
11073TIP3    H133176   3.867   2.806   0.856
11073TIP3    H233177   3.748   2.737   0.793
11074TIP3   OH233178   5.034   5.947   4.434
11074TIP3    H133179   5.038   6.035   4.398
11074TIP3    H233180   5.113   5.939   4.488
11075TIP3   OH233181   4.469   6.371   2.016
11075TIP3    H133182   4.491   6.450   1.967
11075TIP3    H233183   4.376   6.357   1.999
11076TIP3   OH233184   6.657   1.049   2.998
11076TIP3    H133185   6.737   1.079   2.955
11076TIP3    H233186   6.589   1.109   2.966
11077TIP3   OH233187   0.364   7.538   2.939
11077TIP3    H133188   0.447   7.548   2.893
11077TIP3    H233189   0.300   7.582   2.882
11078TIP3   OH233190   2.484   3.349   6.177
11078TIP3    H133191   2.505   3.440   6.158
11078TIP3    H233192   2.420   3.325   6.109
11079TIP3   OH233193   8.111   7.264   5.514
11079TIP3    H133194   8.137   7.267   5.422
11079TIP3    H233195   8.170   7.200   5.554
11080TIP3   OH233196   7.830   4.005   0.400
11080TIP3    H133197   7.780   3.977   0.476
11080TIP3    H233198   7.881   3.928   0.375
11081TIP3   OH233199   3.205   1.191   4.440
11081TIP3    H133200   3.199   1.163   4.348
11081TIP3    H233201   3.264   1.127   4.480
11082TIP3   OH233202   7.549   3.794   5.703
11082TIP3    H133203   7.641   3.814   5.685
11082TIP3    H233204   7.531   3.838   5.786
11083TIP3   OH233205   2.441   5.710   0.602
11083TIP3    H133206   2.358   5.682   0.566
11083TIP3    H233207   2.452   5.658   0.682
11084TIP3   OH233208   4.858   3.268   0.080
11084TIP3    H133209   4.780   3.223   0.048
11084TIP3    H233210   4.848   3.358   0.049
11085TIP3   OH233211   8.148   1.495   6.031
11085TIP3    H133212   8.160   1.506   5.936
11085TIP3    H233213   8.128   1.583   6.063
11086TIP3   OH233214   1.301   1.318   6.281
11086TIP3    H133215   1.365   1.260   6.323
11086TIP3    H233216   1.354   1.378   6.229
11087TIP3   OH233217   3.791   4.953   1.368
11087TIP3    H133218   3.776   4.948   1.462
11087TIP3    H233219   3.857   4.886   1.350
11088TIP3   OH233220   7.122   2.758   3.577
11088TIP3    H133221   7.186   2.821   3.543
11088TIP3    H233222   7.047   2.766   3.518
11089TIP3   OH233223   5.685   6.348   3.699
11089TIP3    H133224   5.722   6.391   3.622
11089TIP3    H233225   5.742   6.272   3.714
11090TIP3   OH233226   7.287   0.272   6.236
11090TIP3    H133227   7.284   0.207   6.306
11090TIP3    H233228   7.368   0.253   6.189
11091TIP3   OH233229   6.691   3.599   0.016
11091TIP3    H133230   6.740   3.526   0.054
11091TIP3    H233231   6.758   3.650  -0.030
11092TIP3   OH233232   4.221   1.875   0.794
11092TIP3    H133233   4.202   1.781   0.802
11092TIP3    H233234   4.205   1.910   0.881
11093TIP3   OH233235   5.484   4.799   1.484
11093TIP3    H133236   5.520   4.715   1.513
11093TIP3    H233237   5.554   4.862   1.500
11094TIP3   OH233238   3.197   2.420   6.664
11094TIP3    H133239   3.138   2.441   6.592
11094TIP3    H233240   3.167   2.335   6.696
11095TIP3   OH233241   0.097   5.559   5.492
11095TIP3    H133242   0.012   5.592   5.521
11095TIP3    H233243   0.138   5.526   5.573
11096TIP3   OH233244   5.405   3.617   5.530
11096TIP3    H133245   5.483   3.586   5.484
11096TIP3    H233246   5.348   3.650   5.460
11097TIP3   OH233247   1.778   0.431   4.038
11097TIP3    H133248   1.768   0.356   3.980
11097TIP3    H233249   1.701   0.428   4.095
11098TIP3   OH233250   1.632   4.045   0.573
11098TIP3    H133251   1.610   4.072   0.484
11098TIP3    H233252   1.667   4.123   0.615
11099TIP3   OH233253   4.458   5.656   3.452
11099TIP3    H133254   4.500   5.716   3.514
11099TIP3    H233255   4.459   5.571   3.497
11100TIP3   OH233256   3.050   5.807   1.822
11100TIP3    H133257   3.059   5.775   1.912
11100TIP3    H233258   3.137   5.796   1.784
11101TIP3   OH233259   7.595   0.645   1.402
11101TIP3    H133260   7.674   0.603   1.367
11101TIP3    H233261   7.610   0.738   1.389
11102TIP3   OH233262   7.518   2.950   0.695
11102TIP3    H133263   7.465   3.030   0.701
11102TIP3    H233264   7.455   2.882   0.672
11103TIP3   OH233265   3.412   4.659   5.901
11103TIP3    H133266   3.420   4.580   5.847
11103TIP3    H233267   3.319   4.667   5.918
11104TIP3   OH233268   7.294   1.329   1.000
11104TIP3    H133269   7.387   1.325   1.021
11104TIP3    H233270   7.261   1.403   1.050
11105TIP3   OH233271   7.607   3.412   6.358
11105TIP3    H133272   7.680   3.371   6.405
11105TIP3    H233273   7.603   3.501   6.392
11106TIP3   OH233274   6.370   4.130   5.911
11106TIP3    H133275   6.430   4.056   5.911
11106TIP3    H233276   6.427   4.207   5.904
11107TIP3   OH233277   2.581   2.531   1.280
11107TIP3    H133278   2.558   2.609   1.229
11107TIP3    H233279   2.517   2.529   1.351
11108TIP3   OH233280   6.740   6.341   5.322
11108TIP3    H133281   6.835   6.325   5.318
11108TIP3    H233282   6.701   6.261   5.287
11109TIP3   OH233283   1.706   6.404   5.336
11109TIP3    H133284   1.667   6.411   5.423
11109TIP3    H233285   1.787   6.456   5.342
11110TIP3   OH233286   5.577   1.191   2.477
11110TIP3    H133287   5.541   1.104   2.459
11110TIP3    H233288   5.645   1.203   2.411
11111TIP3   OH233289   0.054   3.784   0.254
11111TIP3    H133290   0.032   3.764   0.163
11111TIP3    H233291   0.040   3.878   0.262
11112TIP3   OH233292   3.342   6.234   4.027
11112TIP3    H133293   3.408   6.200   3.966
11112TIP3    H233294   3.338   6.328   4.007
11113TIP3   OH233295   2.456   3.919   3.416
11113TIP3    H133296   2.528   3.957   3.468
11113TIP3    H233297   2.397   3.992   3.400
11114TIP3   OH233298   7.911   3.382   0.238
11114TIP3    H133299   7.830   3.366   0.191
11114TIP3    H233300   7.893   3.353   0.328
11115TIP3   OH233301   2.470   4.340   4.927
11115TIP3    H133302   2.396   4.396   4.906
11115TIP3    H233303   2.536   4.361   4.861
11116TIP3   OH233304   4.005   0.846   4.774
11116TIP3    H133305   3.914   0.841   4.804
11116TIP3    H233306   4.025   0.757   4.746
11117TIP3   OH233307   1.316   6.048   1.883
11117TIP3    H133308   1.243   6.006   1.838
11117TIP3    H233309   1.369   6.087   1.814
11118TIP3   OH233310   3.968   2.918   3.340
11118TIP3    H133311   3.980   3.012   3.352
11118TIP3    H233312   3.896   2.895   3.399
11119TIP3   OH233313   2.627   0.465   3.978
11119TIP3    H133314   2.720   0.461   3.999
11119TIP3    H233315   2.598   0.374   3.977
11120TIP3   OH233316   2.662   4.254   5.713
11120TIP3    H133317   2.744   4.222   5.750
11120TIP3    H233318   2.673   4.246   5.618
11121TIP3   OH233319   5.456   5.362   6.086
11121TIP3    H133320   5.404   5.287   6.057
11121TIP3    H233321   5.512   5.383   6.012
11122TIP3   OH233322   6.374   3.598   5.076
11122TIP3    H133323   6.432   3.523   5.092
11122TIP3    H233324   6.343   3.623   5.163
11123TIP3   OH233325   7.295   1.318   0.601
11123TIP3    H133326   7.240   1.377   0.549
11123TIP3    H233327   7.380   1.321   0.559
11124TIP3   OH233328   5.548   4.289   3.212
11124TIP3    H133329   5.496   4.269   3.289
11124TIP3    H233330   5.505   4.365   3.173
11125TIP3   OH233331   0.522   5.289   0.746
11125TIP3    H133332   0.430   5.301   0.722
11125TIP3    H233333   0.571   5.310   0.666
11126TIP3   OH233334   3.328   3.686   3.613
11126TIP3    H133335   3.251   3.719   3.567
11126TIP3    H233336   3.391   3.668   3.543
11127TIP3   OH233337   5.676   2.523   3.281
11127TIP3    H133338   5.682   2.500   3.188
11127TIP3    H233339   5.663   2.439   3.325
11128TIP3   OH233340   2.890   7.652   0.927
11128TIP3    H133341   2.953   7.712   0.888
11128TIP3    H233342   2.836   7.707   0.984
11129TIP3   OH233343   6.838   5.751   1.022
11129TIP3    H133344   6.773   5.805   0.976
11129TIP3    H233345   6.916   5.758   0.967
11130TIP3   OH233346   5.302   0.595   0.822
11130TIP3    H133347   5.295   0.687   0.849
11130TIP3    H233348   5.395   0.574   0.833
11131TIP3   OH233349   4.799   6.053   1.247
11131TIP3    H133350   4.717   6.099   1.268
11131TIP3    H233351   4.868   6.108   1.285
11132TIP3   OH233352   5.935   5.283   6.476
11132TIP3    H133353   5.942   5.375   6.501
11132TIP3    H233354   5.841   5.270   6.460
11133TIP3   OH233355   7.979   7.176   2.609
11133TIP3    H133356   7.921   7.242   2.646
11133TIP3    H233357   7.943   7.158   2.522
11134TIP3   OH233358   4.291   0.527   5.061
11134TIP3    H133359   4.355   0.576   5.112
11134TIP3    H233360   4.336   0.504   4.980
11135TIP3   OH233361   7.737   3.234   1.282
11135TIP3    H133362   7.667   3.238   1.216
11135TIP3    H233363   7.755   3.326   1.303
11136TIP3   OH233364   2.310   2.386   0.665
11136TIP3    H133365   2.242   2.410   0.728
11136TIP3    H233366   2.267   2.323   0.607
11137TIP3   OH233367   5.978   3.893   1.886
11137TIP3    H133368   5.964   3.969   1.830
11137TIP3    H233369   6.057   3.913   1.935
11138TIP3   OH233370   1.909   7.190   2.284
11138TIP3    H133371   1.893   7.110   2.235
11138TIP3    H233372   1.991   7.174   2.331
11139TIP3   OH233373   3.932   7.384   4.970
11139TIP3    H133374   3.851   7.353   5.012
11139TIP3    H233375   3.960   7.457   5.025
11140TIP3   OH233376   0.258   5.024   1.530
11140TIP3    H133377   0.321   4.955   1.511
11140TIP3    H233378   0.231   5.009   1.620
11141TIP3   OH233379   0.906   4.286   5.699
11141TIP3    H133380   0.880   4.316   5.786
11141TIP3    H233381   0.884   4.359   5.641
11142TIP3   OH233382   4.901   4.572   0.220
11142TIP3    H133383   4.990   4.541   0.202
11142TIP3    H233384   4.910   4.629   0.295
11143TIP3   OH233385   4.865   6.464   4.299
11143TIP3    H133386   4.838   6.547   4.338
11143TIP3    H233387   4.934   6.488   4.237
11144TIP3   OH233388   1.412   7.645   6.740
11144TIP3    H133389   1.491   7.665   6.690
11144TIP3    H233390   1.368   7.729   6.751
11145TIP3   OH233391   0.886   6.267   2.015
11145TIP3    H133392   0.838   6.287   2.095
11145TIP3    H233393   0.977   6.292   2.034
11146TIP3   OH233394   8.156   6.837   1.522
11146TIP3    H133395   8.198   6.812   1.440
11146TIP3    H233396   8.104   6.760   1.547
11147TIP3   OH233397   5.221   7.591   1.161
11147TIP3    H133398   5.252   7.620   1.075
11147TIP3    H233399   5.129   7.617   1.162
11148TIP3   OH233400   0.138   4.300   6.324
11148TIP3    H133401   0.085   4.375   6.298
11148TIP3    H233402   0.205   4.292   6.256
11149TIP3   OH233403   6.164   1.387   3.685
11149TIP3    H133404   6.096   1.395   3.752
11149TIP3    H233405   6.239   1.434   3.721
11150TIP3   OH233406   1.361   4.701   5.493
11150TIP3    H133407   1.369   4.741   5.406
11150TIP3    H233408   1.451   4.685   5.521
11151TIP3   OH233409   7.077   5.019   6.545
11151TIP3    H133410   7.013   5.090   6.557
11151TIP3    H233411   7.161   5.058   6.569
11152TIP3   OH233412   6.736   3.423   4.583
11152TIP3    H133413   6.660   3.481   4.576
11152TIP3    H233414   6.767   3.414   4.492
11153TIP3   OH233415   7.750   7.197   1.896
11153TIP3    H133416   7.762   7.112   1.938
11153TIP3    H233417   7.661   7.194   1.860
11154TIP3   OH233418   0.290   3.860   4.247
11154TIP3    H133419   0.210   3.878   4.198
11154TIP3    H233420   0.335   3.793   4.195
11155TIP3   OH233421   6.976   5.260   6.669
11155TIP3    H133422   7.063   5.293   6.691
11155TIP3    H233423   6.942   5.225   6.751
11156TIP3   OH233424   3.954   5.454   5.760
11156TIP3    H133425   4.012   5.403   5.817
11156TIP3    H233426   3.992   5.542   5.761
11157TIP3   OH233427   3.223   6.780   4.914
11157TIP3    H133428   3.313   6.811   4.920
11157TIP3    H233429   3.230   6.694   4.873
11158TIP3   OH233430   1.493   6.723   2.834
11158TIP3    H133431   1.504   6.653   2.771
11158TIP3    H233432   1.516   6.803   2.786
11159TIP3   OH233433   7.399   0.248   1.058
11159TIP3    H133434   7.401   0.341   1.080
11159TIP3    H233435   7.341   0.242   0.982
11160TIP3   OH233436   8.078   1.026   1.838
11160TIP3    H133437   8.036   1.088   1.778
11160TIP3    H233438   8.025   0.947   1.831
11161TIP3   OH233439   3.119   6.709   4.314
11161TIP3    H133440   3.161   6.659   4.244
11161TIP3    H233441   3.167   6.792   4.315
11162TIP3   OH233442   6.467   4.632   1.901
11162TIP3    H133443   6.451   4.597   1.814
11162TIP3    H233444   6.383   4.625   1.946
11163TIP3   OH233445   2.323   0.951   1.013
11163TIP3    H133446   2.389   1.018   1.029
11163TIP3    H233447   2.279   0.940   1.098
11164TIP3   OH233448   8.243   7.600   5.453
11164TIP3    H133449   8.214   7.524   5.403
11164TIP3    H233450   8.277   7.661   5.388
11165TIP3   OH233451   6.992   1.019   1.703
11165TIP3    H133452   6.950   0.940   1.667
11165TIP3    H233453   6.954   1.028   1.791
11166TIP3   OH233454   3.148   3.463   0.766
11166TIP3    H133455   3.065   3.449   0.721
11166TIP3    H233456   3.180   3.375   0.784
11167TIP3   OH233457   0.896   1.802   6.142
11167TIP3    H133458   0.909   1.780   6.234
11167TIP3    H233459   0.974   1.852   6.118
11168TIP3   OH233460   3.763   5.647   1.176
11168TIP3    H133461   3.785   5.618   1.088
11168TIP3    H233462   3.808   5.585   1.234
11169TIP3   OH233463   1.797   1.188   6.675
11169TIP3    H133464   1.731   1.236   6.625
11169TIP3    H233465   1.833   1.252   6.736
11170TIP3   OH233466   6.375   1.368   3.138
11170TIP3    H133467   6.450   1.416   3.172
11170TIP3    H233468   6.378   1.283   3.183
11171TIP3   OH233469   5.590   1.270   0.997
11171TIP3    H133470   5.648   1.195   0.986
11171TIP3    H233471   5.648   1.346   0.993
11172TIP3   OH233472   6.174   1.009   2.399
11172TIP3    H133473   6.221   0.988   2.480
11172TIP3    H233474   6.157   0.924   2.358
11173TIP3   OH233475   5.898   3.598   3.661
11173TIP3    H133476   5.967   3.574   3.722
11173TIP3    H233477   5.941   3.604   3.576
11174TIP3   OH233478   1.116   1.997   5.018
11174TIP3    H133479   1.032   2.002   5.063
11174TIP3    H233480   1.126   1.905   4.995
11175TIP3   OH233481   6.936   5.582   3.306
11175TIP3    H133482   6.889   5.615   3.382
11175TIP3    H233483   7.020   5.550   3.341
11176TIP3   OH233484   1.625   5.394   5.140
11176TIP3    H133485   1.540   5.432   5.119
11176TIP3    H233486   1.606   5.302   5.161
11177TIP3   OH233487   0.784   4.911   1.753
11177TIP3    H133488   0.867   4.936   1.794
11177TIP3    H233489   0.808   4.845   1.688
11178TIP3   OH233490   6.638   3.233   5.818
11178TIP3    H133491   6.598   3.320   5.810
11178TIP3    H233492   6.630   3.211   5.911
11179TIP3   OH233493   4.544   3.993   2.050
11179TIP3    H133494   4.540   3.938   1.971
11179TIP3    H233495   4.590   3.939   2.114
11180TIP3   OH233496   5.664   3.521   3.275
11180TIP3    H133497   5.626   3.493   3.358
11180TIP3    H233498   5.595   3.571   3.232
11181TIP3   OH233499   4.527   2.894   4.968
11181TIP3    H133500   4.440   2.898   4.929
11181TIP3    H233501   4.537   2.978   5.013
11182TIP3   OH233502   6.407   2.707   6.377
11182TIP3    H133503   6.400   2.612   6.367
11182TIP3    H233504   6.339   2.729   6.441
11183TIP3   OH233505   5.133   4.478   4.336
11183TIP3    H133506   5.068   4.537   4.375
11183TIP3    H233507   5.217   4.521   4.351
11184TIP3   OH233508   1.516   6.907   3.584
11184TIP3    H133509   1.461   6.845   3.632
11184TIP3    H233510   1.498   6.992   3.625
11185TIP3   OH233511   6.647   2.357   4.718
11185TIP3    H133512   6.646   2.437   4.665
11185TIP3    H233513   6.732   2.357   4.760
11186TIP3   OH233514   1.434   5.152   3.740
11186TIP3    H133515   1.371   5.176   3.672
11186TIP3    H233516   1.503   5.218   3.733
11187TIP3   OH233517   6.478   6.502   5.662
11187TIP3    H133518   6.467   6.597   5.662
11187TIP3    H233519   6.405   6.469   5.715
11188TIP3   OH233520   0.831   7.584   3.165
11188TIP3    H133521   0.879   7.533   3.100
11188TIP3    H233522   0.873   7.562   3.248
11189TIP3   OH233523   7.386   3.211   1.716
11189TIP3    H133524   7.351   3.207   1.627
11189TIP3    H233525   7.337   3.144   1.764
11190TIP3   OH233526   0.331   2.956   0.234
11190TIP3    H133527   0.363   2.867   0.220
11190TIP3    H233528   0.271   2.948   0.308
11191TIP3   OH233529   6.601   6.326   2.558
11191TIP3    H133530   6.536   6.265   2.592
11191TIP3    H233531   6.647   6.276   2.490
11192TIP3   OH233532   8.040   0.828   5.956
11192TIP3    H133533   7.957   0.864   5.987
11192TIP3    H233534   8.059   0.877   5.876
11193TIP3   OH233535   0.321   3.601   2.047
11193TIP3    H133536   0.364   3.516   2.048
11193TIP3    H233537   0.275   3.604   1.963
11194TIP3   OH233538   0.866   6.616   4.361
11194TIP3    H133539   0.933   6.560   4.320
11194TIP3    H233540   0.906   6.646   4.442
11195TIP3   OH233541   1.093   6.751   3.412
11195TIP3    H133542   1.089   6.828   3.469
11195TIP3    H233543   1.139   6.685   3.464
11196TIP3   OH233544   1.737   1.467   5.761
11196TIP3    H133545   1.817   1.469   5.707
11196TIP3    H233546   1.676   1.414   5.711
11197TIP3   OH233547   6.976   5.556   5.440
11197TIP3    H133548   6.964   5.555   5.535
11197TIP3    H233549   6.982   5.649   5.417
11198TIP3   OH233550   1.654   4.983   0.228
11198TIP3    H133551   1.575   5.032   0.205
11198TIP3    H233552   1.637   4.948   0.315
11199TIP3   OH233553   0.628   4.988   0.793
11199TIP3    H133554   0.589   5.074   0.777
11199TIP3    H233555   0.574   4.927   0.743
11200TIP3   OH233556   1.715   0.192   5.099
11200TIP3    H133557   1.718   0.128   5.029
11200TIP3    H233558   1.807   0.207   5.123
11201TIP3   OH233559   0.559   2.344   3.782
11201TIP3    H133560   0.465   2.335   3.797
11201TIP3    H233561   0.566   2.399   3.704
11202TIP3   OH233562   1.601   7.157   5.366
11202TIP3    H133563   1.593   7.062   5.361
11202TIP3    H233564   1.626   7.175   5.456
11203TIP3   OH233565   6.524   4.730   6.564
11203TIP3    H133566   6.500   4.689   6.481
11203TIP3    H233567   6.457   4.699   6.626
11204TIP3   OH233568   4.466   3.928   5.219
11204TIP3    H133569   4.416   3.994   5.171
11204TIP3    H233570   4.449   3.846   5.171
11205TIP3   OH233571   3.643   4.282   4.306
11205TIP3    H133572   3.670   4.345   4.240
11205TIP3    H233573   3.549   4.272   4.291
11206TIP3   OH233574   0.069   5.184   1.919
11206TIP3    H133575   0.065   5.155   2.010
11206TIP3    H233576   0.108   5.111   1.871
11207TIP3   OH233577   8.071   5.502   4.161
11207TIP3    H133578   8.156   5.485   4.200
11207TIP3    H233579   8.043   5.585   4.200
11208TIP3   OH233580   7.623   5.986   6.334
11208TIP3    H133581   7.676   6.060   6.306
11208TIP3    H233582   7.553   6.024   6.387
11209TIP3   OH233583   3.000   4.857   3.569
11209TIP3    H133584   3.006   4.814   3.654
11209TIP3    H233585   3.071   4.922   3.571
11210TIP3   OH233586   6.774   6.628   5.241
11210TIP3    H133587   6.823   6.647   5.160
11210TIP3    H233588   6.750   6.536   5.234
11211TIP3   OH233589   7.661   2.235   4.149
11211TIP3    H133590   7.755   2.219   4.153
11211TIP3    H233591   7.651   2.305   4.084
11212TIP3   OH233592   0.645   5.501   4.941
11212TIP3    H133593   0.565   5.497   4.888
11212TIP3    H233594   0.664   5.594   4.948
11213TIP3   OH233595   6.747   3.006   1.960
11213TIP3    H133596   6.769   2.941   2.026
11213TIP3    H233597   6.794   2.978   1.881
11214TIP3   OH233598   7.284   7.602   1.050
11214TIP3    H133599   7.212   7.543   1.074
11214TIP3    H233600   7.324   7.626   1.133
11215TIP3   OH233601   1.075   6.406   1.445
11215TIP3    H133602   1.016   6.399   1.520
11215TIP3    H233603   1.152   6.450   1.480
11216TIP3   OH233604   7.407   0.412   0.630
11216TIP3    H133605   7.447   0.401   0.543
11216TIP3    H233606   7.462   0.358   0.688
11217TIP3   OH233607   6.800   3.065   4.368
11217TIP3    H133608   6.884   3.102   4.344
11217TIP3    H233609   6.743   3.084   4.293
11218TIP3   OH233610   1.027   2.014   3.524
11218TIP3    H133611   0.946   1.963   3.525
11218TIP3    H233612   1.025   2.062   3.606
11219TIP3   OH233613   6.816   7.322   5.389
11219TIP3    H133614   6.877   7.269   5.441
11219TIP3    H233615   6.872   7.373   5.331
11220TIP3   OH233616   5.634   7.279   2.406
11220TIP3    H133617   5.645   7.217   2.334
11220TIP3    H233618   5.561   7.244   2.457
11221TIP3   OH233619   5.528   4.431   0.493
11221TIP3    H133620   5.511   4.506   0.550
11221TIP3    H233621   5.615   4.449   0.457
11222TIP3   OH233622   1.598   3.266   1.945
11222TIP3    H133623   1.525   3.291   2.001
11222TIP3    H233624   1.662   3.336   1.956
11223TIP3   OH233625   2.293   1.741   5.663
11223TIP3    H133626   2.210   1.773   5.699
11223TIP3    H233627   2.269   1.693   5.584
11224TIP3   OH233628   0.112   3.314   4.684
11224TIP3    H133629   0.059   3.237   4.704
11224TIP3    H233630   0.189   3.306   4.740
11225TIP3   OH233631   2.735   3.354   3.861
11225TIP3    H133632   2.812   3.405   3.885
11225TIP3    H233633   2.746   3.338   3.767
11226TIP3   OH233634   4.631   6.816   6.680
11226TIP3    H133635   4.608   6.762   6.755
11226TIP3    H233636   4.725   6.800   6.667
11227TIP3   OH233637   6.727   6.045   5.953
11227TIP3    H133638   6.672   6.038   5.875
11227TIP3    H233639   6.765   6.132   5.948
11228TIP3   OH233640   3.656   1.052   3.850
11228TIP3    H133641   3.682   1.142   3.867
11228TIP3    H233642   3.572   1.059   3.805
11229TIP3   OH233643   4.287   5.137   1.008
11229TIP3    H133644   4.357   5.134   0.942
11229TIP3    H233645   4.318   5.078   1.077
11230TIP3   OH233646   0.158   1.241   2.600
11230TIP3    H133647   0.074   1.195   2.601
11230TIP3    H233648   0.195   1.221   2.513
11231TIP3   OH233649   6.464   6.804   3.781
11231TIP3    H133650   6.439   6.719   3.743
11231TIP3    H233651   6.424   6.868   3.722
11232TIP3   OH233652   5.753   1.038   0.968
11232TIP3    H133653   5.726   0.956   0.928
11232TIP3    H233654   5.806   1.011   1.043
11233TIP3   OH233655   1.930   1.732   3.756
11233TIP3    H133656   1.903   1.782   3.680
11233TIP3    H233657   2.008   1.685   3.728
11234TIP3   OH233658   8.170   4.297   0.452
11234TIP3    H133659   8.122   4.272   0.373
11234TIP3    H233660   8.257   4.322   0.420
11235TIP3   OH233661   5.365   5.461   2.626
11235TIP3    H133662   5.341   5.382   2.577
11235TIP3    H233663   5.444   5.492   2.582
11236TIP3   OH233664   3.230   1.159   1.668
11236TIP3    H133665   3.318   1.152   1.632
11236TIP3    H233666   3.243   1.168   1.762
11237TIP3   OH233667   6.113   5.873   5.468
11237TIP3    H133668   6.057   5.951   5.468
11237TIP3    H233669   6.202   5.909   5.467
11238TIP3   OH233670   7.868   6.108   4.115
11238TIP3    H133671   7.905   6.020   4.120
11238TIP3    H233672   7.788   6.098   4.062
11239TIP3   OH233673   4.651   0.465   0.757
11239TIP3    H133674   4.560   0.492   0.771
11239TIP3    H233675   4.693   0.542   0.719
11240TIP3   OH233676   1.783   1.839   3.557
11240TIP3    H133677   1.724   1.770   3.588
11240TIP3    H233678   1.724   1.906   3.521
11241TIP3   OH233679   7.780   7.558   1.162
11241TIP3    H133680   7.822   7.618   1.100
11241TIP3    H233681   7.849   7.495   1.185
11242TIP3   OH233682   3.918   6.107   3.158
11242TIP3    H133683   3.860   6.068   3.094
11242TIP3    H233684   3.928   6.198   3.129
11243TIP3   OH233685   1.128   2.452   2.814
11243TIP3    H133686   1.198   2.456   2.879
11243TIP3    H233687   1.081   2.535   2.824
11244TIP3   OH233688   7.112   5.704   4.161
11244TIP3    H133689   7.189   5.648   4.156
11244TIP3    H233690   7.054   5.660   4.223
11245TIP3   OH233691   1.417   6.520   4.370
11245TIP3    H133692   1.485   6.520   4.302
11245TIP3    H233693   1.392   6.428   4.378
11246TIP3   OH233694   2.576   5.226   0.358
11246TIP3    H133695   2.480   5.230   0.359
11246TIP3    H233696   2.598   5.148   0.408
11247TIP3   OH233697   4.949   3.324   5.122
11247TIP3    H133698   4.907   3.249   5.080
11247TIP3    H233699   4.880   3.389   5.130
11248TIP3   OH233700   4.931   0.039   1.924
11248TIP3    H133701   4.895   0.039   1.835
11248TIP3    H233702   4.903  -0.045   1.961
11249TIP3   OH233703   5.413   1.195   1.707
11249TIP3    H133704   5.368   1.113   1.729
11249TIP3    H233705   5.505   1.179   1.729
11250TIP3   OH233706   2.969   4.501   1.344
11250TIP3    H133707   2.968   4.515   1.249
11250TIP3    H233708   2.981   4.407   1.354
11251TIP3   OH233709   6.644   6.013   5.171
11251TIP3    H133710   6.704   5.953   5.126
11251TIP3    H233711   6.609   5.962   5.244
11252TIP3   OH233712   0.780   0.898   4.778
11252TIP3    H133713   0.701   0.892   4.832
11252TIP3    H233714   0.747   0.911   4.689
11253TIP3   OH233715   4.028   2.423   3.040
11253TIP3    H133716   3.984   2.424   3.125
11253TIP3    H233717   4.087   2.347   3.044
11254TIP3   OH233718   0.298   3.453   1.640
11254TIP3    H133719   0.325   3.537   1.602
11254TIP3    H233720   0.314   3.389   1.571
11255TIP3   OH233721   2.107   2.147   5.630
11255TIP3    H133722   2.080   2.131   5.720
11255TIP3    H233723   2.030   2.123   5.577
11256TIP3   OH233724   0.379   1.715   2.994
11256TIP3    H133725   0.411   1.715   3.084
11256TIP3    H233726   0.321   1.639   2.988
11257TIP3   OH233727   5.179   3.145   1.121
11257TIP3    H133728   5.252   3.204   1.140
11257TIP3    H233729   5.102   3.202   1.123
11258TIP3   OH233730   6.429   2.021   4.174
11258TIP3    H133731   6.480   2.084   4.123
11258TIP3    H233732   6.489   1.949   4.191
11259TIP3   OH233733   1.954   2.766   2.182
11259TIP3    H133734   1.936   2.717   2.263
11259TIP3    H233735   2.040   2.805   2.196
11260TIP3   OH233736   2.378   1.834   2.760
11260TIP3    H133737   2.373   1.878   2.845
11260TIP3    H233738   2.454   1.874   2.717
11261TIP3   OH233739   5.837   5.111   4.853
11261TIP3    H133740   5.895   5.043   4.888
11261TIP3    H233741   5.847   5.184   4.914
11262TIP3   OH233742   6.579   4.419   1.402
11262TIP3    H133743   6.543   4.505   1.424
11262TIP3    H233744   6.503   4.365   1.384
11263TIP3   OH233745   4.899   4.568   2.611
11263TIP3    H133746   4.856   4.483   2.618
11263TIP3    H233747   4.832   4.631   2.638
11264TIP3   OH233748   2.662   5.270   4.511
11264TIP3    H133749   2.626   5.294   4.597
11264TIP3    H233750   2.662   5.174   4.511
11265TIP3   OH233751   4.529   7.146   4.150
11265TIP3    H133752   4.557   7.236   4.162
11265TIP3    H233753   4.590   7.110   4.086
11266TIP3   OH233754   2.509   2.024   6.292
11266TIP3    H133755   2.431   2.049   6.243
11266TIP3    H233756   2.529   1.935   6.261
11267TIP3   OH233757   5.255   4.018   2.986
11267TIP3    H133758   5.297   3.971   2.914
11267TIP3    H233759   5.162   4.007   2.971
11268TIP3   OH233760   6.447   0.755   1.102
11268TIP3    H133761   6.462   0.835   1.051
11268TIP3    H233762   6.428   0.786   1.190
11269TIP3   OH233763   2.933   3.836   1.495
11269TIP3    H133764   2.944   3.874   1.408
11269TIP3    H233765   2.842   3.853   1.517
11270TIP3   OH233766   3.713   4.386   4.756
11270TIP3    H133767   3.672   4.307   4.721
11270TIP3    H233768   3.783   4.353   4.814
11271TIP3   OH233769   5.143   3.920   6.121
11271TIP3    H133770   5.051   3.918   6.092
11271TIP3    H233771   5.194   3.916   6.040
11272TIP3   OH233772   7.266   7.303   6.288
11272TIP3    H133773   7.318   7.383   6.287
11272TIP3    H233774   7.178   7.330   6.262
11273TIP3   OH233775   5.761   3.946   4.150
11273TIP3    H133776   5.678   3.990   4.165
11273TIP3    H233777   5.808   3.954   4.233
11274TIP3   OH233778   3.655   7.541   0.949
11274TIP3    H133779   3.659   7.450   0.978
11274TIP3    H233780   3.694   7.591   1.021
11275TIP3   OH233781   1.486   1.614   2.353
11275TIP3    H133782   1.540   1.690   2.332
11275TIP3    H233783   1.473   1.619   2.448
11276TIP3   OH233784   5.185   0.225   2.646
11276TIP3    H133785   5.123   0.182   2.704
11276TIP3    H233786   5.155   0.316   2.642
11277TIP3   OH233787   4.542   2.108   1.031
11277TIP3    H133788   4.493   2.129   0.951
11277TIP3    H233789   4.529   2.184   1.087
11278TIP3   OH233790   2.747   5.834   0.111
11278TIP3    H133791   2.790   5.912   0.146
11278TIP3    H233792   2.657   5.839   0.144
11279TIP3   OH233793   2.151   3.646   4.941
11279TIP3    H133794   2.211   3.591   4.891
11279TIP3    H233795   2.202   3.725   4.962
11280TIP3   OH233796   7.362   1.983   5.724
11280TIP3    H133797   7.416   1.906   5.743
11280TIP3    H233798   7.375   1.998   5.631
11281TIP3   OH233799   6.061   6.985   1.897
11281TIP3    H133800   6.122   6.992   1.971
11281TIP3    H233801   6.115   6.952   1.825
11282TIP3   OH233802   3.940   0.067   5.461
11282TIP3    H133803   4.020   0.119   5.461
11282TIP3    H233804   3.971  -0.024   5.462
11283TIP3   OH233805   4.901   7.706   2.258
11283TIP3    H133806   4.907   7.612   2.269
11283TIP3    H233807   4.807   7.724   2.249
11284TIP3   OH233808   1.987   3.027   0.648
11284TIP3    H133809   2.061   3.079   0.678
11284TIP3    H233810   1.995   3.026   0.552
11285TIP3   OH233811   3.368   2.848   0.354
11285TIP3    H133812   3.316   2.882   0.426
11285TIP3    H233813   3.454   2.830   0.392
11286TIP3   OH233814   1.393   6.612   3.696
11286TIP3    H133815   1.454   6.610   3.770
11286TIP3    H233816   1.330   6.680   3.719
11287TIP3   OH233817   6.392   1.664   2.644
11287TIP3    H133818   6.409   1.578   2.607
11287TIP3    H233819   6.430   1.661   2.732
11288TIP3   OH233820   1.937   6.553   4.440
11288TIP3    H133821   1.956   6.479   4.496
11288TIP3    H233822   1.950   6.520   4.351
11289TIP3   OH233823   1.390   4.340   6.224
11289TIP3    H133824   1.403   4.424   6.268
11289TIP3    H233825   1.300   4.315   6.246
11290TIP3   OH233826   7.215   7.697   2.771
11290TIP3    H133827   7.279   7.756   2.732
11290TIP3    H233828   7.156   7.754   2.820
11291TIP3   OH233829   2.468   2.885   3.865
11291TIP3    H133830   2.376   2.909   3.876
11291TIP3    H233831   2.505   2.957   3.813
11292TIP3   OH233832   2.195   6.284   3.348
11292TIP3    H133833   2.213   6.345   3.276
11292TIP3    H233834   2.280   6.248   3.371
11293TIP3   OH233835   3.777   1.873   5.551
11293TIP3    H133836   3.742   1.814   5.617
11293TIP3    H233837   3.868   1.889   5.579
11294TIP3   OH233838   1.767   6.789   2.823
11294TIP3    H133839   1.738   6.860   2.765
11294TIP3    H233840   1.686   6.758   2.864
11295TIP3   OH233841   8.013   2.112   4.688
11295TIP3    H133842   7.972   2.132   4.773
11295TIP3    H233843   7.939   2.099   4.628
11296TIP3   OH233844   1.013   2.884   0.642
11296TIP3    H133845   1.064   2.965   0.631
11296TIP3    H233846   1.020   2.841   0.557
11297TIP3   OH233847   6.564   6.183   1.943
11297TIP3    H133848   6.579   6.116   2.010
11297TIP3    H233849   6.511   6.249   1.988
11298TIP3   OH233850   7.138   3.774   5.734
11298TIP3    H133851   7.116   3.827   5.657
11298TIP3    H233852   7.161   3.837   5.802
11299TIP3   OH233853   8.281   6.277   5.503
11299TIP3    H133854   8.299   6.370   5.514
11299TIP3    H233855   8.329   6.253   5.424
11300TIP3   OH233856   0.567   7.471   4.122
11300TIP3    H133857   0.619   7.439   4.195
11300TIP3    H233858   0.516   7.395   4.093
11301TIP3   OH233859   6.989   3.114   3.908
11301TIP3    H133860   6.926   3.186   3.920
11301TIP3    H233861   6.936   3.040   3.879
11302TIP3   OH233862   0.838   7.262   5.118
11302TIP3    H133863   0.862   7.334   5.176
11302TIP3    H233864   0.750   7.284   5.087
11303TIP3   OH233865   1.341   7.034   4.706
11303TIP3    H133866   1.358   6.970   4.776
11303TIP3    H233867   1.246   7.041   4.703
11304TIP3   OH233868   5.191   6.345   5.321
11304TIP3    H133869   5.247   6.412   5.360
11304TIP3    H233870   5.161   6.292   5.395
11305TIP3   OH233871   0.058   0.046   4.555
11305TIP3    H133872   0.056  -0.046   4.528
11305TIP3    H233873  -0.015   0.086   4.508
11306TIP3   OH233874   1.832   5.648   1.930
11306TIP3    H133875   1.804   5.596   1.855
11306TIP3    H233876   1.815   5.738   1.904
11307TIP3   OH233877   6.676   6.505   2.363
11307TIP3    H133878   6.648   6.439   2.427
11307TIP3    H233879   6.601   6.516   2.305
11308TIP3   OH233880   1.807   6.701   4.114
11308TIP3    H133881   1.895   6.681   4.145
11308TIP3    H233882   1.820   6.755   4.036
11309TIP3   OH233883   2.767   6.045   3.268
11309TIP3    H133884   2.846   6.017   3.314
11309TIP3    H233885   2.798   6.072   3.182
11310TIP3   OH233886   0.963   5.491   2.296
11310TIP3    H133887   1.026   5.551   2.257
11310TIP3    H233888   0.908   5.463   2.222
11311TIP3   OH233889   6.230   3.755   2.224
11311TIP3    H133890   6.294   3.684   2.216
11311TIP3    H233891   6.218   3.786   2.134
11312TIP3   OH233892   6.671   2.826   0.680
11312TIP3    H133893   6.611   2.900   0.680
11312TIP3    H233894   6.739   2.850   0.616
11313TIP3   OH233895   0.055   6.741   4.062
11313TIP3    H133896   0.037   6.768   4.152
11313TIP3    H233897   0.137   6.692   4.067
11314TIP3   OH233898   2.535   4.068   1.466
11314TIP3    H133899   2.450   4.107   1.488
11314TIP3    H233900   2.515   3.996   1.406
11315TIP3   OH233901   2.997   7.216   3.004
11315TIP3    H133902   3.079   7.173   2.979
11315TIP3    H233903   2.929   7.164   2.963
11316TIP3   OH233904   0.658   0.669   2.792
11316TIP3    H133905   0.633   0.639   2.880
11316TIP3    H233906   0.660   0.765   2.800
11317TIP3   OH233907   4.956   4.503   0.887
11317TIP3    H133908   5.048   4.483   0.872
11317TIP3    H233909   4.932   4.561   0.815
11318TIP3   OH233910   7.069   4.384   4.741
11318TIP3    H133911   7.135   4.401   4.809
11318TIP3    H233912   7.077   4.457   4.681
11319TIP3   OH233913   3.247   3.442   4.900
11319TIP3    H133914   3.311   3.406   4.838
11319TIP3    H233915   3.224   3.528   4.864
11320TIP3   OH233916   0.476   2.716   0.549
11320TIP3    H133917   0.451   2.721   0.457
11320TIP3    H233918   0.545   2.782   0.559
11321TIP3   OH233919   5.772   0.843   3.994
11321TIP3    H133920   5.701   0.851   3.930
11321TIP3    H233921   5.851   0.863   3.944
11322TIP3   OH233922   3.323   1.722   0.417
11322TIP3    H133923   3.336   1.687   0.505
11322TIP3    H233924   3.400   1.693   0.368
11323TIP3   OH233925   1.820   0.152   2.143
11323TIP3    H133926   1.784   0.065   2.128
11323TIP3    H233927   1.907   0.137   2.181
11324TIP3   OH233928   3.618   4.088   1.738
11324TIP3    H133929   3.613   4.037   1.819
11324TIP3    H233930   3.615   4.023   1.668
11325TIP3   OH233931   5.905   7.111   3.323
11325TIP3    H133932   5.918   7.050   3.251
11325TIP3    H233933   5.871   7.190   3.281
11326TIP3   OH233934   4.821   3.522   6.097
11326TIP3    H133935   4.755   3.459   6.125
11326TIP3    H233936   4.814   3.594   6.160
11327TIP3   OH233937   0.343   0.332   4.805
11327TIP3    H133938   0.304   0.318   4.719
11327TIP3    H233939   0.354   0.244   4.841
11328TIP3   OH233940   2.894   0.761   4.948
11328TIP3    H133941   2.813   0.804   4.976
11328TIP3    H233942   2.950   0.763   5.025
11329TIP3   OH233943   5.058   5.449   4.487
11329TIP3    H133944   5.114   5.526   4.489
11329TIP3    H233945   5.054   5.419   4.578
11330TIP3   OH233946   1.949   2.366   5.473
11330TIP3    H133947   1.945   2.446   5.421
11330TIP3    H233948   2.011   2.310   5.426
11331TIP3   OH233949   6.586   2.272   3.867
11331TIP3    H133950   6.666   2.231   3.835
11331TIP3    H233951   6.515   2.222   3.827
11332TIP3   OH233952   4.605   6.861   0.688
11332TIP3    H133953   4.510   6.848   0.692
11332TIP3    H233954   4.642   6.783   0.729
11333TIP3   OH233955   5.786   4.417   0.995
11333TIP3    H133956   5.720   4.358   1.030
11333TIP3    H233957   5.784   4.402   0.900
11334TIP3   OH233958   1.644   1.280   3.372
11334TIP3    H133959   1.625   1.231   3.292
11334TIP3    H233960   1.564   1.272   3.424
11335TIP3   OH233961   7.216   7.716   0.355
11335TIP3    H133962   7.302   7.678   0.338
11335TIP3    H233963   7.167   7.701   0.274
11336TIP3   OH233964   7.238   0.840   0.646
11336TIP3    H133965   7.156   0.879   0.677
11336TIP3    H233966   7.231   0.747   0.670
11337TIP3   OH233967   0.084   7.474   3.251
11337TIP3    H133968   0.151   7.539   3.227
11337TIP3    H233969   0.097   7.403   3.189
11338TIP3   OH233970   6.622   1.970  -0.012
11338TIP3    H133971   6.528   1.986  -0.027
11338TIP3    H233972   6.630   1.966   0.083
11339TIP3   OH233973   7.935   3.382   3.072
11339TIP3    H133974   7.960   3.292   3.091
11339TIP3    H233975   8.018   3.431   3.075
11340TIP3   OH233976   5.121   2.809   6.454
11340TIP3    H133977   5.209   2.820   6.416
11340TIP3    H233978   5.098   2.895   6.487
11341TIP3   OH233979   6.125   0.597   4.376
11341TIP3    H133980   6.141   0.512   4.337
11341TIP3    H233981   6.151   0.587   4.468
11342TIP3   OH233982   6.258   0.453   3.921
11342TIP3    H133983   6.292   0.430   3.835
11342TIP3    H233984   6.336   0.462   3.976
11343TIP3   OH233985   5.766   6.394   1.400
11343TIP3    H133986   5.789   6.487   1.400
11343TIP3    H233987   5.719   6.380   1.483
11344TIP3   OH233988   1.181   3.676   1.686
11344TIP3    H133989   1.091   3.670   1.655
11344TIP3    H233990   1.183   3.619   1.763
11345TIP3   OH233991   7.798   0.422   5.950
11345TIP3    H133992   7.808   0.339   5.998
11345TIP3    H233993   7.856   0.483   5.997
11346TIP3   OH233994   3.647   3.847   6.274
11346TIP3    H133995   3.715   3.843   6.208
11346TIP3    H233996   3.588   3.917   6.244
11347TIP3   OH233997   6.462   7.672   6.506
11347TIP3    H133998   6.378   7.715   6.489
11347TIP3    H233999   6.448   7.621   6.585
11348TIP3   OH234000   5.477   4.353   0.227
11348TIP3    H134001   5.457   4.366   0.320
11348TIP3    H234002   5.564   4.314   0.226
11349TIP3   OH234003   8.259   7.729   0.195
11349TIP3    H134004   8.305   7.773   0.266
11349TIP3    H234005   8.308   7.752   0.116
11350TIP3   OH234006   6.152   4.262   0.765
11350TIP3    H134007   6.064   4.298   0.752
11350TIP3    H234008   6.171   4.217   0.682
11351TIP3   OH234009   6.922   4.567   6.158
11351TIP3    H134010   6.998   4.624   6.163
11351TIP3    H234011   6.945   4.491   6.212
11352TIP3   OH234012   2.992   5.661   1.052
11352TIP3    H134013   3.083   5.637   1.072
11352TIP3    H234014   2.992   5.673   0.957
11353TIP3   OH234015   0.370   0.762   4.819
11353TIP3    H134016   0.435   0.805   4.874
11353TIP3    H234017   0.421   0.708   4.759
11354TIP3   OH234018   4.535   2.404   5.733
11354TIP3    H134019   4.467   2.421   5.669
11354TIP3    H234020   4.517   2.466   5.804
11355TIP3   OH234021   4.649   1.556   0.664
11355TIP3    H134022   4.614   1.556   0.575
11355TIP3    H234023   4.744   1.558   0.653
11356TIP3   OH234024   0.825   0.433   4.447
11356TIP3    H134025   0.915   0.463   4.463
11356TIP3    H234026   0.772   0.513   4.455
11357TIP3   OH234027   2.879   7.231   1.675
11357TIP3    H134028   2.812   7.285   1.632
11357TIP3    H234029   2.835   7.148   1.694
11358TIP3   OH234030   4.628   5.502   2.166
11358TIP3    H134031   4.576   5.481   2.244
11358TIP3    H234032   4.711   5.456   2.180
11359TIP3   OH234033   4.964   4.159   1.077
11359TIP3    H134034   5.035   4.182   1.135
11359TIP3    H234035   4.906   4.235   1.077
11360TIP3   OH234036   3.675   5.703   2.852
11360TIP3    H134037   3.756   5.707   2.802
11360TIP3    H234038   3.612   5.661   2.794
11361TIP3   OH234039   0.834   5.310   4.348
11361TIP3    H134040   0.856   5.255   4.273
11361TIP3    H234041   0.781   5.381   4.312
11362TIP3   OH234042   6.710  -0.021   2.008
11362TIP3    H134043   6.763  -0.033   2.086
11362TIP3    H234044   6.698   0.073   2.001
11363TIP3   OH234045   4.222   1.307   3.186
11363TIP3    H134046   4.128   1.287   3.192
11363TIP3    H234047   4.259   1.277   3.268
11364TIP3   OH234048   8.210   4.019   5.198
11364TIP3    H134049   8.122   4.045   5.170
11364TIP3    H234050   8.228   3.938   5.150
11365TIP3   OH234051   1.314   7.252   5.521
11365TIP3    H134052   1.389   7.307   5.543
11365TIP3    H234053   1.309   7.256   5.425
11366TIP3   OH234054   0.177   4.552   4.157
11366TIP3    H134055   0.138   4.514   4.078
11366TIP3    H234056   0.266   4.518   4.159
11367TIP3   OH234057   6.319   7.764   4.851
11367TIP3    H134058   6.341   7.800   4.937
11367TIP3    H234059   6.387   7.698   4.835
11368TIP3   OH234060   7.690   6.520   6.238
11368TIP3    H134061   7.751   6.594   6.246
11368TIP3    H234062   7.621   6.552   6.180
11369TIP3   OH234063   4.535   7.780   0.776
11369TIP3    H134064   4.556   7.817   0.690
11369TIP3    H234065   4.522   7.687   0.759
11370TIP3   OH234066   0.452   3.401   0.810
11370TIP3    H134067   0.368   3.441   0.787
11370TIP3    H234068   0.442   3.373   0.901
11371TIP3   OH234069   5.152   0.235   5.817
11371TIP3    H134070   5.136   0.212   5.726
11371TIP3    H234071   5.115   0.162   5.867
11372TIP3   OH234072   1.331   6.242   4.922
11372TIP3    H134073   1.377   6.326   4.923
11372TIP3    H234074   1.399   6.177   4.938
11373TIP3   OH234075   7.334   2.725   6.525
11373TIP3    H134076   7.358   2.669   6.451
11373TIP3    H234077   7.412   2.727   6.580
11374TIP3   OH234078   0.638   1.843   6.703
11374TIP3    H134079   0.659   1.808   6.617
11374TIP3    H234080   0.542   1.847   6.705
11375TIP3   OH234081   7.875   0.176   3.013
11375TIP3    H134082   7.906   0.138   2.931
11375TIP3    H234083   7.825   0.105   3.055
11376TIP3   OH234084   1.878   2.808   0.779
11376TIP3    H134085   1.927   2.873   0.729
11376TIP3    H234086   1.922   2.803   0.863
11377TIP3   OH234087   7.767   1.577   2.725
11377TIP3    H134088   7.856   1.608   2.711
11377TIP3    H234089   7.764   1.552   2.817
11378TIP3   OH234090   6.541   6.142   3.047
11378TIP3    H134091   6.525   6.162   3.139
11378TIP3    H234092   6.515   6.051   3.037
11379TIP3   OH234093   2.143   6.584   2.257
11379TIP3    H134094   2.055   6.566   2.289
11379TIP3    H234095   2.194   6.508   2.284
11380TIP3   OH234096   6.303   1.316   1.380
11380TIP3    H134097   6.281   1.348   1.293
11380TIP3    H234098   6.218   1.300   1.422
11381TIP3   OH234099   7.861   7.480   0.500
11381TIP3    H134100   7.870   7.477   0.596
11381TIP3    H234101   7.767   7.484   0.485
11382TIP3   OH234102   5.359   2.166   2.759
11382TIP3    H134103   5.425   2.112   2.716
11382TIP3    H234104   5.394   2.183   2.846
11383TIP3   OH234105   5.951   5.915   5.750
11383TIP3    H134106   5.964   5.989   5.691
11383TIP3    H234107   5.873   5.871   5.716
11384TIP3   OH234108   6.972   4.361   2.309
11384TIP3    H134109   7.055   4.399   2.339
11384TIP3    H234110   6.923   4.435   2.274
11385TIP3   OH234111   2.281   2.227   3.416
11385TIP3    H134112   2.352   2.232   3.352
11385TIP3    H234113   2.319   2.261   3.497
11386TIP3   OH234114   2.297   6.315   0.105
11386TIP3    H134115   2.284   6.372   0.180
11386TIP3    H234116   2.380   6.271   0.122
11387TIP3   OH234117   6.760   1.857   6.016
11387TIP3    H134118   6.761   1.817   6.103
11387TIP3    H234119   6.697   1.805   5.966
11388TIP3   OH234120   4.736   0.723   0.909
11388TIP3    H134121   4.734   0.755   0.819
11388TIP3    H234122   4.771   0.796   0.960
11389TIP3   OH234123   1.846   3.930   3.844
11389TIP3    H134124   1.853   4.004   3.784
11389TIP3    H234125   1.757   3.935   3.879
11390TIP3   OH234126   5.697   3.066   6.598
11390TIP3    H134127   5.654   3.134   6.545
11390TIP3    H234128   5.628   3.001   6.614
11391TIP3   OH234129   3.202   6.892   4.034
11391TIP3    H134130   3.233   6.847   3.956
11391TIP3    H234131   3.112   6.918   4.013
11392TIP3   OH234132   2.429   2.434   3.048
11392TIP3    H134133   2.388   2.465   2.967
11392TIP3    H234134   2.521   2.458   3.039
11393TIP3   OH234135   3.220   0.220   2.101
11393TIP3    H134136   3.303   0.176   2.084
11393TIP3    H234137   3.154   0.152   2.088
11394TIP3   OH234138   7.982   2.913   2.874
11394TIP3    H134139   8.001   2.864   2.795
11394TIP3    H234140   7.905   2.966   2.852
11395TIP3   OH234141   4.985   6.423   3.474
11395TIP3    H134142   5.019   6.338   3.446
11395TIP3    H234143   5.053   6.458   3.532
11396TIP3   OH234144   3.857   5.889   3.502
11396TIP3    H134145   3.764   5.884   3.523
11396TIP3    H234146   3.902   5.856   3.580
11397TIP3   OH234147   4.531   6.429   5.827
11397TIP3    H134148   4.567   6.349   5.790
11397TIP3    H234149   4.532   6.492   5.755
11398TIP3   OH234150   5.447   4.602   1.071
11398TIP3    H134151   5.437   4.531   1.135
11398TIP3    H234152   5.460   4.680   1.125
11399TIP3   OH234153   6.328   2.522   5.544
11399TIP3    H134154   6.345   2.561   5.629
11399TIP3    H234155   6.298   2.433   5.563
11400TIP3   OH234156   6.847   4.731   4.087
11400TIP3    H134157   6.848   4.697   4.177
11400TIP3    H234158   6.816   4.821   4.096
11401TIP3   OH234159   7.323   5.825   0.186
11401TIP3    H134160   7.259   5.804   0.254
11401TIP3    H234161   7.274   5.818   0.104
11402TIP3   OH234162   5.631   1.675   6.379
11402TIP3    H134163   5.628   1.655   6.285
11402TIP3    H234164   5.554   1.632   6.416
11403TIP3   OH234165   1.578   2.650   5.066
11403TIP3    H134166   1.637   2.724   5.061
11403TIP3    H234167   1.563   2.624   4.975
11404TIP3   OH234168   1.947   1.761   3.325
11404TIP3    H134169   1.975   1.835   3.270
11404TIP3    H234170   1.942   1.799   3.413
11405TIP3   OH234171   0.358   2.428   1.805
11405TIP3    H134172   0.273   2.448   1.845
11405TIP3    H234173   0.397   2.514   1.788
11406TIP3   OH234174   8.108   2.926   0.021
11406TIP3    H134175   8.088   2.995   0.084
11406TIP3    H234176   8.108   2.846   0.073
11407TIP3   OH234177   3.096   0.456   2.886
11407TIP3    H134178   3.107   0.478   2.978
11407TIP3    H234179   3.007   0.420   2.880
11408TIP3   OH234180   1.088   2.848   4.839
11408TIP3    H134181   1.133   2.769   4.868
11408TIP3    H234182   1.061   2.892   4.919
11409TIP3   OH234183   5.772   7.019   0.555
11409TIP3    H134184   5.823   7.059   0.485
11409TIP3    H234185   5.762   7.089   0.620
11410TIP3   OH234186   3.533   4.650   6.312
11410TIP3    H134187   3.523   4.745   6.324
11410TIP3    H234188   3.579   4.641   6.228
11411TIP3   OH234189   0.004   5.605   0.856
11411TIP3    H134190   0.081   5.560   0.892
11411TIP3    H234191  -0.031   5.545   0.792
11412TIP3   OH234192   4.257   2.796   4.408
11412TIP3    H134193   4.322   2.747   4.357
11412TIP3    H234194   4.196   2.728   4.439
11413TIP3   OH234195   5.779   7.735   5.796
11413TIP3    H134196   5.867   7.697   5.807
11413TIP3    H234197   5.765   7.735   5.702
11414TIP3   OH234198   0.411   4.079   3.199
11414TIP3    H134199   0.362   4.146   3.245
11414TIP3    H234200   0.468   4.127   3.138
11415TIP3   OH234201   7.604   4.042   2.077
11415TIP3    H134202   7.591   4.090   2.159
11415TIP3    H234203   7.698   4.043   2.062
11416TIP3   OH234204   0.282   5.891   2.437
11416TIP3    H134205   0.215   5.832   2.404
11416TIP3    H234206   0.354   5.883   2.374
11417TIP3   OH234207   0.099   2.517   3.066
11417TIP3    H134208   0.069   2.602   3.099
11417TIP3    H234209   0.160   2.538   2.995
11418TIP3   OH234210   3.930   6.528   0.074
11418TIP3    H134211   4.011   6.509   0.121
11418TIP3    H234212   3.930   6.623   0.062
11419TIP3   OH234213   7.525   1.204   5.510
11419TIP3    H134214   7.500   1.173   5.423
11419TIP3    H234215   7.605   1.156   5.531
11420TIP3   OH234216   5.035   0.336   3.996
11420TIP3    H134217   5.107   0.385   3.955
11420TIP3    H234218   5.074   0.251   4.017
11421TIP3   OH234219   2.244   6.891   6.689
11421TIP3    H134220   2.273   6.982   6.684
11421TIP3    H234221   2.209   6.882   6.778
11422TIP3   OH234222   0.859   1.131   2.859
11422TIP3    H134223   0.885   1.212   2.902
11422TIP3    H234224   0.793   1.157   2.796
11423TIP3   OH234225   8.025   6.403   5.181
11423TIP3    H134226   8.024   6.333   5.247
11423TIP3    H234227   8.063   6.361   5.104
11424TIP3   OH234228   1.023   7.657   3.342
11424TIP3    H134229   1.109   7.640   3.305
11424TIP3    H234230   1.000   7.744   3.310
11425TIP3   OH234231   1.193   0.094   5.584
11425TIP3    H134232   1.239   0.168   5.544
11425TIP3    H234233   1.260   0.051   5.637
11426TIP3   OH234234   3.758   5.969   2.978
11426TIP3    H134235   3.715   5.883   2.971
11426TIP3    H234236   3.771   5.997   2.887
11427TIP3   OH234237   1.093   6.547   3.880
11427TIP3    H134238   1.080   6.641   3.880
11427TIP3    H234239   1.134   6.528   3.965
11428TIP3   OH234240   6.300   6.420   2.144
11428TIP3    H134241   6.350   6.347   2.181
11428TIP3    H234242   6.366   6.472   2.097
11429TIP3   OH234243   3.079   2.310   5.700
11429TIP3    H134244   3.081   2.214   5.707
11429TIP3    H234245   3.163   2.333   5.660
11430TIP3   OH234246   7.181   0.435   1.256
11430TIP3    H134247   7.270   0.468   1.267
11430TIP3    H234248   7.126   0.499   1.300
11431TIP3   OH234249   3.167   2.067   5.830
11431TIP3    H134250   3.149   2.028   5.916
11431TIP3    H234251   3.263   2.074   5.828
11432TIP3   OH234252   1.316   5.374   3.569
11432TIP3    H134253   1.357   5.456   3.541
11432TIP3    H234254   1.311   5.382   3.665
11433TIP3   OH234255   6.530   7.179   6.216
11433TIP3    H134256   6.552   7.264   6.253
11433TIP3    H234257   6.571   7.116   6.275
11434TIP3   OH234258   7.918   1.798   4.841
11434TIP3    H134259   7.975   1.723   4.826
11434TIP3    H234260   7.842   1.783   4.786
11435TIP3   OH234261   0.440   5.894   6.525
11435TIP3    H134262   0.471   5.943   6.602
11435TIP3    H234263   0.508   5.907   6.459
11436TIP3   OH234264   7.601   1.797   5.711
11436TIP3    H134265   7.624   1.708   5.739
11436TIP3    H234266   7.646   1.807   5.627
11437TIP3   OH234267   5.472   3.095   1.503
11437TIP3    H134268   5.448   3.066   1.591
11437TIP3    H234269   5.500   3.015   1.459
11438TIP3   OH234270   7.357   4.309   2.005
11438TIP3    H134271   7.290   4.269   1.949
11438TIP3    H234272   7.408   4.364   1.945
11439TIP3   OH234273   3.545   3.181   6.206
11439TIP3    H134274   3.564   3.168   6.299
11439TIP3    H234275   3.452   3.205   6.204
11440TIP3   OH234276   6.493   4.741   2.913
11440TIP3    H134277   6.430   4.719   2.982
11440TIP3    H234278   6.440   4.748   2.833
11441TIP3   OH234279   3.370   1.229   4.138
11441TIP3    H134280   3.464   1.217   4.135
11441TIP3    H234281   3.334   1.140   4.133
11442TIP3   OH234282   7.777   4.967   6.197
11442TIP3    H134283   7.763   4.881   6.158
11442TIP3    H234284   7.764   5.029   6.125
11443TIP3   OH234285   7.711   2.874   4.346
11443TIP3    H134286   7.684   2.808   4.410
11443TIP3    H234287   7.700   2.957   4.392
11444TIP3   OH234288   0.839   3.299   6.344
11444TIP3    H134289   0.800   3.231   6.289
11444TIP3    H234290   0.793   3.379   6.320
11445TIP3   OH234291   6.342   6.906   5.429
11445TIP3    H134292   6.334   6.994   5.393
11445TIP3    H234293   6.271   6.857   5.386
11446TIP3   OH234294   2.562   7.237   5.928
11446TIP3    H134295   2.595   7.320   5.895
11446TIP3    H234296   2.616   7.170   5.886
11447TIP3   OH234297   4.133   3.024   2.659
11447TIP3    H134298   4.178   2.945   2.629
11447TIP3    H234299   4.181   3.096   2.617
11448TIP3   OH234300   5.820   0.772   4.248
11448TIP3    H134301   5.817   0.801   4.157
11448TIP3    H234302   5.883   0.831   4.290
11449TIP3   OH234303   6.508   3.076   1.199
11449TIP3    H134304   6.524   3.095   1.107
11449TIP3    H234305   6.412   3.074   1.206
11450TIP3   OH234306   1.850   0.847   2.958
11450TIP3    H134307   1.842   0.867   2.865
11450TIP3    H234308   1.760   0.848   2.990
11451TIP3   OH234309   7.823   4.319   4.364
11451TIP3    H134310   7.831   4.256   4.436
11451TIP3    H234311   7.912   4.329   4.331
11452TIP3   OH234312   1.166   4.578   1.573
11452TIP3    H134313   1.121   4.519   1.633
11452TIP3    H234314   1.160   4.664   1.615
11453TIP3   OH234315   7.672   6.151   0.452
11453TIP3    H134316   7.638   6.062   0.455
11453TIP3    H234317   7.680   6.177   0.544
11454TIP3   OH234318   7.536   7.230   4.921
11454TIP3    H134319   7.504   7.310   4.962
11454TIP3    H234320   7.488   7.225   4.838
11455TIP3   OH234321   7.132   5.306   4.149
11455TIP3    H134322   7.186   5.385   4.159
11455TIP3    H234323   7.082   5.301   4.231
11456TIP3   OH234324   0.482   5.828   2.265
11456TIP3    H134325   0.576   5.841   2.279
11456TIP3    H234326   0.476   5.785   2.180
11457TIP3   OH234327   6.410   6.551   3.628
11457TIP3    H134328   6.431   6.459   3.646
11457TIP3    H234329   6.478   6.580   3.568
11458TIP3   OH234330   1.483   6.341   3.395
11458TIP3    H134331   1.519   6.429   3.409
11458TIP3    H234332   1.492   6.326   3.301
11459TIP3   OH234333   2.821   5.691   2.041
11459TIP3    H134334   2.841   5.697   2.134
11459TIP3    H234335   2.737   5.738   2.032
11460TIP3   OH234336   8.037   7.644   3.215
11460TIP3    H134337   8.017   7.562   3.170
11460TIP3    H234338   7.977   7.709   3.176
11461TIP3   OH234339   7.416   0.914   6.088
11461TIP3    H134340   7.486   0.851   6.073
11461TIP3    H234341   7.377   0.889   6.171
11462TIP3   OH234342   4.452   3.469   5.329
11462TIP3    H134343   4.457   3.395   5.390
11462TIP3    H234344   4.426   3.543   5.383
11463TIP3   OH234345   7.460   0.245   2.144
11463TIP3    H134346   7.432   0.335   2.162
11463TIP3    H234347   7.388   0.208   2.092
11464TIP3   OH234348   4.683   4.650   2.350
11464TIP3    H134349   4.661   4.560   2.374
11464TIP3    H234350   4.683   4.650   2.254
11465TIP3   OH234351   7.140   0.265   4.956
11465TIP3    H134352   7.225   0.280   4.914
11465TIP3    H234353   7.131   0.170   4.959
11466TIP3   OH234354   5.389   5.659   4.906
11466TIP3    H134355   5.321   5.611   4.954
11466TIP3    H234356   5.459   5.672   4.969
11467TIP3   OH234357   1.132   5.813   4.245
11467TIP3    H134358   1.090   5.849   4.167
11467TIP3    H234359   1.120   5.718   4.238
11468TIP3   OH234360   1.421   3.384   4.083
11468TIP3    H134361   1.510   3.382   4.117
11468TIP3    H234362   1.366   3.370   4.160
11469TIP3   OH234363   0.330   1.172   3.485
11469TIP3    H134364   0.337   1.129   3.570
11469TIP3    H234365   0.243   1.211   3.484
11470TIP3   OH234366   7.322   7.695   0.793
11470TIP3    H134367   7.323   7.671   0.886
11470TIP3    H234368   7.340   7.613   0.747
11471TIP3   OH234369   6.518   5.444   0.625
11471TIP3    H134370   6.461   5.368   0.617
11471TIP3    H234371   6.582   5.434   0.554
11472TIP3   OH234372   4.185   0.546   1.083
11472TIP3    H134373   4.127   0.535   1.008
11472TIP3    H234374   4.192   0.641   1.094
11473TIP3   OH234375   1.419   5.423   0.530
11473TIP3    H134376   1.425   5.470   0.613
11473TIP3    H234377   1.415   5.331   0.554
11474TIP3   OH234378   1.113   4.913   2.558
11474TIP3    H134379   1.169   4.848   2.515
11474TIP3    H234380   1.027   4.900   2.519
11475TIP3   OH234381   0.566   3.163   4.111
11475TIP3    H134382   0.646   3.134   4.156
11475TIP3    H234383   0.495   3.136   4.169
11476TIP3   OH234384   0.233   1.141   6.683
11476TIP3    H134385   0.173   1.068   6.700
11476TIP3    H234386   0.306   1.126   6.743
11477TIP3   OH234387   5.620   4.535   2.204
11477TIP3    H134388   5.680   4.508   2.135
11477TIP3    H234389   5.673   4.588   2.263
11478TIP3   OH234390   3.806   0.466   5.206
11478TIP3    H134391   3.822   0.372   5.199
11478TIP3    H234392   3.864   0.505   5.141
11479TIP3   OH234393   2.826   3.246   1.968
11479TIP3    H134394   2.797   3.266   2.057
11479TIP3    H234395   2.867   3.326   1.937
11480TIP3   OH234396   5.123   4.761   5.747
11480TIP3    H134397   5.029   4.776   5.735
11480TIP3    H234398   5.145   4.808   5.827
11481TIP3   OH234399   5.139   7.345   3.820
11481TIP3    H134400   5.058   7.334   3.771
11481TIP3    H234401   5.122   7.305   3.906
11482TIP3   OH234402   0.848   2.836   4.219
11482TIP3    H134403   0.938   2.860   4.199
11482TIP3    H234404   0.816   2.793   4.140
11483TIP3   OH234405   6.808   0.951   6.354
11483TIP3    H134406   6.735   0.978   6.410
11483TIP3    H234407   6.863   1.028   6.347
11484TIP3   OH234408   5.806   4.984   2.895
11484TIP3    H134409   5.803   4.891   2.916
11484TIP3    H234410   5.893   5.012   2.925
11485TIP3   OH234411   2.682   5.763   3.040
11485TIP3    H134412   2.637   5.797   3.117
11485TIP3    H234413   2.620   5.700   3.002
11486TIP3   OH234414   2.086   3.384   4.498
11486TIP3    H134415   2.115   3.475   4.507
11486TIP3    H234416   2.027   3.369   4.571
11487TIP3   OH234417   7.650   3.818   6.526
11487TIP3    H134418   7.574   3.774   6.488
11487TIP3    H234419   7.669   3.889   6.465
11488TIP3   OH234420   5.904   2.651   4.123
11488TIP3    H134421   5.843   2.719   4.094
11488TIP3    H234422   5.898   2.583   4.056
11489TIP3   OH234423   4.320   7.065   2.500
11489TIP3    H134424   4.272   7.138   2.461
11489TIP3    H234425   4.361   7.020   2.426
11490TIP3   OH234426   3.945   4.031   6.117
11490TIP3    H134427   3.874   3.973   6.092
11490TIP3    H234428   4.014   3.973   6.149
11491TIP3   OH234429   0.722   4.185   6.247
11491TIP3    H134430   0.705   4.265   6.296
11491TIP3    H234431   0.806   4.154   6.281
11492TIP3   OH234432   3.530   5.285   4.376
11492TIP3    H134433   3.474   5.310   4.450
11492TIP3    H234434   3.617   5.316   4.402
11493TIP3   OH234435   5.177   2.145   1.869
11493TIP3    H134436   5.084   2.164   1.882
11493TIP3    H234437   5.195   2.176   1.780
11494TIP3   OH234438   1.360   5.087   0.246
11494TIP3    H134439   1.366   5.101   0.341
11494TIP3    H234440   1.382   5.173   0.208
11495TIP3   OH234441   1.448   6.380   0.834
11495TIP3    H134442   1.514   6.404   0.770
11495TIP3    H234443   1.380   6.447   0.824
11496TIP3   OH234444   7.095   4.204   5.944
11496TIP3    H134445   7.099   4.144   6.018
11496TIP3    H234446   7.181   4.245   5.941
11497TIP3   OH234447   0.472   0.077   1.301
11497TIP3    H134448   0.490   0.123   1.219
11497TIP3    H234449   0.401   0.016   1.279
11498TIP3   OH234450   8.092   3.193   2.755
11498TIP3    H134451   8.049   3.274   2.782
11498TIP3    H234452   8.148   3.219   2.681
11499TIP3   OH234453   6.706   2.333   1.462
11499TIP3    H134454   6.783   2.384   1.488
11499TIP3    H234455   6.724   2.245   1.494
11500TIP3   OH234456   3.426   1.470   0.041
11500TIP3    H134457   3.417   1.562   0.018
11500TIP3    H234458   3.516   1.448   0.019
11501TIP3   OH234459   2.599   1.375   4.080
11501TIP3    H134460   2.651   1.306   4.038
11501TIP3    H234461   2.541   1.406   4.010
11502TIP3   OH234462   3.539   5.783   3.121
11502TIP3    H134463   3.475   5.770   3.051
11502TIP3    H234464   3.492   5.836   3.186
11503TIP3   OH234465   5.405   6.317   5.664
11503TIP3    H134466   5.493   6.354   5.671
11503TIP3    H234467   5.373   6.349   5.579
11504TIP3   OH234468   3.220   5.193   0.233
11504TIP3    H134469   3.263   5.241   0.163
11504TIP3    H234470   3.204   5.106   0.196
11505TIP3   OH234471   0.137   5.819   2.966
11505TIP3    H134472   0.172   5.894   2.917
11505TIP3    H234473   0.095   5.765   2.899
11506TIP3   OH234474   3.155   3.473   4.186
11506TIP3    H134475   3.216   3.400   4.172
11506TIP3    H234476   3.206   3.551   4.164
11507TIP3   OH234477   1.536   1.429   1.062
11507TIP3    H134478   1.628   1.451   1.048
11507TIP3    H234479   1.508   1.389   0.979
11508TIP3   OH234480   3.256   2.440   5.325
11508TIP3    H134481   3.250   2.521   5.376
11508TIP3    H234482   3.347   2.436   5.297
11509TIP3   OH234483   0.780   2.590   6.582
11509TIP3    H134484   0.853   2.647   6.606
11509TIP3    H234485   0.756   2.617   6.493
11510TIP3   OH234486   3.457   3.034   0.918
11510TIP3    H134487   3.431   3.030   1.010
11510TIP3    H234488   3.538   3.086   0.918
11511TIP3   OH234489   3.821   1.406   0.259
11511TIP3    H134490   3.905   1.380   0.296
11511TIP3    H234491   3.844   1.451   0.177
11512TIP3   OH234492   6.539   5.761   0.348
11512TIP3    H134493   6.513   5.852   0.366
11512TIP3    H234494   6.457   5.713   0.346
11513TIP3   OH234495   6.638   1.523   6.606
11513TIP3    H134496   6.622   1.617   6.594
11513TIP3    H234497   6.688   1.497   6.529
11514TIP3   OH234498   0.831   4.405   5.924
11514TIP3    H134499   0.810   4.425   6.015
11514TIP3    H234500   0.855   4.489   5.886
11515TIP3   OH234501   3.947   5.299   1.577
11515TIP3    H134502   4.003   5.366   1.616
11515TIP3    H234503   3.870   5.348   1.546
11516TIP3   OH234504   1.138   0.928   0.841
11516TIP3    H134505   1.160   0.895   0.928
11516TIP3    H234506   1.166   0.859   0.781
11517TIP3   OH234507   0.382   4.613   4.555
11517TIP3    H134508   0.461   4.600   4.503
11517TIP3    H234509   0.413   4.612   4.645
11518TIP3   OH234510   3.398   1.190   0.343
11518TIP3    H134511   3.349   1.137   0.407
11518TIP3    H234512   3.488   1.161   0.353
11519TIP3   OH234513   8.145   0.185   5.269
11519TIP3    H134514   8.214   0.207   5.206
11519TIP3    H234515   8.070   0.162   5.215
11520TIP3   OH234516   5.379   5.381   6.336
11520TIP3    H134517   5.334   5.297   6.325
11520TIP3    H234518   5.425   5.396   6.254
11521TIP3   OH234519   2.554   5.842   1.182
11521TIP3    H134520   2.583   5.794   1.259
11521TIP3    H234521   2.586   5.931   1.196
11522TIP3   OH234522   7.789   3.941   6.271
11522TIP3    H134523   7.787   3.975   6.182
11522TIP3    H234524   7.784   4.019   6.326
11523TIP3   OH234525   5.473   6.650   3.392
11523TIP3    H134526   5.456   6.657   3.298
11523TIP3    H234527   5.553   6.598   3.398
11524TIP3   OH234528   1.327   4.361   0.563
11524TIP3    H134529   1.339   4.383   0.471
11524TIP3    H234530   1.365   4.435   0.611
11525TIP3   OH234531   7.033   2.803   4.008
11525TIP3    H134532   6.984   2.884   3.991
11525TIP3    H234533   7.069   2.815   4.095
11526TIP3   OH234534   7.690   5.597   0.187
11526TIP3    H134535   7.783   5.600   0.212
11526TIP3    H234536   7.667   5.688   0.170
11527TIP3   OH234537   5.063   6.477   0.468
11527TIP3    H134538   5.039   6.566   0.443
11527TIP3    H234539   5.153   6.485   0.499
11528TIP3   OH234540   4.645   0.371   4.870
11528TIP3    H134541   4.677   0.281   4.857
11528TIP3    H234542   4.691   0.402   4.948
11529TIP3   OH234543   1.821   1.748   6.566
11529TIP3    H134544   1.739   1.776   6.609
11529TIP3    H234545   1.840   1.819   6.504
11530TIP3   OH234546   3.725   2.553   1.934
11530TIP3    H134547   3.728   2.458   1.929
11530TIP3    H234548   3.636   2.576   1.909
11531TIP3   OH234549   2.763   6.524   2.230
11531TIP3    H134550   2.841   6.570   2.200
11531TIP3    H234551   2.702   6.593   2.255
11532TIP3   OH234552   0.588   1.731   3.905
11532TIP3    H134553   0.670   1.699   3.865
11532TIP3    H234554   0.583   1.685   3.988
11533TIP3   OH234555   3.707   0.390   1.443
11533TIP3    H134556   3.628   0.424   1.400
11533TIP3    H234557   3.735   0.461   1.501
11534TIP3   OH234558   4.277   1.597   5.512
11534TIP3    H134559   4.352   1.597   5.571
11534TIP3    H234560   4.312   1.628   5.429
11535TIP3   OH234561   2.927   0.767   1.651
11535TIP3    H134562   2.835   0.755   1.677
11535TIP3    H234563   2.954   0.681   1.620
11536TIP3   OH234564   0.795   2.818   1.972
11536TIP3    H134565   0.797   2.765   1.892
11536TIP3    H234566   0.718   2.874   1.962
11537TIP3   OH234567   6.791   5.224   4.162
11537TIP3    H134568   6.703   5.187   4.154
11537TIP3    H234569   6.777   5.316   4.184
11538TIP3   OH234570   7.763   0.160   4.331
11538TIP3    H134571   7.826   0.205   4.274
11538TIP3    H234572   7.737   0.226   4.395
11539TIP3   OH234573   5.467   3.327   4.939
11539TIP3    H134574   5.392   3.269   4.952
11539TIP3    H234575   5.429   3.410   4.912
11540TIP3   OH234576   2.508   6.604   1.297
11540TIP3    H134577   2.435   6.630   1.242
11540TIP3    H234578   2.482   6.518   1.332
11541TIP3   OH234579   3.642   1.119   1.825
11541TIP3    H134580   3.688   1.189   1.872
11541TIP3    H234581   3.661   1.040   1.875
11542TIP3   OH234582   2.997   3.556   1.475
11542TIP3    H134583   3.057   3.578   1.404
11542TIP3    H234584   2.958   3.639   1.500
11543TIP3   OH234585   5.307   2.045   4.644
11543TIP3    H134586   5.354   1.986   4.585
11543TIP3    H234587   5.368   2.117   4.658
11544TIP3   OH234588   4.925   6.315   0.938
11544TIP3    H134589   4.941   6.371   1.014
11544TIP3    H234590   4.890   6.375   0.871
11545TIP3   OH234591   2.282   5.375   1.514
11545TIP3    H134592   2.329   5.309   1.464
11545TIP3    H234593   2.322   5.458   1.487
11546TIP3   OH234594   4.293   7.748   0.247
11546TIP3    H134595   4.260   7.837   0.244
11546TIP3    H234596   4.240   7.705   0.314
11547TIP3   OH234597   0.064   6.820   2.357
11547TIP3    H134598   0.151   6.794   2.329
11547TIP3    H234599   0.055   6.911   2.327
11548TIP3   OH234600   7.318   3.069   5.808
11548TIP3    H134601   7.320   3.050   5.714
11548TIP3    H234602   7.266   3.149   5.815
11549TIP3   OH234603   7.662   4.953   3.801
11549TIP3    H134604   7.753   4.982   3.806
11549TIP3    H234605   7.665   4.875   3.746
11550TIP3   OH234606   3.690   1.877   2.601
11550TIP3    H134607   3.769   1.831   2.628
11550TIP3    H234608   3.623   1.809   2.596
11551TIP3   OH234609   3.164   4.526   2.097
11551TIP3    H134610   3.154   4.570   2.182
11551TIP3    H234611   3.087   4.470   2.089
11552TIP3   OH234612   4.399   4.609   6.348
11552TIP3    H134613   4.417   4.598   6.442
11552TIP3    H234614   4.481   4.583   6.305
11553TIP3   OH234615   2.700   1.791   3.335
11553TIP3    H134616   2.750   1.714   3.311
11553TIP3    H234617   2.722   1.807   3.426
11554TIP3   OH234618   3.361   4.243   5.562
11554TIP3    H134619   3.396   4.240   5.651
11554TIP3    H234620   3.329   4.154   5.546
11555TIP3   OH234621   1.385   0.606   6.501
11555TIP3    H134622   1.469   0.598   6.455
11555TIP3    H234623   1.397   0.554   6.581
11556TIP3   OH234624   4.733   4.708   0.427
11556TIP3    H134625   4.671   4.717   0.500
11556TIP3    H234626   4.694   4.643   0.370
11557TIP3   OH234627   2.412   0.253   2.972
11557TIP3    H134628   2.321   0.266   2.946
11557TIP3    H234629   2.412   0.170   3.019
11558TIP3   OH234630   0.513   1.566   5.436
11558TIP3    H134631   0.428   1.606   5.455
11558TIP3    H234632   0.494   1.472   5.430
11559TIP3   OH234633   1.269   2.675   4.092
11559TIP3    H134634   1.359   2.653   4.116
11559TIP3    H234635   1.216   2.603   4.127
11560TIP3   OH234636   5.057   2.326   5.890
11560TIP3    H134637   5.086   2.235   5.892
11560TIP3    H234638   5.099   2.363   5.813
11561TIP3   OH234639   4.580   5.331   1.899
11561TIP3    H134640   4.564   5.400   1.963
11561TIP3    H234641   4.629   5.264   1.947
11562TIP3   OH234642   0.946   4.356   0.175
11562TIP3    H134643   0.975   4.315   0.256
11562TIP3    H234644   0.911   4.284   0.122
11563TIP3   OH234645   1.171   3.970   1.388
11563TIP3    H134646   1.257   3.966   1.346
11563TIP3    H234647   1.129   3.887   1.365
11564TIP3   OH234648   7.576   5.150   2.515
11564TIP3    H134649   7.568   5.154   2.420
11564TIP3    H234650   7.516   5.080   2.541
11565TIP3   OH234651   4.672   2.771   4.254
11565TIP3    H134652   4.641   2.857   4.227
11565TIP3    H234653   4.592   2.720   4.268
11566TIP3   OH234654   3.326   6.152   0.878
11566TIP3    H134655   3.343   6.246   0.885
11566TIP3    H234656   3.232   6.145   0.865
11567TIP3   OH234657   6.406   7.441   2.679
11567TIP3    H134658   6.447   7.357   2.698
11567TIP3    H234659   6.445   7.469   2.596
11568TIP3   OH234660   4.604   0.230   1.736
11568TIP3    H134661   4.685   0.265   1.773
11568TIP3    H234662   4.535   0.283   1.776
11569TIP3   OH234663   3.840   1.714   1.876
11569TIP3    H134664   3.864   1.625   1.850
11569TIP3    H234665   3.762   1.734   1.824
11570TIP3   OH234666   4.603   1.814   1.804
11570TIP3    H134667   4.689   1.856   1.813
11570TIP3    H234668   4.621   1.730   1.763
11571TIP3   OH234669   4.896   3.896   3.915
11571TIP3    H134670   4.821   3.925   3.967
11571TIP3    H234671   4.891   3.947   3.834
11572TIP3   OH234672   7.522   0.629   2.579
11572TIP3    H134673   7.439   0.661   2.613
11572TIP3    H234674   7.562   0.583   2.653
11573TIP3   OH234675   7.384   2.853   1.527
11573TIP3    H134676   7.434   2.870   1.607
11573TIP3    H234677   7.428   2.779   1.486
11574TIP3   OH234678   7.862   1.684   4.100
11574TIP3    H134679   7.782   1.642   4.131
11574TIP3    H234680   7.872   1.653   4.010
11575TIP3   OH234681   4.577   3.584   1.566
11575TIP3    H134682   4.605   3.675   1.577
11575TIP3    H234683   4.481   3.589   1.558
11576TIP3   OH234684   1.306   1.127   0.702
11576TIP3    H134685   1.284   1.043   0.743
11576TIP3    H234686   1.241   1.137   0.633
11577TIP3   OH234687   4.002   1.796   6.526
11577TIP3    H134688   4.020   1.742   6.602
11577TIP3    H234689   4.088   1.811   6.486
11578TIP3   OH234690   5.530   5.674   4.091
11578TIP3    H134691   5.464   5.742   4.107
11578TIP3    H234692   5.534   5.626   4.174
11579TIP3   OH234693   5.162   6.332   4.994
11579TIP3    H134694   5.188   6.310   5.084
11579TIP3    H234695   5.076   6.372   5.003
11580TIP3   OH234696   4.274   6.742   5.880
11580TIP3    H134697   4.260   6.651   5.855
11580TIP3    H234698   4.219   6.755   5.957
11581TIP3   OH234699   6.700   7.439   4.854
11581TIP3    H134700   6.626   7.482   4.811
11581TIP3    H234701   6.677   7.346   4.851
11582TIP3   OH234702   8.313   4.621   2.855
11582TIP3    H134703   8.355   4.590   2.936
11582TIP3    H234704   8.231   4.571   2.850
11583TIP3   OH234705   5.826   0.646   4.766
11583TIP3    H134706   5.759   0.714   4.769
11583TIP3    H234707   5.816   0.600   4.849
11584TIP3   OH234708   0.350   3.264   0.448
11584TIP3    H134709   0.361   3.175   0.482
11584TIP3    H234710   0.262   3.290   0.477
11585TIP3   OH234711   3.036   2.277   1.834
11585TIP3    H134712   3.043   2.310   1.744
11585TIP3    H234713   3.118   2.305   1.876
11586TIP3   OH234714   3.930   3.014   3.980
11586TIP3    H134715   3.981   3.023   4.060
11586TIP3    H234716   3.939   3.098   3.936
11587TIP3   OH234717   1.029   4.540   3.809
11587TIP3    H134718   1.111   4.561   3.764
11587TIP3    H234719   1.057   4.501   3.892
11588TIP3   OH234720   5.951   6.508   4.641
11588TIP3    H134721   5.995   6.591   4.626
11588TIP3    H234722   5.880   6.506   4.577
11589TIP3   OH234723   3.479   3.337   1.659
11589TIP3    H134724   3.429   3.360   1.738
11589TIP3    H234725   3.565   3.375   1.674
11590TIP3   OH234726   0.609   5.487   1.486
11590TIP3    H134727   0.621   5.576   1.454
11590TIP3    H234728   0.621   5.432   1.409
11591TIP3   OH234729   5.369   2.544   4.292
11591TIP3    H134730   5.275   2.552   4.310
11591TIP3    H234731   5.378   2.566   4.199
11592TIP3   OH234732   2.776   7.523   3.072
11592TIP3    H134733   2.691   7.506   3.031
11592TIP3    H234734   2.832   7.551   3.000
11593TIP3   OH234735   3.113   5.297   5.330
11593TIP3    H134736   3.135   5.385   5.361
11593TIP3    H234737   3.143   5.238   5.399
11594TIP3   OH234738   7.579   3.129   2.554
11594TIP3    H134739   7.533   3.196   2.603
11594TIP3    H234740   7.515   3.097   2.490
11595TIP3   OH234741   1.751   0.860   5.070
11595TIP3    H134742   1.791   0.859   5.156
11595TIP3    H234743   1.709   0.775   5.062
11596TIP3   OH234744   0.952   3.288   5.023
11596TIP3    H134745   1.016   3.332   4.968
11596TIP3    H234746   0.954   3.197   4.993
11597TIP3   OH234747   8.096   4.690   2.622
11597TIP3    H134748   8.112   4.664   2.713
11597TIP3    H234749   8.116   4.611   2.571
11598TIP3   OH234750   5.787   6.208   2.245
11598TIP3    H134751   5.848   6.182   2.313
11598TIP3    H234752   5.842   6.220   2.167
11599TIP3   OH234753   7.753   2.994   5.608
11599TIP3    H134754   7.836   3.010   5.564
11599TIP3    H234755   7.773   3.003   5.701
11600TIP3   OH234756   1.424   4.504   0.759
11600TIP3    H134757   1.378   4.568   0.813
11600TIP3    H234758   1.425   4.425   0.812
11601TIP3   OH234759   3.345   4.356   1.929
11601TIP3    H134760   3.346   4.448   1.956
11601TIP3    H234761   3.252   4.333   1.929
11602TIP3   OH234762   0.490   6.170   3.319
11602TIP3    H134763   0.569   6.140   3.274
11602TIP3    H234764   0.417   6.138   3.266
11603TIP3   OH234765   7.206   5.655   2.968
11603TIP3    H134766   7.242   5.726   3.022
11603TIP3    H234767   7.272   5.641   2.900
11604TIP3   OH234768   1.474   7.035   0.384
11604TIP3    H134769   1.423   6.974   0.437
11604TIP3    H234770   1.433   7.030   0.297
11605TIP3   OH234771   7.567   3.436   2.204
11605TIP3    H134772   7.643   3.474   2.160
11605TIP3    H234773   7.598   3.419   2.293
11606TIP3   OH234774   7.991   1.719   1.271
11606TIP3    H134775   8.051   1.644   1.263
11606TIP3    H234776   7.931   1.709   1.197
11607TIP3   OH234777   5.835   0.530   1.713
11607TIP3    H134778   5.825   0.538   1.808
11607TIP3    H234779   5.771   0.591   1.677
11608TIP3   OH234780   5.908   3.981   4.981
11608TIP3    H134781   6.001   3.991   5.000
11608TIP3    H234782   5.888   4.050   4.918
11609TIP3   OH234783   0.108   7.704   6.347
11609TIP3    H134784   0.079   7.792   6.321
11609TIP3    H234785   0.028   7.659   6.374
11610TIP3   OH234786   4.234   5.592   5.789
11610TIP3    H134787   4.314   5.645   5.791
11610TIP3    H234788   4.184   5.622   5.865
11611TIP3   OH234789   3.528   6.899   1.778
11611TIP3    H134790   3.532   6.935   1.867
11611TIP3    H234791   3.512   6.805   1.792
11612TIP3   OH234792   6.816   3.043   1.345
11612TIP3    H134793   6.751   2.993   1.295
11612TIP3    H234794   6.898   3.031   1.297
11613TIP3   OH234795   4.062   6.675   1.857
11613TIP3    H134796   4.063   6.663   1.952
11613TIP3    H234797   4.150   6.706   1.836
11614TIP3   OH234798   5.100   3.286   4.011
11614TIP3    H134799   5.012   3.287   3.972
11614TIP3    H234800   5.131   3.376   4.002
11615TIP3   OH234801   0.736   1.725   2.615
11615TIP3    H134802   0.810   1.769   2.658
11615TIP3    H234803   0.723   1.645   2.665
11616TIP3   OH234804   2.168   7.667   2.743
11616TIP3    H134805   2.134   7.729   2.677
11616TIP3    H234806   2.258   7.650   2.715
11617TIP3   OH234807   3.647   5.941   0.538
11617TIP3    H134808   3.641   5.847   0.526
11617TIP3    H234809   3.576   5.962   0.598
11618TIP3   OH234810   5.118   1.238   4.215
11618TIP3    H134811   5.117   1.224   4.120
11618TIP3    H234812   5.026   1.248   4.239
11619TIP3   OH234813   5.438   1.101   6.256
11619TIP3    H134814   5.347   1.113   6.284
11619TIP3    H234815   5.466   1.189   6.230
11620TIP3   OH234816   0.572   3.941   3.932
11620TIP3    H134817   0.592   3.865   3.987
11620TIP3    H234818   0.480   3.930   3.908
11621TIP3   OH234819   0.806   0.626   5.543
11621TIP3    H134820   0.857   0.582   5.475
11621TIP3    H234821   0.754   0.691   5.495
11622TIP3   OH234822   2.793   5.167   2.356
11622TIP3    H134823   2.865   5.194   2.412
11622TIP3    H234824   2.729   5.130   2.417
11623TIP3   OH234825   0.385   6.956   1.963
11623TIP3    H134826   0.370   6.905   1.883
11623TIP3    H234827   0.297   6.974   1.997
11624TIP3   OH234828   2.318   6.402   0.624
11624TIP3    H134829   2.243   6.342   0.625
11624TIP3    H234830   2.371   6.375   0.699
11625TIP3   OH234831   2.973   2.274   6.554
11625TIP3    H134832   2.951   2.186   6.586
11625TIP3    H234833   2.893   2.324   6.567
11626TIP3   OH234834   7.392   4.566   5.197
11626TIP3    H134835   7.471   4.606   5.234
11626TIP3    H234836   7.425   4.487   5.154
11627TIP3   OH234837   3.934   6.715   3.193
11627TIP3    H134838   4.007   6.774   3.175
11627TIP3    H234839   3.868   6.739   3.128
11628TIP3   OH234840   5.315   3.770   1.749
11628TIP3    H134841   5.350   3.735   1.667
11628TIP3    H234842   5.378   3.837   1.775
11629TIP3   OH234843   8.269   5.677   3.385
11629TIP3    H134844   8.201   5.740   3.361
11629TIP3    H234845   8.301   5.644   3.301
11630TIP3   OH234846   6.264   6.458   5.809
11630TIP3    H134847   6.198   6.517   5.772
11630TIP3    H234848   6.220   6.415   5.882
11631TIP3   OH234849   2.220   6.535   6.369
11631TIP3    H134850   2.173   6.611   6.403
11631TIP3    H234851   2.311   6.549   6.395
11632TIP3   OH234852   3.102   4.113   1.126
11632TIP3    H134853   3.037   4.098   1.195
11632TIP3    H234854   3.052   4.111   1.045
11633TIP3   OH234855   4.696   1.225   3.061
11633TIP3    H134856   4.730   1.287   2.996
11633TIP3    H234857   4.774   1.181   3.094
11634TIP3   OH234858   4.890   1.853   3.751
11634TIP3    H134859   4.799   1.821   3.750
11634TIP3    H234860   4.943   1.774   3.766
11635TIP3   OH234861   1.272   0.002   0.378
11635TIP3    H134862   1.252   0.074   0.318
11635TIP3    H234863   1.190  -0.013   0.425
11636TIP3   OH234864   5.265   1.420   4.546
11636TIP3    H134865   5.289   1.330   4.571
11636TIP3    H234866   5.348   1.462   4.524
11637TIP3   OH234867   3.027   5.735   5.155
11637TIP3    H134868   2.941   5.775   5.172
11637TIP3    H234869   3.071   5.798   5.097
11638TIP3   OH234870   5.344   5.487   4.257
11638TIP3    H134871   5.308   5.422   4.319
11638TIP3    H234872   5.431   5.506   4.290
11639TIP3   OH234873   3.483   7.249   2.019
11639TIP3    H134874   3.462   7.341   2.034
11639TIP3    H234875   3.401   7.203   2.036
11640TIP3   OH234876   6.510   0.856   5.329
11640TIP3    H134877   6.460   0.783   5.292
11640TIP3    H234878   6.595   0.819   5.351
11641TIP3   OH234879   1.800   2.809   2.999
11641TIP3    H134880   1.768   2.818   2.909
11641TIP3    H234881   1.815   2.898   3.028
11642TIP3   OH234882   8.135   5.142   5.506
11642TIP3    H134883   8.097   5.106   5.425
11642TIP3    H234884   8.097   5.229   5.514
11643TIP3   OH234885   2.650   2.138   4.998
11643TIP3    H134886   2.599   2.181   5.066
11643TIP3    H234887   2.712   2.205   4.969
11644TIP3   OH234888   5.978   3.640   0.162
11644TIP3    H134889   5.937   3.715   0.206
11644TIP3    H234890   5.944   3.644   0.072
11645TIP3   OH234891   4.787   1.712   5.948
11645TIP3    H134892   4.796   1.636   5.891
11645TIP3    H234893   4.875   1.729   5.981
11646TIP3   OH234894   0.777   6.891   4.547
11646TIP3    H134895   0.802   6.906   4.455
11646TIP3    H234896   0.684   6.867   4.542
11647TIP3   OH234897   1.925   0.338   3.052
11647TIP3    H134898   1.890   0.268   3.107
11647TIP3    H234899   1.894   0.419   3.093
11648TIP3   OH234900   5.138   6.307   4.648
11648TIP3    H134901   5.084   6.239   4.689
11648TIP3    H234902   5.097   6.389   4.675
11649TIP3   OH234903   2.201   0.241   5.434
11649TIP3    H134904   2.209   0.330   5.401
11649TIP3    H234905   2.193   0.251   5.529
11650TIP3   OH234906   0.348   6.202   0.161
11650TIP3    H134907   0.418   6.177   0.101
11650TIP3    H234908   0.374   6.164   0.245
11651TIP3   OH234909   2.353   6.661   6.004
11651TIP3    H134910   2.367   6.722   5.931
11651TIP3    H234911   2.315   6.583   5.963
11652TIP3   OH234912   1.964   1.789   5.755
11652TIP3    H134913   1.895   1.855   5.755
11652TIP3    H234914   2.017   1.810   5.831
11653TIP3   OH234915   2.352   2.490   0.988
11653TIP3    H134916   2.445   2.482   0.966
11653TIP3    H234917   2.323   2.569   0.943
11654TIP3   OH234918   0.959   0.672   2.820
11654TIP3    H134919   0.866   0.661   2.840
11654TIP3    H234920   1.002   0.671   2.905
11655TIP3   OH234921   0.492   3.513   2.462
11655TIP3    H134922   0.576   3.480   2.494
11655TIP3    H234923   0.431   3.499   2.535
11656TIP3   OH234924   0.740   2.047   2.855
11656TIP3    H134925   0.833   2.026   2.860
11656TIP3    H234926   0.736   2.143   2.864
11657TIP3   OH234927   0.547   1.726   4.943
11657TIP3    H134928   0.528   1.672   5.020
11657TIP3    H234929   0.641   1.716   4.930
11658TIP3   OH234930   5.188   7.357   0.827
11658TIP3    H134931   5.132   7.428   0.859
11658TIP3    H234932   5.132   7.308   0.766
11659TIP3   OH234933   2.833   0.827   5.553
11659TIP3    H134934   2.927   0.823   5.567
11659TIP3    H234935   2.804   0.903   5.604
11660TIP3   OH234936   7.337   2.516   2.809
11660TIP3    H134937   7.258   2.487   2.855
11660TIP3    H234938   7.409   2.486   2.865
11661TIP3   OH234939   0.456   2.961   1.451
11661TIP3    H134940   0.369   2.922   1.440
11661TIP3    H234941   0.445   3.028   1.518
11662TIP3   OH234942   4.228   5.951   2.288
11662TIP3    H134943   4.143   5.991   2.271
11662TIP3    H234944   4.291   6.007   2.241
11663TIP3   OH234945   2.060   1.002   4.451
11663TIP3    H134946   1.999   0.962   4.512
11663TIP3    H234947   2.128   0.936   4.438
11664TIP3   OH234948   2.956   2.371   1.184
11664TIP3    H134949   3.025   2.383   1.119
11664TIP3    H234950   2.977   2.435   1.252
11665TIP3   OH234951   2.825   4.896   6.811
11665TIP3    H134952   2.782   4.928   6.732
11665TIP3    H234953   2.860   4.811   6.786
11666TIP3   OH234954   3.910   2.383   6.030
11666TIP3    H134955   3.988   2.328   6.032
11666TIP3    H234956   3.869   2.364   5.945
11667TIP3   OH234957   5.290   3.006   3.792
11667TIP3    H134958   5.264   3.070   3.726
11667TIP3    H234959   5.224   2.937   3.785
11668TIP3   OH234960   1.672   1.064   5.541
11668TIP3    H134961   1.621   0.999   5.588
11668TIP3    H234962   1.623   1.146   5.554
11669TIP3   OH234963   7.883   4.008   3.472
11669TIP3    H134964   7.919   4.054   3.548
11669TIP3    H234965   7.805   4.058   3.449
11670TIP3   OH234966   0.609   7.822   1.546
11670TIP3    H134967   0.581   7.889   1.483
11670TIP3    H234968   0.650   7.754   1.492
11671TIP3   OH234969   3.569   1.637   2.800
11671TIP3    H134970   3.521   1.583   2.862
11671TIP3    H234971   3.656   1.597   2.797
11672TIP3   OH234972   4.165   0.522   6.176
11672TIP3    H134973   4.168   0.484   6.264
11672TIP3    H234974   4.200   0.610   6.186
11673TIP3   OH234975   3.931   3.097   6.568
11673TIP3    H134976   3.906   3.149   6.491
11673TIP3    H234977   3.937   3.162   6.639
11674TIP3   OH234978   7.128   6.709   0.499
11674TIP3    H134979   7.212   6.754   0.503
11674TIP3    H234980   7.110   6.700   0.406
11675TIP3   OH234981   2.402   2.366   2.557
11675TIP3    H134982   2.441   2.282   2.533
11675TIP3    H234983   2.393   2.362   2.653
11676TIP3   OH234984   1.312   3.157   2.112
11676TIP3    H134985   1.315   3.085   2.050
11676TIP3    H234986   1.370   3.130   2.183
11677TIP3   OH234987   8.149   2.472   3.439
11677TIP3    H134988   8.228   2.487   3.387
11677TIP3    H234989   8.164   2.519   3.520
11678TIP3   OH234990   3.059   2.543   5.915
11678TIP3    H134991   3.004   2.465   5.913
11678TIP3    H234992   3.144   2.514   5.881
11679TIP3   OH234993   8.198   1.474   5.394
11679TIP3    H134994   8.112   1.516   5.390
11679TIP3    H234995   8.253   1.536   5.442
11680TIP3   OH234996   4.185   5.656   4.519
11680TIP3    H134997   4.216   5.721   4.457
11680TIP3    H234998   4.252   5.588   4.520
11681TIP3   OH234999   3.035   3.226   0.520
11681TIP3    H135000   3.115   3.210   0.469
11681TIP3    H235001   2.966   3.183   0.470
11682TIP3   OH235002   1.990   2.289   3.680
11682TIP3    H135003   2.031   2.363   3.635
11682TIP3    H235004   1.976   2.320   3.770
11683TIP3   OH235005   7.933   0.466   4.906
11683TIP3    H135006   8.009   0.523   4.916
11683TIP3    H235007   7.967   0.378   4.917
11684TIP3   OH235008   5.635   7.495   5.109
11684TIP3    H135009   5.687   7.461   5.037
11684TIP3    H235010   5.603   7.417   5.155
11685TIP3   OH235011   2.408   5.750   5.342
11685TIP3    H135012   2.378   5.749   5.433
11685TIP3    H235013   2.385   5.663   5.309
11686TIP3   OH235014   7.476   2.221   5.063
11686TIP3    H135015   7.400   2.194   5.011
11686TIP3    H235016   7.442   2.290   5.120
11687TIP3   OH235017   0.024   4.639   0.256
11687TIP3    H135018   0.003   4.674   0.169
11687TIP3    H235019   0.097   4.579   0.241
11688TIP3   OH235020   3.746   6.964   0.239
11688TIP3    H135021   3.678   6.939   0.177
11688TIP3    H235022   3.702   6.964   0.324
11689TIP3   OH235023   4.325   7.422   2.785
11689TIP3    H135024   4.243   7.418   2.736
11689TIP3    H235025   4.355   7.332   2.792
11690TIP3   OH235026   0.788   3.156   1.418
11690TIP3    H135027   0.724   3.220   1.388
11690TIP3    H235028   0.803   3.100   1.342
11691TIP3   OH235029   7.446   0.832   3.360
11691TIP3    H135030   7.417   0.753   3.316
11691TIP3    H235031   7.421   0.820   3.451
11692TIP3   OH235032   0.467   6.268   2.775
11692TIP3    H135033   0.433   6.271   2.686
11692TIP3    H235034   0.520   6.347   2.783
11693TIP3   OH235035   1.830   3.623   6.248
11693TIP3    H135036   1.739   3.650   6.242
11693TIP3    H235037   1.827   3.527   6.246
11694TIP3   OH235038   3.620   5.883   3.860
11694TIP3    H135039   3.639   5.890   3.767
11694TIP3    H235040   3.698   5.917   3.904
11695TIP3   OH235041   4.788   6.475   6.394
11695TIP3    H135042   4.825   6.444   6.476
11695TIP3    H235043   4.694   6.483   6.412
11696TIP3   OH235044   0.673   0.808   1.355
11696TIP3    H135045   0.709   0.749   1.288
11696TIP3    H235046   0.733   0.799   1.429
11697TIP3   OH235047   7.025   5.425   0.506
11697TIP3    H135048   6.998   5.341   0.543
11697TIP3    H235049   7.003   5.489   0.573
11698TIP3   OH235050   5.115   1.935   1.189
11698TIP3    H135051   5.037   1.985   1.212
11698TIP3    H235052   5.083   1.845   1.181
11699TIP3   OH235053   4.497   6.742   0.440
11699TIP3    H135054   4.515   6.786   0.523
11699TIP3    H235055   4.416   6.694   0.455
11700TIP3   OH235056   6.417   7.215   0.954
11700TIP3    H135057   6.486   7.178   1.009
11700TIP3    H235058   6.464   7.257   0.882
11701TIP3   OH235059   3.575   1.385   4.445
11701TIP3    H135060   3.649   1.361   4.389
11701TIP3    H235061   3.560   1.477   4.426
11702TIP3   OH235062   6.430   7.079   3.995
11702TIP3    H135063   6.476   7.134   3.932
11702TIP3    H235064   6.491   7.007   4.012
11703TIP3   OH235065   7.790   1.673   3.013
11703TIP3    H135066   7.839   1.714   3.084
11703TIP3    H235067   7.768   1.744   2.954
11704TIP3   OH235068   4.540   6.104   0.653
11704TIP3    H135069   4.568   6.174   0.594
11704TIP3    H235070   4.445   6.101   0.644
11705TIP3   OH235071   1.024   0.459   0.463
11705TIP3    H135072   1.108   0.501   0.442
11705TIP3    H235073   0.987   0.437   0.378
11706TIP3   OH235074   6.719   6.190   2.376
11706TIP3    H135075   6.804   6.159   2.344
11706TIP3    H235076   6.664   6.111   2.377
11707TIP3   OH235077   1.918   3.236   3.342
11707TIP3    H135078   1.994   3.180   3.333
11707TIP3    H235079   1.954   3.323   3.360
11708TIP3   OH235080   4.596   0.239   5.520
11708TIP3    H135081   4.621   0.184   5.594
11708TIP3    H235082   4.576   0.177   5.450
11709TIP3   OH235083   2.579   4.858   6.277
11709TIP3    H135084   2.486   4.881   6.274
11709TIP3    H235085   2.581   4.763   6.276
11710TIP3   OH235086   3.875   3.635   2.875
11710TIP3    H135087   3.794   3.647   2.924
11710TIP3    H235088   3.945   3.646   2.939
11711TIP3   OH235089   2.406   5.083   6.659
11711TIP3    H135090   2.396   4.991   6.682
11711TIP3    H235091   2.353   5.130   6.723
11712TIP3   OH235092   0.820   3.031   0.262
11712TIP3    H135093   0.761   3.011   0.335
11712TIP3    H235094   0.820   3.127   0.258
11713TIP3   OH235095   4.666   4.033   1.080
11713TIP3    H135096   4.726   4.069   1.015
11713TIP3    H235097   4.650   3.943   1.051
11714TIP3   OH235098   3.430   5.634   6.688
11714TIP3    H135099   3.399   5.551   6.652
11714TIP3    H235100   3.385   5.641   6.773
11715TIP3   OH235101   8.115   4.293   5.360
11715TIP3    H135102   8.168   4.256   5.290
11715TIP3    H235103   8.029   4.306   5.321
11716TIP3   OH235104   1.303   4.507   3.675
11716TIP3    H135105   1.342   4.469   3.596
11716TIP3    H235106   1.322   4.443   3.744
11717TIP3   OH235107   0.845   6.740   1.515
11717TIP3    H135108   0.796   6.714   1.593
11717TIP3    H235109   0.778   6.770   1.453
11718TIP3   OH235110   0.215   2.456   0.055
11718TIP3    H135111   0.140   2.409   0.092
11718TIP3    H235112   0.228   2.530   0.113
11719TIP3   OH235113   6.860   3.428   4.855
11719TIP3    H135114   6.818   3.446   4.771
11719TIP3    H235115   6.858   3.333   4.863
11720TIP3   OH235116   6.081   3.643   0.998
11720TIP3    H135117   6.067   3.626   1.091
11720TIP3    H235118   6.173   3.619   0.983
11721TIP3   OH235119   6.389   4.052   6.327
11721TIP3    H135120   6.405   3.975   6.381
11721TIP3    H235121   6.462   4.111   6.347
11722TIP3   OH235122   6.817   6.140   6.666
11722TIP3    H135123   6.863   6.097   6.738
11722TIP3    H235124   6.793   6.068   6.607
11723TIP3   OH235125   3.395   0.472   5.488
11723TIP3    H135126   3.432   0.536   5.549
11723TIP3    H235127   3.448   0.479   5.409
11724TIP3   OH235128   1.943   4.823   3.472
11724TIP3    H135129   1.877   4.841   3.404
11724TIP3    H235130   2.000   4.900   3.470
11725TIP3   OH235131   5.457   5.162   5.003
11725TIP3    H135132   5.440   5.072   4.974
11725TIP3    H235133   5.531   5.154   5.063
11726TIP3   OH235134   5.227   4.900   3.369
11726TIP3    H135135   5.152   4.959   3.365
11726TIP3    H235136   5.204   4.835   3.434
11727TIP3   OH235137   6.693   2.299   2.309
11727TIP3    H135138   6.651   2.368   2.361
11727TIP3    H235139   6.625   2.232   2.299
11728TIP3   OH235140   4.537   1.878   4.942
11728TIP3    H135141   4.616   1.931   4.953
11728TIP3    H235142   4.468   1.927   4.985
11729TIP3   OH235143   1.147   3.218   0.844
11729TIP3    H135144   1.211   3.147   0.853
11729TIP3    H235145   1.064   3.173   0.827
11730TIP3   OH235146   4.450   1.994   5.737
11730TIP3    H135147   4.500   2.004   5.819
11730TIP3    H235148   4.516   1.992   5.669
11731TIP3   OH235149   4.535   7.255   1.988
11731TIP3    H135150   4.622   7.215   1.986
11731TIP3    H235151   4.553   7.349   1.989
11732TIP3   OH235152   3.492   2.021   0.225
11732TIP3    H135153   3.397   2.032   0.225
11732TIP3    H235154   3.512   1.981   0.310
11733TIP3   OH235155   6.368   2.120   3.781
11733TIP3    H135156   6.367   2.033   3.741
11733TIP3    H235157   6.300   2.117   3.848
11734TIP3   OH235158   2.993   2.142   4.533
11734TIP3    H135159   2.916   2.197   4.548
11734TIP3    H235160   3.005   2.095   4.616
11735TIP3   OH235161   3.227   4.685   5.272
11735TIP3    H135162   3.281   4.613   5.238
11735TIP3    H235163   3.260   4.699   5.361
11736TIP3   OH235164   8.068   2.262   0.796
11736TIP3    H135165   8.137   2.248   0.731
11736TIP3    H235166   8.045   2.174   0.826
11737TIP3   OH235167   7.335   2.949   3.515
11737TIP3    H135168   7.341   3.044   3.526
11737TIP3    H235169   7.396   2.914   3.579
11738TIP3   OH235170   6.106   0.091   2.996
11738TIP3    H135171   6.088   0.065   3.086
11738TIP3    H235172   6.173   0.158   3.002
11739TIP3   OH235173   4.042   4.334   4.427
11739TIP3    H135174   3.983   4.293   4.364
11739TIP3    H235175   4.091   4.398   4.375
11740TIP3   OH235176   3.389   0.905   0.040
11740TIP3    H135177   3.379   0.999   0.058
11740TIP3    H235178   3.353   0.862   0.117
11741TIP3   OH235179   4.295   0.511   5.935
11741TIP3    H135180   4.236   0.496   6.008
11741TIP3    H235181   4.382   0.492   5.970
11742TIP3   OH235182   4.985   3.273   2.479
11742TIP3    H135183   4.906   3.219   2.468
11742TIP3    H235184   5.052   3.211   2.506
11743TIP3   OH235185   5.504   3.795   5.062
11743TIP3    H135186   5.420   3.830   5.032
11743TIP3    H235187   5.559   3.872   5.075
11744TIP3   OH235188   8.158   6.617   0.496
11744TIP3    H135189   8.171   6.540   0.552
11744TIP3    H235190   8.072   6.650   0.521
11745TIP3   OH235191   6.675   2.041   5.508
11745TIP3    H135192   6.618   2.113   5.482
11745TIP3    H235193   6.656   2.028   5.601
11746TIP3   OH235194   3.068   1.336   6.487
11746TIP3    H135195   3.040   1.247   6.467
11746TIP3    H235196   3.037   1.352   6.575
11747TIP3   OH235197   7.135   2.216   3.578
11747TIP3    H135198   7.199   2.158   3.618
11747TIP3    H235199   7.178   2.302   3.575
11748TIP3   OH235200   1.716   7.427   0.783
11748TIP3    H135201   1.693   7.441   0.875
11748TIP3    H235202   1.765   7.344   0.783
11749TIP3   OH235203   1.922   0.764   4.261
11749TIP3    H135204   1.964   0.849   4.273
11749TIP3    H235205   1.984   0.713   4.209
11750TIP3   OH235206   2.537   4.739   6.636
11750TIP3    H135207   2.449   4.769   6.658
11750TIP3    H235208   2.580   4.817   6.600
11751TIP3   OH235209   7.396   2.909   3.032
11751TIP3    H135210   7.471   2.965   3.050
11751TIP3    H235211   7.335   2.925   3.104
11752TIP3   OH235212   1.865   2.293   3.124
11752TIP3    H135213   1.808   2.370   3.128
11752TIP3    H235214   1.942   2.318   3.175
11753TIP3   OH235215   2.884   4.151   1.627
11753TIP3    H135216   2.846   4.239   1.620
11753TIP3    H235217   2.920   4.134   1.540
11754TIP3   OH235218   7.138   7.583   2.442
11754TIP3    H135219   7.218   7.622   2.478
11754TIP3    H235220   7.083   7.659   2.421
11755TIP3   OH235221   7.118   1.385   5.004
11755TIP3    H135222   7.182   1.339   4.950
11755TIP3    H235223   7.111   1.331   5.083
11756TIP3   OH235224   1.168   4.073   2.038
11756TIP3    H135225   1.232   4.115   2.096
11756TIP3    H235226   1.191   3.980   2.039
11757TIP3   OH235227   0.028   4.041   4.131
11757TIP3    H135228   0.111   4.080   4.105
11757TIP3    H235229   0.047   3.996   4.214
11758TIP3   OH235230   7.861   3.382   1.820
11758TIP3    H135231   7.824   3.405   1.905
11758TIP3    H235232   7.953   3.407   1.826
11759TIP3   OH235233   1.063   3.302   0.576
11759TIP3    H135234   1.099   3.306   0.665
11759TIP3    H235235   0.975   3.265   0.587
11760TIP3   OH235236   5.428   6.757   5.073
11760TIP3    H135237   5.497   6.793   5.017
11760TIP3    H235238   5.419   6.666   5.045
11761TIP3   OH235239   3.299   1.644   6.767
11761TIP3    H135240   3.366   1.630   6.701
11761TIP3    H235241   3.337   1.608   6.848
11762TIP3   OH235242   5.437   2.075   1.050
11762TIP3    H135243   5.410   2.146   0.991
11762TIP3    H235244   5.429   1.995   0.997
11763TIP3   OH235245   7.587   5.760   4.113
11763TIP3    H135246   7.587   5.667   4.137
11763TIP3    H235247   7.542   5.763   4.028
11764TIP3   OH235248   7.575   5.235   2.244
11764TIP3    H135249   7.554   5.324   2.216
11764TIP3    H235250   7.566   5.181   2.165
11765TIP3   OH235251   7.158   3.536   1.081
11765TIP3    H135252   7.182   3.536   1.173
11765TIP3    H235253   7.238   3.561   1.035
11766TIP3   OH235254   0.941   1.150   5.504
11766TIP3    H135255   0.999   1.204   5.452
11766TIP3    H235256   0.907   1.208   5.572
11767TIP3   OH235257   5.760   1.177   2.289
11767TIP3    H135258   5.735   1.204   2.201
11767TIP3    H235259   5.792   1.087   2.279
11768TIP3   OH235260   0.816   5.639   4.456
11768TIP3    H135261   0.791   5.564   4.511
11768TIP3    H235262   0.890   5.607   4.405
11769TIP3   OH235263   5.579   2.786   2.443
11769TIP3    H135264   5.554   2.854   2.380
11769TIP3    H235265   5.542   2.816   2.526
11770TIP3   OH235266   5.346   2.599   5.492
11770TIP3    H135267   5.279   2.666   5.481
11770TIP3    H235268   5.396   2.601   5.410
11771TIP3   OH235269   0.938   5.494   2.578
11771TIP3    H135270   0.924   5.526   2.489
11771TIP3    H235271   1.028   5.520   2.599
11772TIP3   OH235272   7.846   1.802   1.721
11772TIP3    H135273   7.891   1.736   1.669
11772TIP3    H235274   7.817   1.755   1.799
11773TIP3   OH235275   7.235   3.442   4.453
11773TIP3    H135276   7.194   3.526   4.472
11773TIP3    H235277   7.323   3.465   4.422
11774TIP3   OH235278   5.916   2.054   4.105
11774TIP3    H135279   5.996   2.101   4.124
11774TIP3    H235280   5.937   1.962   4.125
11775TIP3   OH235281   4.455   0.967   2.441
11775TIP3    H135282   4.468   1.045   2.494
11775TIP3    H235283   4.503   0.898   2.487
11776TIP3   OH235284   0.182   6.445   3.323
11776TIP3    H135285   0.162   6.396   3.403
11776TIP3    H235286   0.278   6.454   3.324
11777TIP3   OH235287   1.594   5.459   1.866
11777TIP3    H135288   1.628   5.385   1.917
11777TIP3    H235289   1.669   5.488   1.814
11778TIP3   OH235290   0.461   2.675   4.538
11778TIP3    H135291   0.506   2.597   4.570
11778TIP3    H235292   0.494   2.746   4.592
11779TIP3   OH235293   2.885   2.737   2.209
11779TIP3    H135294   2.952   2.792   2.169
11779TIP3    H235295   2.846   2.791   2.278
11780TIP3   OH235296   8.120   1.362   3.972
11780TIP3    H135297   8.032   1.398   3.959
11780TIP3    H235298   8.115   1.316   4.055
11781TIP3   OH235299   6.349   7.366   2.337
11781TIP3    H135300   6.440   7.342   2.357
11781TIP3    H235301   6.349   7.462   2.342
11782TIP3   OH235302   7.178   7.017   2.606
11782TIP3    H135303   7.208   6.977   2.525
11782TIP3    H235304   7.234   7.094   2.617
11783TIP3   OH235305   0.996   2.102   2.957
11783TIP3    H135306   1.079   2.143   2.981
11783TIP3    H235307   1.006   2.010   2.982
11784TIP3   OH235308   7.379   1.617   6.303
11784TIP3    H135309   7.391   1.702   6.347
11784TIP3    H235310   7.320   1.636   6.230
11785TIP3   OH235311   5.117   6.022   0.718
11785TIP3    H135312   5.036   6.046   0.762
11785TIP3    H235313   5.104   5.930   0.692
11786TIP3   OH235314   1.492   4.299   4.051
11786TIP3    H135315   1.579   4.319   4.016
11786TIP3    H235316   1.510   4.246   4.129
11787TIP3   OH235317   3.863   0.085   4.197
11787TIP3    H135318   3.891   0.018   4.260
11787TIP3    H235319   3.798   0.040   4.143
11788TIP3   OH235320   6.457   0.768   4.671
11788TIP3    H135321   6.471   0.859   4.644
11788TIP3    H235322   6.462   0.717   4.590
11789TIP3   OH235323   1.712   3.814   2.658
11789TIP3    H135324   1.674   3.888   2.706
11789TIP3    H235325   1.799   3.845   2.630
11790TIP3   OH235326   1.772   1.897  -0.006
11790TIP3    H135327   1.679   1.880  -0.019
11790TIP3    H235328   1.776   1.947   0.076
11791TIP3   OH235329   4.033   5.817   6.707
11791TIP3    H135330   3.938   5.822   6.719
11791TIP3    H235331   4.053   5.885   6.643
11792TIP3   OH235332   4.485   1.981   6.211
11792TIP3    H135333   4.562   2.000   6.265
11792TIP3    H235334   4.411   1.990   6.270
11793TIP3   OH235335   4.945   6.086   5.340
11793TIP3    H135336   4.856   6.121   5.331
11793TIP3    H235337   4.965   6.096   5.433
11794TIP3   OH235338   3.749   5.398   4.502
11794TIP3    H135339   3.840   5.414   4.478
11794TIP3    H235340   3.706   5.483   4.488
11795TIP3   OH235341   0.561   1.068   4.411
11795TIP3    H135342   0.627   1.010   4.447
11795TIP3    H235343   0.480   1.015   4.412
11796TIP3   OH235344   0.726   7.077   5.546
11796TIP3    H135345   0.768   7.024   5.613
11796TIP3    H235346   0.634   7.051   5.549
11797TIP3   OH235347   6.589   3.695   4.721
11797TIP3    H135348   6.533   3.757   4.768
11797TIP3    H235349   6.567   3.610   4.758
11798TIP3   OH235350   7.343   6.079   5.683
11798TIP3    H135351   7.407   6.149   5.695
11798TIP3    H235352   7.278   6.116   5.623
11799TIP3   OH235353   5.177   3.833   4.773
11799TIP3    H135354   5.163   3.751   4.726
11799TIP3    H235355   5.110   3.834   4.841
11800TIP3   OH235356   5.764   6.534   3.912
11800TIP3    H135357   5.804   6.503   3.831
11800TIP3    H235358   5.680   6.487   3.916
11801TIP3   OH235359   0.690   0.543   1.903
11801TIP3    H135360   0.617   0.485   1.926
11801TIP3    H235361   0.670   0.625   1.947
11802TIP3   OH235362   0.223   3.162   3.340
11802TIP3    H135363   0.135   3.123   3.336
11802TIP3    H235364   0.250   3.149   3.431
11803TIP3   OH235365   1.065   1.808   4.761
11803TIP3    H135366   1.078   1.855   4.679
11803TIP3    H235367   0.985   1.845   4.798
11804TIP3   OH235368   5.182   2.199   1.101
11804TIP3    H135369   5.230   2.202   1.019
11804TIP3    H235370   5.221   2.125   1.149
11805TIP3   OH235371   5.753   4.984   3.337
11805TIP3    H135372   5.711   4.935   3.266
11805TIP3    H235373   5.842   5.001   3.305
11806TIP3   OH235374   3.496   1.980   1.184
11806TIP3    H135375   3.525   1.946   1.099
11806TIP3    H235376   3.423   2.038   1.163
11807TIP3   OH235377   3.586   2.996   4.063
11807TIP3    H135378   3.559   2.923   4.007
11807TIP3    H235379   3.681   2.988   4.068
11808TIP3   OH235380   4.570   4.154   5.400
11808TIP3    H135381   4.524   4.094   5.341
11808TIP3    H235382   4.543   4.241   5.371
11809TIP3   OH235383   2.971   2.786   1.689
11809TIP3    H135384   2.948   2.706   1.736
11809TIP3    H235385   2.892   2.839   1.693
11810TIP3   OH235386   4.695   0.430   4.589
11810TIP3    H135387   4.714   0.396   4.677
11810TIP3    H235388   4.663   0.519   4.604
11811TIP3   OH235389   2.351   7.654   4.295
11811TIP3    H135390   2.270   7.606   4.278
11811TIP3    H235391   2.366   7.706   4.216
11812TIP3   OH235392   0.561   1.960   2.659
11812TIP3    H135393   0.613   2.003   2.727
11812TIP3    H235394   0.611   1.882   2.637
11813TIP3   OH235395   6.072   2.031   6.432
11813TIP3    H135396   6.069   1.938   6.410
11813TIP3    H235397   6.164   2.050   6.449
11814TIP3   OH235398   6.312   4.630   3.120
11814TIP3    H135399   6.247   4.560   3.116
11814TIP3    H235400   6.380   4.596   3.178
11815TIP3   OH235401   4.294   1.811   0.230
11815TIP3    H135402   4.296   1.843   0.320
11815TIP3    H235403   4.335   1.881   0.179
11816TIP3   OH235404   7.940   0.804   5.133
11816TIP3    H135405   7.969   0.769   5.218
11816TIP3    H235406   7.878   0.739   5.100
11817TIP3   OH235407   3.000   3.085   2.349
11817TIP3    H135408   3.035   3.110   2.435
11817TIP3    H235409   2.937   3.154   2.328
11818TIP3   OH235410   5.417   7.055   4.515
11818TIP3    H135411   5.426   6.960   4.519
11818TIP3    H235412   5.344   7.071   4.456
11819TIP3   OH235413   0.351   1.261   1.953
11819TIP3    H135414   0.393   1.311   1.883
11819TIP3    H235415   0.355   1.319   2.029
11820TIP3   OH235416   5.373   1.331   3.253
11820TIP3    H135417   5.359   1.408   3.308
11820TIP3    H235418   5.290   1.321   3.205
11821TIP3   OH235419   5.788   5.650   3.024
11821TIP3    H135420   5.865   5.606   3.059
11821TIP3    H235421   5.714   5.608   3.068
11822TIP3   OH235422   2.177   7.596   5.920
11822TIP3    H135423   2.116   7.627   5.987
11822TIP3    H235424   2.235   7.535   5.967
11823TIP3   OH235425   5.317   3.325   2.828
11823TIP3    H135426   5.384   3.333   2.760
11823TIP3    H235427   5.323   3.234   2.856
11824TIP3   OH235428   7.776   0.866   2.998
11824TIP3    H135429   7.710   0.803   2.967
11824TIP3    H235430   7.812   0.824   3.076
11825TIP3   OH235431   5.460   2.074   0.243
11825TIP3    H135432   5.424   2.078   0.154
11825TIP3    H235433   5.412   2.142   0.291
11826TIP3   OH235434   5.975   2.865   3.432
11826TIP3    H135435   6.011   2.779   3.450
11826TIP3    H235436   5.931   2.856   3.348
11827TIP3   OH235437   2.695   1.296   0.060
11827TIP3    H135438   2.789   1.308   0.048
11827TIP3    H235439   2.687   1.245   0.141
11828TIP3   OH235440   2.681   6.513   2.688
11828TIP3    H135441   2.673   6.553   2.774
11828TIP3    H235442   2.720   6.581   2.633
11829TIP3   OH235443   6.369   4.340   2.764
11829TIP3    H135444   6.392   4.273   2.828
11829TIP3    H235445   6.287   4.377   2.798
11830TIP3   OH235446   7.629   2.342   1.456
11830TIP3    H135447   7.644   2.296   1.538
11830TIP3    H235448   7.534   2.344   1.446
11831TIP3   OH235449   4.664   1.555   1.611
11831TIP3    H135450   4.757   1.560   1.631
11831TIP3    H235451   4.652   1.616   1.538
11832TIP3   OH235452   7.116   5.830   3.576
11832TIP3    H135453   7.024   5.812   3.560
11832TIP3    H235454   7.120   5.856   3.668
11833TIP3   OH235455   7.374   1.074   3.217
11833TIP3    H135456   7.443   1.137   3.194
11833TIP3    H235457   7.422   0.996   3.246
11834TIP3   OH235458   6.349   4.583   3.696
11834TIP3    H135459   6.330   4.537   3.614
11834TIP3    H235460   6.395   4.518   3.750
11835TIP3   OH235461   3.696   1.123   3.222
11835TIP3    H135462   3.619   1.179   3.229
11835TIP3    H235463   3.762   1.165   3.277
11836TIP3   OH235464   5.329   0.983   2.977
11836TIP3    H135465   5.270   0.922   2.933
11836TIP3    H235466   5.274   1.059   2.999
11837TIP3   OH235467   2.486   2.266   3.257
11837TIP3    H135468   2.452   2.306   3.177
11837TIP3    H235469   2.572   2.306   3.269
11838TIP3   OH235470   6.044   4.285   0.285
11838TIP3    H135471   6.097   4.256   0.359
11838TIP3    H235472   6.007   4.204   0.250
11839TIP3   OH235473   0.168   5.039   4.034
11839TIP3    H135474   0.194   5.114   3.979
11839TIP3    H235475   0.186   4.963   3.980
11840TIP3   OH235476   5.352   1.998   2.420
11840TIP3    H135477   5.260   1.984   2.399
11840TIP3    H235478   5.401   1.946   2.355
11841TIP3   OH235479   7.478   3.835   5.058
11841TIP3    H135480   7.391   3.854   5.024
11841TIP3    H235481   7.493   3.743   5.038
11842TIP3   OH235482   5.825   2.086   0.706
11842TIP3    H135483   5.836   1.998   0.741
11842TIP3    H235484   5.913   2.124   0.708
11843TIP3   OH235485   4.457   4.257   4.256
11843TIP3    H135486   4.466   4.170   4.294
11843TIP3    H235487   4.364   4.263   4.231
11844TIP3   OH235488   5.022   5.822   0.964
11844TIP3    H135489   4.987   5.811   1.053
11844TIP3    H235490   4.976   5.898   0.929
11845TIP3   OH235491   2.827   0.403   2.858
11845TIP3    H135492   2.799   0.492   2.841
11845TIP3    H235493   2.753   0.349   2.831
11846TIP3   OH235494   4.891   6.156   0.198
11846TIP3    H135495   4.804   6.117   0.206
11846TIP3    H235496   4.875   6.250   0.203
11847TIP3   OH235497   4.817   0.004   4.436
11847TIP3    H135498   4.784  -0.034   4.354
11847TIP3    H235499   4.893   0.055   4.409
11848TIP3   OH235500   3.889   6.738   2.651
11848TIP3    H135501   3.837   6.780   2.583
11848TIP3    H235502   3.963   6.700   2.605
11849TIP3   OH235503   6.975   5.595   4.397
11849TIP3    H135504   7.039   5.571   4.464
11849TIP3    H235505   6.907   5.643   4.445
11850TIP3   OH235506   3.766   2.896   2.242
11850TIP3    H135507   3.860   2.904   2.227
11850TIP3    H235508   3.743   2.810   2.208
11851TIP3   OH235509   0.392   6.801   5.448
11851TIP3    H135510   0.434   6.828   5.530
11851TIP3    H235511   0.456   6.743   5.406
11852TIP3   OH235512   7.761   7.265   4.243
11852TIP3    H135513   7.704   7.303   4.175
11852TIP3    H235514   7.727   7.177   4.257
11853TIP3   OH235515   5.732   5.300   1.732
11853TIP3    H135516   5.664   5.327   1.794
11853TIP3    H235517   5.689   5.303   1.646
11854TIP3   OH235518   8.146   0.598   5.166
11854TIP3    H135519   8.179   0.607   5.076
11854TIP3    H235520   8.214   0.549   5.211
11855TIP3   OH235521   6.937   5.999   2.993
11855TIP3    H135522   7.003   5.930   2.995
11855TIP3    H235523   6.973   6.065   2.933
11856TIP3   OH235524   7.016   1.902   5.997
11856TIP3    H135525   6.925   1.876   5.983
11856TIP3    H235526   7.051   1.914   5.909
11857TIP3   OH235527   1.508   3.106   3.598
11857TIP3    H135528   1.418   3.082   3.579
11857TIP3    H235529   1.506   3.136   3.689
11858TIP3   OH235530   3.809   1.435   4.277
11858TIP3    H135531   3.831   1.527   4.288
11858TIP3    H235532   3.871   1.388   4.333
11859TIP3   OH235533   4.861   6.637   4.715
11859TIP3    H135534   4.949   6.674   4.723
11859TIP3    H235535   4.838   6.647   4.623
11860TIP3   OH235536   5.735   5.912   6.752
11860TIP3    H135537   5.654   5.937   6.708
11860TIP3    H235538   5.770   5.840   6.699
11861TIP3   OH235539   2.576   4.028   3.629
11861TIP3    H135540   2.650   4.079   3.595
11861TIP3    H235541   2.543   4.081   3.703
11862TIP3   OH235542   2.556   2.721   5.838
11862TIP3    H135543   2.522   2.637   5.869
11862TIP3    H235544   2.618   2.749   5.905
11863TIP3   OH235545   3.288   7.090   1.098
11863TIP3    H135546   3.291   7.111   1.192
11863TIP3    H235547   3.374   7.115   1.065
11864TIP3   OH235548   1.148   0.066   4.073
11864TIP3    H135549   1.224   0.121   4.055
11864TIP3    H235550   1.099   0.113   4.140
11865TIP3   OH235551   1.186   2.728   3.823
11865TIP3    H135552   1.243   2.797   3.787
11865TIP3    H235553   1.219   2.713   3.911
11866TIP3   OH235554   1.065   7.348   4.791
11866TIP3    H135555   1.103   7.423   4.747
11866TIP3    H235556   1.098   7.354   4.881
11867TIP3   OH235557   0.723   0.356   0.733
11867TIP3    H135558   0.634   0.365   0.699
11867TIP3    H235559   0.730   0.421   0.802
11868TIP3   OH235560   2.643   7.488   5.863
11868TIP3    H135561   2.726   7.520   5.829
11868TIP3    H235562   2.580   7.557   5.842
11869TIP3   OH235563   6.774   2.638   1.477
11869TIP3    H135564   6.758   2.643   1.572
11869TIP3    H235565   6.687   2.631   1.439
11870TIP3   OH235566   1.028   3.332   5.281
11870TIP3    H135567   1.114   3.290   5.277
11870TIP3    H235568   0.988   3.312   5.196
11871TIP3   OH235569   2.139   2.224   5.245
11871TIP3    H135570   2.202   2.152   5.242
11871TIP3    H235571   2.191   2.301   5.221
11872TIP3   OH235572   7.358   6.843   2.253
11872TIP3    H135573   7.374   6.790   2.331
11872TIP3    H235574   7.372   6.933   2.282
11873TIP3   OH235575   7.612   4.195   4.701
11873TIP3    H135576   7.669   4.118   4.705
11873TIP3    H235577   7.653   4.252   4.636
11874TIP3   OH235578   2.191   5.596   0.528
11874TIP3    H135579   2.137   5.576   0.452
11874TIP3    H235580   2.202   5.512   0.573
11875TIP3   OH235581   4.303   2.455   2.794
11875TIP3    H135582   4.371   2.432   2.730
11875TIP3    H235583   4.334   2.418   2.876
11876TIP3   OH235584   6.644   5.884   1.417
11876TIP3    H135585   6.669   5.917   1.331
11876TIP3    H235586   6.724   5.845   1.452
11877TIP3   OH235587   2.246   2.960   5.879
11877TIP3    H135588   2.334   2.955   5.917
11877TIP3    H235589   2.249   2.898   5.806
11878TIP3   OH235590   3.886   2.432   5.018
11878TIP3    H135591   3.904   2.437   5.112
11878TIP3    H235592   3.961   2.385   4.982
11879TIP3   OH235593   6.677   1.887   3.913
11879TIP3    H135594   6.602   1.828   3.923
11879TIP3    H235595   6.700   1.881   3.821
11880TIP3   OH235596   1.445   2.317   5.597
11880TIP3    H135597   1.517   2.371   5.563
11880TIP3    H235598   1.448   2.237   5.544
11881TIP3   OH235599   2.555   6.980   2.290
11881TIP3    H135600   2.550   7.002   2.383
11881TIP3    H235601   2.612   7.048   2.253
11882TIP3   OH235602   6.309   5.293   2.214
11882TIP3    H135603   6.215   5.280   2.210
11882TIP3    H235604   6.345   5.233   2.148
11883TIP3   OH235605   7.827   6.945   4.691
11883TIP3    H135606   7.827   6.900   4.775
11883TIP3    H235607   7.919   6.961   4.671
11884TIP3   OH235608   4.659   0.640   3.524
11884TIP3    H135609   4.653   0.578   3.451
11884TIP3    H235610   4.633   0.724   3.487
11885TIP3   OH235611   3.972   1.583   6.081
11885TIP3    H135612   4.011   1.641   6.147
11885TIP3    H235613   3.981   1.631   5.999
11886TIP3   OH235614   7.108   4.514   0.121
11886TIP3    H135615   7.044   4.575   0.085
11886TIP3    H235616   7.176   4.507   0.054
11887TIP3   OH235617   2.095   1.651   0.461
11887TIP3    H135618   2.138   1.581   0.412
11887TIP3    H235619   2.008   1.659   0.420
11888TIP3   OH235620   1.704   7.411   2.656
11888TIP3    H135621   1.673   7.374   2.573
11888TIP3    H235622   1.800   7.404   2.651
11889TIP3   OH235623   0.544   0.522   6.501
11889TIP3    H135624   0.624   0.507   6.550
11889TIP3    H235625   0.483   0.455   6.533
11890TIP3   OH235626   7.495   2.918   4.833
11890TIP3    H135627   7.425   2.867   4.873
11890TIP3    H235628   7.572   2.861   4.839
11891TIP3   OH235629   8.276   0.888   2.013
11891TIP3    H135630   8.210   0.940   1.967
11891TIP3    H235631   8.353   0.945   2.016
11892TIP3   OH235632   3.306   2.649   1.115
11892TIP3    H135633   3.250   2.726   1.129
11892TIP3    H235634   3.314   2.610   1.202
11893TIP3   OH235635   0.719   6.227   6.740
11893TIP3    H135636   0.771   6.196   6.666
11893TIP3    H235637   0.646   6.166   6.745
11894TIP3   OH235638   4.290   1.934   5.072
11894TIP3    H135639   4.213   1.924   5.016
11894TIP3    H235640   4.255   1.930   5.161
11895TIP3   OH235641   3.678   2.813   5.142
11895TIP3    H135642   3.611   2.876   5.116
11895TIP3    H235643   3.650   2.731   5.102
11896TIP3   OH235644   7.909   3.319   6.200
11896TIP3    H135645   7.830   3.314   6.254
11896TIP3    H235646   7.972   3.264   6.246
11897TIP3   OH235647   0.400   1.381   5.985
11897TIP3    H135648   0.475   1.354   6.037
11897TIP3    H235649   0.386   1.309   5.923
11898TIP3   OH235650   2.813   2.038   1.577
11898TIP3    H135651   2.783   2.107   1.516
11898TIP3    H235652   2.805   2.078   1.663
11899TIP3   OH235653   7.653   0.818   5.355
11899TIP3    H135654   7.691   0.742   5.398
11899TIP3    H235655   7.605   0.782   5.280
11900TIP3   OH235656   2.137   4.535   5.474
11900TIP3    H135657   2.142   4.629   5.489
11900TIP3    H235658   2.228   4.507   5.466
11901TIP3   OH235659   4.778   0.150   4.910
11901TIP3    H135660   4.853   0.091   4.922
11901TIP3    H235661   4.702   0.097   4.934
11902TIP3   OH235662   8.135   4.291   4.662
11902TIP3    H135663   8.090   4.338   4.592
11902TIP3    H235664   8.097   4.203   4.660
11903TIP3   OH235665   2.787   1.886   4.532
11903TIP3    H135666   2.831   1.969   4.515
11903TIP3    H235667   2.804   1.833   4.454
11904TIP3   OH235668   1.789   5.160   3.992
11904TIP3    H135669   1.770   5.129   4.080
11904TIP3    H235670   1.879   5.132   3.975
11905TIP3   OH235671   3.297   3.736   2.989
11905TIP3    H135672   3.356   3.772   2.922
11905TIP3    H235673   3.285   3.645   2.963
11906TIP3   OH235674   3.163   2.653   0.222
11906TIP3    H135675   3.173   2.730   0.279
11906TIP3    H235676   3.119   2.686   0.144
11907TIP3   OH235677   4.431   7.217   5.121
11907TIP3    H135678   4.432   7.125   5.095
11907TIP3    H235679   4.438   7.265   5.038
11908TIP3   OH235680   6.914   1.569   3.490
11908TIP3    H135681   6.917   1.480   3.454
11908TIP3    H235682   6.826   1.600   3.469
11909TIP3   OH235683   7.467   3.131   4.439
11909TIP3    H135684   7.392   3.072   4.437
11909TIP3    H235685   7.475   3.163   4.349
11910TIP3   OH235686   6.135   0.089   0.199
11910TIP3    H135687   6.187   0.019   0.238
11910TIP3    H235688   6.086   0.047   0.129
11911TIP3   OH235689   6.794   3.953   3.331
11911TIP3    H135690   6.727   3.885   3.328
11911TIP3    H235691   6.810   3.966   3.425
11912TIP3   OH235692   0.212   7.336   5.023
11912TIP3    H135693   0.156   7.260   5.006
11912TIP3    H235694   0.231   7.331   5.117
11913TIP3   OH235695   7.124   4.000   0.797
11913TIP3    H135696   7.097   4.091   0.800
11913TIP3    H235697   7.068   3.955   0.860
11914TIP3   OH235698   4.290   0.575   4.512
11914TIP3    H135699   4.340   0.502   4.548
11914TIP3    H235700   4.291   0.561   4.418
11915TIP3   OH235701   6.908  -0.011   2.214
11915TIP3    H135702   6.980   0.020   2.160
11915TIP3    H235703   6.934   0.010   2.303
11916TIP3   OH235704   7.673   4.533   3.206
11916TIP3    H135705   7.655   4.621   3.174
11916TIP3    H235706   7.621   4.525   3.286
11917TIP3   OH235707   3.788   4.720   5.749
11917TIP3    H135708   3.729   4.665   5.697
11917TIP3    H235709   3.841   4.766   5.684
11918TIP3   OH235710   0.540   7.808   0.785
11918TIP3    H135711   0.563   7.732   0.839
11918TIP3    H235712   0.503   7.770   0.705
11919TIP3   OH235713   4.768   7.592   5.575
11919TIP3    H135714   4.743   7.655   5.507
11919TIP3    H235715   4.839   7.634   5.623
11920TIP3   OH235716   0.419   0.738   1.437
11920TIP3    H135717   0.505   0.753   1.398
11920TIP3    H235718   0.434   0.745   1.532
11921TIP3   OH235719   6.246   4.963   3.433
11921TIP3    H135720   6.316   4.947   3.497
11921TIP3    H235721   6.170   4.918   3.469
11922TIP3   OH235722   6.086   0.981   5.264
11922TIP3    H135723   5.991   0.979   5.268
11922TIP3    H235724   6.105   1.004   5.173
11923TIP3   OH235725   0.400   1.254   0.915
11923TIP3    H135726   0.431   1.303   0.991
11923TIP3    H235727   0.351   1.181   0.952
11924TIP3   OH235728   6.724   4.690   3.258
11924TIP3    H135729   6.760   4.674   3.171
11924TIP3    H235730   6.658   4.620   3.270
11925TIP3   OH235731   3.788   2.190   5.776
11925TIP3    H135732   3.869   2.191   5.726
11925TIP3    H235733   3.726   2.145   5.719
11926TIP3   OH235734   4.694   6.882   5.940
11926TIP3    H135735   4.786   6.885   5.911
11926TIP3    H235736   4.691   6.944   6.013
11927TIP3   OH235737   4.041   5.448   2.513
11927TIP3    H135738   3.993   5.529   2.496
11927TIP3    H235739   3.991   5.404   2.581
11928TIP3   OH235740   6.520   6.611   5.376
11928TIP3    H135741   6.468   6.676   5.424
11928TIP3    H235742   6.555   6.658   5.301
11929TIP3   OH235743   1.261   0.327   2.118
11929TIP3    H135744   1.264   0.233   2.100
11929TIP3    H235745   1.252   0.333   2.213
11930TIP3   OH235746   1.179   0.689   5.323
11930TIP3    H135747   1.195   0.783   5.327
11930TIP3    H235748   1.259   0.652   5.286
11931TIP3   OH235749   6.578   7.397   6.434
11931TIP3    H135750   6.559   7.491   6.433
11931TIP3    H235751   6.613   7.381   6.522
11932TIP3   OH235752   7.572   4.907   6.679
11932TIP3    H135753   7.626   4.867   6.611
11932TIP3    H235754   7.583   4.850   6.755
11933TIP3   OH235755   2.334   3.504   0.288
11933TIP3    H135756   2.392   3.577   0.266
11933TIP3    H235757   2.341   3.444   0.214
11934TIP3   OH235758   7.880   1.463   1.490
11934TIP3    H135759   7.868   1.455   1.395
11934TIP3    H235760   7.792   1.479   1.524
11935TIP3   OH235761   6.960   4.774   6.490
11935TIP3    H135762   7.018   4.719   6.436
11935TIP3    H235763   7.011   4.854   6.504
11936TIP3   OH235764   0.863   0.932   2.052
11936TIP3    H135765   0.873   0.838   2.035
11936TIP3    H235766   0.820   0.936   2.137
11937TIP3   OH235767   5.108   0.942   6.145
11937TIP3    H135768   5.060   0.976   6.070
11937TIP3    H235769   5.123   1.019   6.201
11938TIP3   OH235770   6.528   2.145   0.683
11938TIP3    H135771   6.454   2.085   0.691
11938TIP3    H235772   6.500   2.208   0.616
11939TIP3   OH235773   4.013   0.498   0.868
11939TIP3    H135774   4.001   0.485   0.774
11939TIP3    H235775   3.932   0.466   0.908
11940TIP3   OH235776   6.522   7.283   5.572
11940TIP3    H135777   6.598   7.241   5.613
11940TIP3    H235778   6.552   7.305   5.483
11941TIP3   OH235779   0.991   0.441   1.315
11941TIP3    H135780   0.926   0.506   1.289
11941TIP3    H235781   0.940   0.368   1.349
11942TIP3   OH235782   4.136   5.203   1.317
11942TIP3    H135783   4.055   5.188   1.364
11942TIP3    H235784   4.111   5.203   1.225
11943TIP3   OH235785   6.981   3.113   2.206
11943TIP3    H135786   7.044   3.049   2.239
11943TIP3    H235787   6.948   3.157   2.285
11944TIP3   OH235788   5.170   3.150   2.186
11944TIP3    H135789   5.114   3.228   2.189
11944TIP3    H235790   5.254   3.183   2.155
11945TIP3   OH235791   7.910   6.566   0.944
11945TIP3    H135792   7.975   6.559   1.013
11945TIP3    H235793   7.920   6.655   0.909
11946TIP3   OH235794   2.710   7.789   5.935
11946TIP3    H135795   2.676   7.833   5.857
11946TIP3    H235796   2.633   7.778   5.991
11947TIP3   OH235797   4.117   1.904   1.049
11947TIP3    H135798   4.074   1.982   1.084
11947TIP3    H235799   4.105   1.838   1.117
11948TIP3   OH235800   5.498   4.942   3.739
11948TIP3    H135801   5.514   4.967   3.830
11948TIP3    H235802   5.494   4.847   3.741
11949TIP3   OH235803   6.127   7.072   1.526
11949TIP3    H135804   6.170   7.033   1.450
11949TIP3    H235805   6.161   7.022   1.600
11950TIP3   OH235806   6.159   6.587   0.654
11950TIP3    H135807   6.198   6.510   0.612
11950TIP3    H235808   6.217   6.660   0.630
11951TIP3   OH235809   2.016   0.115   1.476
11951TIP3    H135810   1.970   0.150   1.399
11951TIP3    H235811   1.970   0.153   1.551
11952TIP3   OH235812   4.346   5.784   4.280
11952TIP3    H135813   4.437   5.754   4.285
11952TIP3    H235814   4.297   5.707   4.251
11953TIP3   OH235815   6.615   5.311   0.192
11953TIP3    H135816   6.634   5.373   0.262
11953TIP3    H235817   6.559   5.244   0.233
11954TIP3   OH235818   7.075   5.363   1.152
11954TIP3    H135819   7.012   5.398   1.089
11954TIP3    H235820   7.056   5.270   1.157
11955TIP3   OH235821   8.283   5.125   6.184
11955TIP3    H135822   8.280   5.127   6.089
11955TIP3    H235823   8.314   5.212   6.209
11956TIP3   OH235824   7.423   5.612   0.549
11956TIP3    H135825   7.429   5.599   0.454
11956TIP3    H235826   7.361   5.684   0.559
11957TIP3   OH235827   1.036   1.552   4.587
11957TIP3    H135828   1.015   1.637   4.626
11957TIP3    H235829   1.131   1.555   4.573
11958TIP3   OH235830   3.939   4.734   4.214
11958TIP3    H135831   4.000   4.750   4.286
11958TIP3    H235832   3.994   4.709   4.140
11959TIP3   OH235833   0.083   1.499   6.247
11959TIP3    H135834   0.082   1.493   6.152
11959TIP3    H235835   0.055   1.412   6.277
11960TIP3   OH235836   7.045   5.031   5.547
11960TIP3    H135837   7.136   5.044   5.572
11960TIP3    H235838   7.043   4.945   5.506
11961TIP3   OH235839   3.684   7.558   0.398
11961TIP3    H135840   3.650   7.506   0.471
11961TIP3    H235841   3.613   7.558   0.333
11962TIP3   OH235842   6.739   3.139   2.888
11962TIP3    H135843   6.723   3.088   2.967
11962TIP3    H235844   6.819   3.187   2.906
11963TIP3   OH235845   5.907   5.684   0.314
11963TIP3    H135846   5.891   5.753   0.379
11963TIP3    H235847   5.974   5.629   0.355
11964TIP3   OH235848   1.380   3.973   2.825
11964TIP3    H135849   1.432   4.021   2.762
11964TIP3    H235850   1.437   3.963   2.901
11965TIP3   OH235851   0.225   7.169   3.793
11965TIP3    H135852   0.174   7.091   3.814
11965TIP3    H235853   0.291   7.139   3.730
11966TIP3   OH235854   6.368   2.634   2.781
11966TIP3    H135855   6.296   2.591   2.827
11966TIP3    H235856   6.346   2.625   2.688
11967TIP3   OH235857   3.016   3.852   1.199
11967TIP3    H135858   3.023   3.891   1.112
11967TIP3    H235859   3.075   3.777   1.197
11968TIP3   OH235860   5.623   5.812   1.969
11968TIP3    H135861   5.573   5.754   1.912
11968TIP3    H235862   5.558   5.875   2.001
11969TIP3   OH235863   4.277   1.083   0.394
11969TIP3    H135864   4.182   1.089   0.380
11969TIP3    H235865   4.296   0.990   0.384
11970TIP3   OH235866   0.415   6.481   2.212
11970TIP3    H135867   0.394   6.395   2.176
11970TIP3    H235868   0.384   6.543   2.146
11971TIP3   OH235869   7.942   7.074   5.165
11971TIP3    H135870   7.937   7.072   5.261
11971TIP3    H235871   7.858   7.110   5.138
11972TIP3   OH235872   3.161   1.072   2.849
11972TIP3    H135873   3.069   1.053   2.831
11972TIP3    H235874   3.208   0.995   2.817
11973TIP3   OH235875   4.043   3.180   2.217
11973TIP3    H135876   4.046   3.100   2.270
11973TIP3    H235877   3.969   3.166   2.157
11974TIP3   OH235878   7.696   5.337   1.058
11974TIP3    H135879   7.777   5.342   1.008
11974TIP3    H235880   7.719   5.371   1.145
11975TIP3   OH235881   1.407   2.542   1.027
11975TIP3    H135882   1.478   2.588   0.984
11975TIP3    H235883   1.437   2.451   1.033
11976TIP3   OH235884   4.368   2.122   3.496
11976TIP3    H135885   4.339   2.206   3.459
11976TIP3    H235886   4.425   2.085   3.429
11977TIP3   OH235887   6.468   5.850   4.464
11977TIP3    H135888   6.470   5.917   4.533
11977TIP3    H235889   6.503   5.771   4.507
11978TIP3   OH235890   7.588   3.192   0.512
11978TIP3    H135891   7.584   3.098   0.529
11978TIP3    H235892   7.574   3.200   0.418
11979TIP3   OH235893   5.916   0.689   0.824
11979TIP3    H135894   5.931   0.649   0.909
11979TIP3    H235895   5.945   0.623   0.761
11980TIP3   OH235896   0.139   4.088   5.711
11980TIP3    H135897   0.105   4.000   5.727
11980TIP3    H235898   0.175   4.116   5.795
11981TIP3   OH235899   3.977   6.212   0.284
11981TIP3    H135900   3.896   6.257   0.260
11981TIP3    H235901   3.957   6.168   0.367
11982TIP3   OH235902   0.480   3.229   6.386
11982TIP3    H135903   0.459   3.193   6.300
11982TIP3    H235904   0.460   3.323   6.378
11983TIP3   OH235905   5.439   0.118   3.835
11983TIP3    H135906   5.405   0.055   3.898
11983TIP3    H235907   5.440   0.071   3.751
11984TIP3   OH235908   4.291   2.216   5.789
11984TIP3    H135909   4.367   2.272   5.806
11984TIP3    H235910   4.329   2.129   5.775
11985TIP3   OH235911   3.997   4.905   0.893
11985TIP3    H135912   3.986   4.937   0.982
11985TIP3    H235913   3.916   4.930   0.849
11986TIP3   OH235914   7.879   2.449   1.518
11986TIP3    H135915   7.804   2.397   1.488
11986TIP3    H235916   7.840   2.516   1.575
11987TIP3   OH235917   7.520   5.180   1.424
11987TIP3    H135918   7.525   5.106   1.485
11987TIP3    H235919   7.512   5.138   1.338
11988TIP3   OH235920   1.615   7.714   6.561
11988TIP3    H135921   1.692   7.707   6.505
11988TIP3    H235922   1.583   7.804   6.546
11989TIP3   OH235923   0.187   4.133   2.810
11989TIP3    H135924   0.259   4.195   2.796
11989TIP3    H235925   0.178   4.128   2.905
11990TIP3   OH235926   0.369   0.127   5.321
11990TIP3    H135927   0.325   0.211   5.308
11990TIP3    H235928   0.301   0.069   5.355
11991TIP3   OH235929   5.013   3.177   2.897
11991TIP3    H135930   5.088   3.233   2.878
11991TIP3    H235931   5.042   3.089   2.872
11992TIP3   OH235932   0.420   3.402   0.014
11992TIP3    H135933   0.424   3.333   0.081
11992TIP3    H235934   0.364   3.469   0.052
11993TIP3   OH235935   5.212   5.178   6.702
11993TIP3    H135936   5.228   5.085   6.718
11993TIP3    H235937   5.286   5.222   6.742
11994TIP3   OH235938   4.618   1.458   4.335
11994TIP3    H135939   4.548   1.489   4.393
11994TIP3    H235940   4.663   1.538   4.308
11995TIP3   OH235941   7.129   7.856   5.526
11995TIP3    H135942   7.057   7.873   5.466
11995TIP3    H235943   7.102   7.778   5.574
11996TIP3   OH235944   2.249   4.768   0.202
11996TIP3    H135945   2.283   4.822   0.131
11996TIP3    H235946   2.159   4.747   0.175
11997TIP3   OH235947   2.715   7.462   3.393
11997TIP3    H135948   2.748   7.434   3.308
11997TIP3    H235949   2.647   7.526   3.373
11998TIP3   OH235950   2.976   3.153   4.294
11998TIP3    H135951   3.061   3.180   4.331
11998TIP3    H235952   2.990   3.152   4.200
11999TIP3   OH235953   1.222   0.108   1.625
11999TIP3    H135954   1.283   0.159   1.573
11999TIP3    H235955   1.271   0.086   1.704
12000TIP3   OH235956   6.457   2.639   0.212
12000TIP3    H135957   6.442   2.693   0.134
12000TIP3    H235958   6.375   2.647   0.262
12001TIP3   OH235959   5.242   2.686   1.475
12001TIP3    H135960   5.180   2.707   1.545
12001TIP3    H235961   5.241   2.763   1.418
12002TIP3   OH235962   0.762   0.683   4.179
12002TIP3    H135963   0.816   0.605   4.165
12002TIP3    H235964   0.809   0.754   4.135
12003TIP3   OH235965   2.048   2.310   3.321
12003TIP3    H135966   2.125   2.285   3.372
12003TIP3    H235967   2.036   2.404   3.339
12004TIP3   OH235968   3.673   3.553   4.851
12004TIP3    H135969   3.756   3.592   4.876
12004TIP3    H235970   3.656   3.587   4.763
12005TIP3   OH235971   7.624   5.011   3.462
12005TIP3    H135972   7.547   4.954   3.459
12005TIP3    H235973   7.627   5.050   3.375
12006TIP3   OH235974   4.519   3.982   3.560
12006TIP3    H135975   4.580   3.936   3.616
12006TIP3    H235976   4.567   3.997   3.479
12007TIP3   OH235977   5.030   2.255   6.674
12007TIP3    H135978   5.098   2.223   6.615
12007TIP3    H235979   5.052   2.216   6.759
12008TIP3   OH235980   2.061   1.492   4.885
12008TIP3    H135981   2.117   1.474   4.961
12008TIP3    H235982   2.053   1.407   4.841
12009TIP3   OH235983   1.477   5.681   0.367
12009TIP3    H135984   1.466   5.608   0.428
12009TIP3    H235985   1.436   5.651   0.286
12010TIP3   OH235986   0.861   7.375   6.592
12010TIP3    H135987   0.856   7.360   6.498
12010TIP3    H235988   0.770   7.385   6.619
12011TIP3   OH235989   0.035   2.145   5.670
12011TIP3    H135990   0.007   2.138   5.761
12011TIP3    H235991   0.129   2.160   5.675
12012TIP3   OH235992   2.439   4.128   5.807
12012TIP3    H135993   2.472   4.115   5.896
12012TIP3    H235994   2.508   4.178   5.763
12013TIP3   OH235995   2.143   2.100   4.695
12013TIP3    H135996   2.060   2.082   4.741
12013TIP3    H235997   2.147   2.034   4.626
12014TIP3   OH235998   8.132   2.812   0.499
12014TIP3    H135999   8.100   2.902   0.503
12014TIP3    H236000   8.135   2.783   0.590
12015TIP3   OH236001   3.171   4.305   3.233
12015TIP3    H136002   3.266   4.316   3.231
12015TIP3    H236003   3.145   4.334   3.321
12016TIP3   OH236004   2.539   1.128   2.854
12016TIP3    H136005   2.562   1.195   2.790
12016TIP3    H236006   2.508   1.054   2.802
12017TIP3   OH236007   2.573   3.664   2.070
12017TIP3    H136008   2.598   3.686   1.980
12017TIP3    H236009   2.626   3.587   2.091
12018TIP3   OH236010   2.792   6.993   2.601
12018TIP3    H136011   2.829   7.075   2.635
12018TIP3    H236012   2.739   7.020   2.526
12019TIP3   OH236013   4.074   2.199   3.595
12019TIP3    H136014   4.148   2.138   3.591
12019TIP3    H236015   4.025   2.182   3.514
12020TIP3   OH236016   5.510   4.875   4.906
12020TIP3    H136017   5.492   4.791   4.948
12020TIP3    H236018   5.604   4.890   4.920
12021TIP3   OH236019   1.719   6.980   4.186
12021TIP3    H136020   1.792   6.939   4.140
12021TIP3    H236021   1.642   6.955   4.135
12022TIP3   OH236022   5.995   0.254   1.846
12022TIP3    H136023   6.012   0.348   1.843
12022TIP3    H236024   5.934   0.238   1.774
12023TIP3   OH236025   5.432   3.185   6.129
12023TIP3    H136026   5.380   3.246   6.075
12023TIP3    H236027   5.474   3.127   6.065
12024TIP3   OH236028   4.735   3.394   1.404
12024TIP3    H136029   4.824   3.420   1.429
12024TIP3    H236030   4.679   3.446   1.460
12025TIP3   OH236031   7.136   6.269   4.354
12025TIP3    H136032   7.186   6.345   4.386
12025TIP3    H236033   7.195   6.227   4.291
12026TIP3   OH236034   3.150   5.460   5.973
12026TIP3    H136035   3.075   5.490   6.025
12026TIP3    H236036   3.221   5.450   6.037
12027TIP3   OH236037   6.200   0.818   6.461
12027TIP3    H136038   6.177   0.909   6.446
12027TIP3    H236039   6.292   0.819   6.487
12028TIP3   OH236040   5.489   1.295   3.932
12028TIP3    H136041   5.433   1.305   4.008
12028TIP3    H236042   5.559   1.359   3.943
12029TIP3   OH236043   6.423   7.517   6.748
12029TIP3    H136044   6.393   7.507   6.838
12029TIP3    H236045   6.516   7.493   6.750
12030TIP3   OH236046   1.964   3.822   0.741
12030TIP3    H136047   2.043   3.797   0.691
12030TIP3    H236048   1.997   3.876   0.812
12031TIP3   OH236049   8.143   1.567   0.584
12031TIP3    H136050   8.221   1.607   0.545
12031TIP3    H236051   8.176   1.493   0.634
12032TIP3   OH236052   3.868   2.231   6.279
12032TIP3    H136053   3.802   2.260   6.342
12032TIP3    H236054   3.882   2.306   6.222
12033TIP3   OH236055   2.329   3.376   0.054
12033TIP3    H136056   2.358   3.452   0.003
12033TIP3    H236057   2.335   3.302  -0.007
12034TIP3   OH236058   1.189   3.980   1.675
12034TIP3    H136059   1.168   3.991   1.583
12034TIP3    H236060   1.219   3.889   1.682
12035TIP3   OH236061   4.772   2.518   0.525
12035TIP3    H136062   4.865   2.494   0.529
12035TIP3    H236063   4.770   2.596   0.468
12036TIP3   OH236064   5.375   1.632   4.971
12036TIP3    H136065   5.447   1.598   4.917
12036TIP3    H236066   5.356   1.719   4.935
12037TIP3   OH236067   3.301   6.117   2.734
12037TIP3    H136068   3.228   6.108   2.796
12037TIP3    H236069   3.261   6.111   2.648
12038TIP3   OH236070   4.723   4.109   1.764
12038TIP3    H136071   4.645   4.161   1.740
12038TIP3    H236072   4.728   4.115   1.859
12039TIP3   OH236073   7.229   1.872   3.312
12039TIP3    H136074   7.188   1.898   3.230
12039TIP3    H236075   7.322   1.863   3.291
12040TIP3   OH236076   5.622   5.215   3.223
12040TIP3    H136077   5.608   5.291   3.279
12040TIP3    H236078   5.688   5.163   3.269
12041TIP3   OH236079   6.467   3.311   0.557
12041TIP3    H136080   6.542   3.281   0.608
12041TIP3    H236081   6.501   3.382   0.503
12042TIP3   OH236082   0.723   1.098   0.610
12042TIP3    H136083   0.792   1.069   0.669
12042TIP3    H236084   0.658   1.139   0.668
12043TIP3   OH236085  -0.018   0.852   1.260
12043TIP3    H136086  -0.029   0.788   1.331
12043TIP3    H236087   0.065   0.895   1.280
12044TIP3   OH236088   7.307   2.006   6.041
12044TIP3    H136089   7.287   1.998   5.948
12044TIP3    H236090   7.394   2.046   6.045
12045TIP3   OH236091   4.035   1.733   5.106
12045TIP3    H136092   4.023   1.765   5.195
12045TIP3    H236093   3.958   1.766   5.058
12046TIP3   OH236094   3.945   3.312   6.380
12046TIP3    H136095   4.022   3.364   6.403
12046TIP3    H236096   3.973   3.257   6.307
12047TIP3   OH236097   1.278   3.319   3.709
12047TIP3    H136098   1.370   3.291   3.713
12047TIP3    H236099   1.237   3.277   3.785
12048TIP3   OH236100   3.832   1.966   6.239
12048TIP3    H136101   3.770   1.969   6.167
12048TIP3    H236102   3.842   2.057   6.266
12049TIP3   OH236103   7.754   0.323   5.565
12049TIP3    H136104   7.768   0.230   5.586
12049TIP3    H236105   7.839   0.353   5.533
12050TIP3   OH236106   2.428   2.648   6.205
12050TIP3    H136107   2.508   2.689   6.235
12050TIP3    H236108   2.384   2.620   6.286
12051TIP3   OH236109   4.252   0.768   6.324
12051TIP3    H136110   4.250   0.704   6.395
12051TIP3    H236111   4.345   0.773   6.299
12052TIP3   OH236112   3.803   3.638   3.609
12052TIP3    H136113   3.828   3.684   3.690
12052TIP3    H236114   3.740   3.573   3.638
12053TIP3   OH236115   5.921   7.674   4.981
12053TIP3    H136116   5.846   7.649   4.927
12053TIP3    H236117   5.888   7.747   5.035
12054TIP3   OH236118   0.180   0.750   3.908
12054TIP3    H136119   0.201   0.659   3.930
12054TIP3    H236120   0.167   0.793   3.993
12055TIP3   OH236121   0.652   3.466   6.248
12055TIP3    H136122   0.568   3.501   6.278
12055TIP3    H236123   0.687   3.534   6.190
12056TIP3   OH236124   6.916   3.737   6.398
12056TIP3    H136125   6.850   3.804   6.380
12056TIP3    H236126   6.942   3.754   6.489
12057TIP3   OH236127   3.107   5.887   0.872
12057TIP3    H136128   3.030   5.927   0.831
12057TIP3    H236129   3.175   5.891   0.805
12058TIP3   OH236130   7.468   7.514   3.577
12058TIP3    H136131   7.388   7.534   3.529
12058TIP3    H236132   7.525   7.589   3.561
12059TIP3   OH236133   5.435   1.950   6.720
12059TIP3    H136134   5.467   2.034   6.753
12059TIP3    H236135   5.510   1.911   6.676
12060TIP3   OH236136   6.527   7.577   0.250
12060TIP3    H136137   6.446   7.531   0.272
12060TIP3    H236138   6.510   7.668   0.273
12061TIP3   OH236139   1.446   1.118   3.645
12061TIP3    H136140   1.414   1.118   3.735
12061TIP3    H236141   1.540   1.100   3.653
12062TIP3   OH236142   2.929   0.163   6.275
12062TIP3    H136143   2.970   0.223   6.337
12062TIP3    H236144   2.981   0.173   6.194
12063TIP3   OH236145   1.050   4.762   3.343
12063TIP3    H136146   1.057   4.670   3.366
12063TIP3    H236147   1.081   4.767   3.252
12064TIP3   OH236148   2.920   1.787   5.973
12064TIP3    H136149   2.985   1.854   5.996
12064TIP3    H236150   2.877   1.821   5.895
12065TIP3   OH236151   6.143   6.098   3.789
12065TIP3    H136152   6.088   6.087   3.867
12065TIP3    H236153   6.180   6.186   3.798
12066TIP3   OH236154   1.007   6.885   1.092
12066TIP3    H136155   1.022   6.907   1.000
12066TIP3    H236156   0.940   6.947   1.121
12067TIP3   OH236157   1.834   4.563   6.689
12067TIP3    H136158   1.849   4.507   6.766
12067TIP3    H236159   1.922   4.588   6.661
12068TIP3   OH236160   7.447   3.229   3.368
12068TIP3    H136161   7.512   3.241   3.298
12068TIP3    H236162   7.402   3.313   3.373
12069TIP3   OH236163   0.834   5.531   0.689
12069TIP3    H136164   0.759   5.493   0.643
12069TIP3    H236165   0.888   5.569   0.620
12070TIP3   OH236166   7.801   3.440   3.494
12070TIP3    H136167   7.743   3.511   3.522
12070TIP3    H236168   7.754   3.360   3.521
12071TIP3   OH236169   6.153   2.052   5.811
12071TIP3    H136170   6.109   2.004   5.881
12071TIP3    H236171   6.244   2.025   5.817
12072TIP3   OH236172   6.083   6.408   6.279
12072TIP3    H136173   6.043   6.325   6.253
12072TIP3    H236174   6.009   6.463   6.304
12073TIP3   OH236175   1.572   2.503   3.908
12073TIP3    H136176   1.549   2.580   3.959
12073TIP3    H236177   1.496   2.488   3.852
12074TIP3   OH236178   1.157   5.026   1.647
12074TIP3    H136179   1.233   5.039   1.704
12074TIP3    H236180   1.087   5.078   1.688
12075TIP3   OH236181   6.378   0.857   3.649
12075TIP3    H136182   6.283   0.865   3.639
12075TIP3    H236183   6.413   0.872   3.562
12076TIP3   OH236184   4.040   4.030   0.482
12076TIP3    H136185   4.104   4.063   0.544
12076TIP3    H236186   4.070   3.942   0.461
12077TIP3   OH236187   7.383   5.573   5.827
12077TIP3    H136188   7.339   5.501   5.872
12077TIP3    H236189   7.325   5.594   5.753
12078TIP3   OH236190   4.801   2.186   1.245
12078TIP3    H136191   4.821   2.148   1.160
12078TIP3    H236192   4.825   2.278   1.237
12079TIP3   OH236193   8.080   1.398   3.033
12079TIP3    H136194   7.998   1.350   3.034
12079TIP3    H236195   8.143   1.337   2.992
12080TIP3   OH236196   5.331   5.174   4.123
12080TIP3    H136197   5.313   5.260   4.086
12080TIP3    H236198   5.348   5.191   4.216
12081TIP3   OH236199   6.163   1.946   1.324
12081TIP3    H136200   6.091   1.889   1.350
12081TIP3    H236201   6.239   1.912   1.370
12082TIP3   OH236202   5.220   1.387   0.427
12082TIP3    H136203   5.165   1.371   0.350
12082TIP3    H236204   5.282   1.315   0.428
12083TIP3   OH236205   4.851   4.901   0.299
12083TIP3    H136206   4.820   4.821   0.340
12083TIP3    H236207   4.878   4.956   0.373
12084TIP3   OH236208   5.442   2.844   0.349
12084TIP3    H136209   5.367   2.903   0.344
12084TIP3    H236210   5.422   2.786   0.422
12085TIP3   OH236211   7.559   0.495   1.104
12085TIP3    H136212   7.599   0.581   1.091
12085TIP3    H236213   7.546   0.488   1.198
12086TIP3   OH236214   2.058   5.799   2.867
12086TIP3    H136215   2.143   5.806   2.912
12086TIP3    H236216   1.994   5.821   2.934
12087TIP3   OH236217   3.789   4.877   4.757
12087TIP3    H136218   3.726   4.805   4.760
12087TIP3    H236219   3.875   4.835   4.754
12088TIP3   OH236220   3.482   4.917   5.755
12088TIP3    H136221   3.575   4.913   5.779
12088TIP3    H236222   3.437   4.869   5.824
12089TIP3   OH236223   4.120   4.490   5.381
12089TIP3    H136224   4.116   4.495   5.285
12089TIP3    H236225   4.201   4.535   5.403
12090TIP3   OH236226   6.713   3.851   0.320
12090TIP3    H136227   6.721   3.856   0.415
12090TIP3    H236228   6.795   3.811   0.290
12091TIP3   OH236229   8.216   7.413   6.692
12091TIP3    H136230   8.181   7.409   6.781
12091TIP3    H236231   8.151   7.368   6.638
12092TIP3   OH236232   2.107   2.873   0.946
12092TIP3    H136233   2.114   2.795   0.891
12092TIP3    H236234   2.158   2.852   1.024
12093TIP3   OH236235   3.990   6.345   3.066
12093TIP3    H136236   3.911   6.391   3.097
12093TIP3    H236237   4.062   6.404   3.088
12094TIP3   OH236238   7.003   6.949   3.729
12094TIP3    H136239   6.984   7.024   3.672
12094TIP3    H236240   7.081   6.909   3.690
12095TIP3   OH236241   1.985   4.084   5.171
12095TIP3    H136242   1.927   4.132   5.230
12095TIP3    H236243   1.958   3.993   5.179
12096TIP3   OH236244   8.166   0.400   0.737
12096TIP3    H136245   8.074   0.388   0.712
12096TIP3    H236246   8.185   0.491   0.715
12097TIP3   OH236247   7.640   4.543   6.561
12097TIP3    H136248   7.687   4.526   6.479
12097TIP3    H236249   7.548   4.535   6.538
12098TIP3   OH236250   0.521   4.229   0.542
12098TIP3    H136251   0.581   4.293   0.581
12098TIP3    H236252   0.441   4.279   0.525
12099TIP3   OH236253   4.009   1.615   5.502
12099TIP3    H136254   3.953   1.537   5.495
12099TIP3    H236255   4.098   1.581   5.499
12100TIP3   OH236256   6.482   6.244   1.697
12100TIP3    H136257   6.435   6.306   1.753
12100TIP3    H236258   6.536   6.193   1.757
12101TIP3   OH236259   5.000   6.797   3.088
12101TIP3    H136260   4.986   6.772   3.179
12101TIP3    H236261   4.913   6.795   3.049
12102TIP3   OH236262   5.599   3.324   5.212
12102TIP3    H136263   5.563   3.244   5.251
12102TIP3    H236264   5.568   3.323   5.122
12103TIP3   OH236265   4.746   5.597   2.903
12103TIP3    H136266   4.776   5.665   2.963
12103TIP3    H236267   4.823   5.541   2.890
12104TIP3   OH236268   5.673   0.798   0.796
12104TIP3    H136269   5.760   0.759   0.791
12104TIP3    H236270   5.617   0.727   0.829
12105TIP3   OH236271   7.119   3.039   4.909
12105TIP3    H136272   7.132   2.975   4.839
12105TIP3    H236273   7.053   3.099   4.874
12106TIP3   OH236274   7.197   6.955   1.464
12106TIP3    H136275   7.247   6.960   1.383
12106TIP3    H236276   7.195   7.044   1.497
12107TIP3   OH236277   6.038   5.532   3.043
12107TIP3    H136278   6.099   5.543   2.971
12107TIP3    H236279   6.091   5.546   3.122
12108TIP3   OH236280   0.250   3.976   4.739
12108TIP3    H136281   0.335   3.940   4.764
12108TIP3    H236282   0.211   4.004   4.822
12109TIP3   OH236283   7.121   3.739   4.036
12109TIP3    H136284   7.055   3.766   3.972
12109TIP3    H236285   7.160   3.821   4.065
12110TIP3   OH236286   5.766   4.482   1.367
12110TIP3    H136287   5.705   4.515   1.433
12110TIP3    H236288   5.779   4.556   1.308
12111TIP3   OH236289   3.169   3.861   2.754
12111TIP3    H136290   3.160   3.905   2.839
12111TIP3    H236291   3.137   3.924   2.690
12112TIP3   OH236292   1.619   6.963   6.148
12112TIP3    H136293   1.671   6.920   6.217
12112TIP3    H236294   1.656   6.930   6.066
12113TIP3   OH236295   4.296   0.929   4.912
12113TIP3    H136296   4.217   0.893   4.873
12113TIP3    H236297   4.335   0.982   4.842
12114TIP3   OH236298   5.593   4.588   6.736
12114TIP3    H136299   5.631   4.500   6.728
12114TIP3    H236300   5.584   4.602   6.830
12115TIP3   OH236301   5.192   4.368   5.610
12115TIP3    H136302   5.287   4.360   5.612
12115TIP3    H236303   5.172   4.438   5.672
12116TIP3   OH236304   2.855   6.211   6.200
12116TIP3    H136305   2.896   6.291   6.231
12116TIP3    H236306   2.887   6.201   6.110
12117TIP3   OH236307   2.042   5.087   5.560
12117TIP3    H136308   1.972   5.040   5.514
12117TIP3    H236309   2.051   5.169   5.511
12118TIP3   OH236310   4.075   5.738   3.393
12118TIP3    H136311   4.001   5.799   3.400
12118TIP3    H236312   4.148   5.783   3.435
12119TIP3   OH236313   3.633   4.639   6.048
12119TIP3    H136314   3.555   4.654   5.994
12119TIP3    H236315   3.684   4.575   5.999
12120TIP3   OH236316   6.206   5.489   4.713
12120TIP3    H136317   6.238   5.480   4.623
12120TIP3    H236318   6.183   5.582   4.721
12121TIP3   OH236319   1.463   4.456   1.932
12121TIP3    H136320   1.440   4.376   1.885
12121TIP3    H236321   1.480   4.521   1.864
12122TIP3   OH236322   5.438   6.214   1.798
12122TIP3    H136323   5.452   6.282   1.864
12122TIP3    H236324   5.344   6.212   1.785
12123TIP3   OH236325   4.182   5.563   5.298
12123TIP3    H136326   4.259   5.515   5.266
12123TIP3    H236327   4.219   5.642   5.337
12124TIP3   OH236328   6.438   1.351   0.317
12124TIP3    H136329   6.369   1.285   0.311
12124TIP3    H236330   6.429   1.387   0.406
12125TIP3   OH236331   5.053   5.761   6.736
12125TIP3    H136332   5.096   5.761   6.822
12125TIP3    H236333   4.960   5.746   6.756
12126TIP3   OH236334   1.266   1.775   2.856
12126TIP3    H136335   1.216   1.841   2.906
12126TIP3    H236336   1.230   1.779   2.768
12127TIP3   OH236337   3.721   6.707   4.460
12127TIP3    H136338   3.680   6.776   4.407
12127TIP3    H236339   3.659   6.634   4.456
12128TIP3   OH236340   3.130   2.418   3.467
12128TIP3    H136341   3.209   2.373   3.497
12128TIP3    H236342   3.086   2.445   3.548
12129TIP3   OH236343   0.215   6.652   5.894
12129TIP3    H136344   0.152   6.717   5.862
12129TIP3    H236345   0.264   6.698   5.962
12130TIP3   OH236346   3.097   3.328   6.626
12130TIP3    H136347   3.023   3.284   6.669
12130TIP3    H236348   3.057   3.373   6.551
12131TIP3   OH236349   1.567   4.246   1.316
12131TIP3    H136350   1.566   4.195   1.397
12131TIP3    H236351   1.558   4.181   1.247
12132TIP3   OH236352   3.863   2.221   2.032
12132TIP3    H136353   3.822   2.175   1.959
12132TIP3    H236354   3.954   2.190   2.032
12133TIP3   OH236355   6.991   1.885   3.468
12133TIP3    H136356   7.076   1.890   3.424
12133TIP3    H236357   6.947   1.966   3.443
12134TIP3   OH236358   2.642   2.598   5.027
12134TIP3    H136359   2.680   2.681   5.058
12134TIP3    H236360   2.550   2.618   5.011
12135TIP3   OH236361   7.673   4.130   4.152
12135TIP3    H136362   7.625   4.058   4.110
12135TIP3    H236363   7.645   4.126   4.244
12136TIP3   OH236364   2.315   4.992   4.768
12136TIP3    H136365   2.274   5.061   4.716
12136TIP3    H236366   2.409   5.003   4.752
12137TIP3   OH236367   4.597   4.390   2.403
12137TIP3    H136368   4.524   4.359   2.349
12137TIP3    H236369   4.675   4.374   2.351
12138TIP3   OH236370   7.213   7.650   3.085
12138TIP3    H136371   7.194   7.724   3.029
12138TIP3    H236372   7.139   7.591   3.074
12139TIP3   OH236373   3.781   3.349   0.512
12139TIP3    H136374   3.693   3.375   0.489
12139TIP3    H236375   3.795   3.385   0.600
12140TIP3   OH236376   1.686   7.383   6.561
12140TIP3    H136377   1.684   7.432   6.643
12140TIP3    H236378   1.718   7.446   6.496
12141TIP3   OH236379   5.687   4.998   4.657
12141TIP3    H136380   5.747   5.037   4.721
12141TIP3    H236381   5.650   5.073   4.610
12142TIP3   OH236382   7.626   3.525   6.113
12142TIP3    H136383   7.601   3.487   6.197
12142TIP3    H236384   7.610   3.454   6.050
12143TIP3   OH236385   1.147   2.592   4.938
12143TIP3    H136386   1.220   2.535   4.961
12143TIP3    H236387   1.072   2.554   4.984
12144TIP3   OH236388   6.520   5.234   6.204
12144TIP3    H136389   6.567   5.281   6.273
12144TIP3    H236390   6.445   5.195   6.249
12145TIP3   OH236391   5.948   4.522   4.499
12145TIP3    H136392   5.979   4.586   4.563
12145TIP3    H236393   5.967   4.563   4.414
12146TIP3   OH236394   5.520   0.259   4.554
12146TIP3    H136395   5.464   0.321   4.601
12146TIP3    H236396   5.586   0.314   4.512
12147TIP3   OH236397   6.698   1.263   4.995
12147TIP3    H136398   6.667   1.218   5.074
12147TIP3    H236399   6.702   1.194   4.928
12148TIP3   OH236400   7.298   1.166   5.654
12148TIP3    H136401   7.311   1.130   5.742
12148TIP3    H236402   7.386   1.171   5.618
12149TIP3   OH236403   7.836   5.398   6.628
12149TIP3    H136404   7.817   5.455   6.553
12149TIP3    H236405   7.783   5.320   6.612
12150TIP3   OH236406   1.353   5.871   6.408
12150TIP3    H136407   1.385   5.936   6.470
12150TIP3    H236408   1.283   5.826   6.456
12151TIP3   OH236409   2.894   0.131   5.216
12151TIP3    H136410   2.902   0.114   5.122
12151TIP3    H236411   2.801   0.119   5.235
12152TIP3   OH236412   3.579   6.834   3.285
12152TIP3    H136413   3.529   6.769   3.335
12152TIP3    H236414   3.651   6.858   3.343
12153TIP3   OH236415   4.639   4.853   6.033
12153TIP3    H136416   4.726   4.814   6.034
12153TIP3    H236417   4.580   4.781   6.054
12154TIP3   OH236418   8.248   7.209   3.615
12154TIP3    H136419   8.341   7.187   3.613
12154TIP3    H236420   8.214   7.174   3.533
12155TIP3   OH236421   7.287   3.723   0.459
12155TIP3    H136422   7.371   3.745   0.499
12155TIP3    H236423   7.258   3.644   0.505
12156TIP3   OH236424   1.163   1.918   4.504
12156TIP3    H136425   1.223   1.986   4.533
12156TIP3    H236426   1.177   1.912   4.410
12157TIP3   OH236427   4.454   1.093   1.320
12157TIP3    H136428   4.436   1.005   1.354
12157TIP3    H236429   4.412   1.094   1.234
12158TIP3   OH236430   1.917   3.410   0.151
12158TIP3    H136431   2.000   3.365   0.166
12158TIP3    H236432   1.855   3.341   0.127
12159TIP3   OH236433   4.542   3.896   6.787
12159TIP3    H136434   4.529   3.812   6.832
12159TIP3    H236435   4.596   3.875   6.711
12160TIP3   OH236436   7.489   4.932   1.544
12160TIP3    H136437   7.466   4.884   1.465
12160TIP3    H236438   7.551   4.875   1.589
12161TIP3   OH236439   0.745   2.698   3.783
12161TIP3    H136440   0.753   2.736   3.870
12161TIP3    H236441   0.834   2.670   3.761
12162TIP3   OH236442   0.321   2.957   1.885
12162TIP3    H136443   0.233   2.962   1.848
12162TIP3    H236444   0.315   3.001   1.970
12163TIP3   OH236445   6.512   2.151   3.211
12163TIP3    H136446   6.551   2.081   3.159
12163TIP3    H236447   6.556   2.230   3.181
12164TIP3   OH236448   1.478   2.865   6.040
12164TIP3    H136449   1.542   2.811   6.086
12164TIP3    H236450   1.493   2.845   5.947
12165TIP3   OH236451   0.467   5.235   2.704
12165TIP3    H136452   0.463   5.320   2.660
12165TIP3    H236453   0.538   5.188   2.660
12166TIP3   OH236454   2.067   3.381   1.639
12166TIP3    H136455   1.981   3.422   1.649
12166TIP3    H236456   2.128   3.454   1.635
12167TIP3   OH236457   5.126   7.371   5.582
12167TIP3    H136458   5.143   7.416   5.499
12167TIP3    H236459   5.030   7.368   5.589
12168TIP3   OH236460   1.770   5.128   2.386
12168TIP3    H136461   1.736   5.135   2.476
12168TIP3    H236462   1.693   5.142   2.331
12169TIP3   OH236463   7.207   4.664   6.344
12169TIP3    H136464   7.269   4.732   6.369
12169TIP3    H236465   7.252   4.581   6.363
12170TIP3   OH236466   7.174   2.231   5.137
12170TIP3    H136467   7.229   2.289   5.190
12170TIP3    H236468   7.139   2.168   5.200
12171TIP3   OH236469   5.773   3.720   1.520
12171TIP3    H136470   5.800   3.629   1.533
12171TIP3    H236471   5.832   3.771   1.576
12172TIP3   OH236472   1.899   6.847   2.521
12172TIP3    H136473   1.904   6.910   2.592
12172TIP3    H236474   1.986   6.851   2.479
12173TIP3   OH236475   0.159   2.067   2.098
12173TIP3    H136476   0.117   2.126   2.035
12173TIP3    H236477   0.253   2.078   2.083
12174TIP3   OH236478   3.514   7.764   4.609
12174TIP3    H136479   3.603   7.784   4.639
12174TIP3    H236480   3.508   7.668   4.616
12175TIP3   OH236481   3.337   2.525   0.067
12175TIP3    H136482   3.266   2.568   0.115
12175TIP3    H236483   3.352   2.582  -0.008
12176TIP3   OH236484   8.195   1.507   5.116
12176TIP3    H136485   8.126   1.441   5.105
12176TIP3    H236486   8.227   1.493   5.205
12177TIP3   OH236487   4.110   2.268   2.736
12177TIP3    H136488   4.140   2.351   2.773
12177TIP3    H236489   4.169   2.251   2.663
12178TIP3   OH236490   2.798   2.052   2.671
12178TIP3    H136491   2.823   2.138   2.703
12178TIP3    H236492   2.878   2.015   2.635
12179TIP3   OH236493   4.664   0.718   5.274
12179TIP3    H136494   4.637   0.713   5.182
12179TIP3    H236495   4.630   0.638   5.313
12180TIP3   OH236496   6.993   1.782   1.716
12180TIP3    H136497   6.988   1.875   1.693
12180TIP3    H236498   7.046   1.743   1.646
12181TIP3   OH236499   5.395   4.452   5.984
12181TIP3    H136500   5.403   4.387   5.914
12181TIP3    H236501   5.322   4.420   6.037
12182TIP3   OH236502   1.888   5.575   6.468
12182TIP3    H136503   1.866   5.596   6.559
12182TIP3    H236504   1.913   5.659   6.429
12183TIP3   OH236505   6.357   1.851   3.619
12183TIP3    H136506   6.354   1.910   3.543
12183TIP3    H236507   6.419   1.783   3.593
12184TIP3   OH236508   7.133   0.084   4.586
12184TIP3    H136509   7.059   0.099   4.528
12184TIP3    H236510   7.102   0.019   4.649
12185TIP3   OH236511   2.155   1.615   2.308
12185TIP3    H136512   2.160   1.621   2.212
12185TIP3    H236513   2.167   1.523   2.327
12186TIP3   OH236514   2.554   6.145   0.238
12186TIP3    H136515   2.520   6.060   0.209
12186TIP3    H236516   2.503   6.165   0.316
12187TIP3   OH236517   4.359   0.021   0.477
12187TIP3    H136518   4.268   0.007   0.453
12187TIP3    H236519   4.382   0.104   0.436
12188TIP3   OH236520   1.786   6.836   1.536
12188TIP3    H136521   1.853   6.882   1.586
12188TIP3    H236522   1.784   6.748   1.574
12189TIP3   OH236523   1.075   2.276   0.731
12189TIP3    H136524   0.994   2.299   0.687
12189TIP3    H236525   1.090   2.348   0.793
12190TIP3   OH236526   8.241   3.851   4.418
12190TIP3    H136527   8.153   3.879   4.443
12190TIP3    H236528   8.299   3.897   4.479
12191TIP3   OH236529   4.970   6.019   6.143
12191TIP3    H136530   4.928   6.077   6.207
12191TIP3    H236531   5.052   6.062   6.121
12192TIP3   OH236532   2.830   0.372   0.892
12192TIP3    H136533   2.779   0.299   0.926
12192TIP3    H236534   2.808   0.446   0.949
12193TIP3   OH236535   2.659   2.829   1.438
12193TIP3    H136536   2.641   2.740   1.469
12193TIP3    H236537   2.587   2.847   1.377
12194TIP3   OH236538   4.922   6.848   6.522
12194TIP3    H136539   4.949   6.808   6.439
12194TIP3    H236540   4.874   6.926   6.496
12195TIP3   OH236541   1.514   1.722   1.825
12195TIP3    H136542   1.493   1.791   1.887
12195TIP3    H236543   1.570   1.763   1.760
12196TIP3   OH236544   7.830   6.133   1.563
12196TIP3    H136545   7.752   6.165   1.517
12196TIP3    H236546   7.875   6.078   1.499
12197TIP3   OH236547   2.835   5.044   3.909
12197TIP3    H136548   2.777   5.040   3.832
12197TIP3    H236549   2.914   4.999   3.882
12198TIP3   OH236550   2.215   2.529   2.413
12198TIP3    H136551   2.285   2.475   2.449
12198TIP3    H236552   2.260   2.595   2.360
12199TIP3   OH236553   4.206   0.511   1.776
12199TIP3    H136554   4.128   0.563   1.756
12199TIP3    H236555   4.222   0.460   1.697
12200TIP3   OH236556   3.311   2.829   6.511
12200TIP3    H136557   3.370   2.792   6.578
12200TIP3    H236558   3.245   2.876   6.561
12201TIP3   OH236559   2.942   2.897   0.808
12201TIP3    H136560   2.924   2.822   0.866
12201TIP3    H236561   3.008   2.865   0.747
12202TIP3   OH236562   1.121   6.665   6.514
12202TIP3    H136563   1.203   6.628   6.546
12202TIP3    H236564   1.087   6.600   6.453
12203TIP3   OH236565   7.698   2.236   5.798
12203TIP3    H136566   7.656   2.313   5.835
12203TIP3    H236567   7.746   2.269   5.722
12204TIP3   OH236568   6.462   5.273   1.524
12204TIP3    H136569   6.525   5.226   1.469
12204TIP3    H236570   6.494   5.262   1.613
12205TIP3   OH236571   7.047   7.086   1.769
12205TIP3    H136572   7.014   7.002   1.736
12205TIP3    H236573   6.974   7.146   1.759
12206TIP3   OH236574   4.141   6.908   2.169
12206TIP3    H136575   4.095   6.941   2.093
12206TIP3    H236576   4.231   6.939   2.159
12207TIP3   OH236577   3.853   6.783   4.877
12207TIP3    H136578   3.797   6.708   4.896
12207TIP3    H236579   3.925   6.746   4.826
12208TIP3   OH236580   2.685   2.854   4.040
12208TIP3    H136581   2.667   2.936   4.084
12208TIP3    H236582   2.622   2.850   3.968
12209TIP3   OH236583   2.465   7.148   4.879
12209TIP3    H136584   2.546   7.099   4.869
12209TIP3    H236585   2.411   7.121   4.805
12210TIP3   OH236586   6.028   6.043   0.371
12210TIP3    H136587   6.097   6.029   0.436
12210TIP3    H236588   5.953   6.076   0.421
12211TIP3   OH236589   7.282   4.660   4.317
12211TIP3    H136590   7.309   4.735   4.265
12211TIP3    H236591   7.193   4.681   4.346
12212TIP3   OH236592   8.286   1.078   2.748
12212TIP3    H136593   8.224   1.074   2.675
12212TIP3    H236594   8.288   0.989   2.783
12213TIP3   OH236595   7.332   4.417   1.027
12213TIP3    H136596   7.275   4.458   1.092
12213TIP3    H236597   7.315   4.323   1.037
12214TIP3   OH236598   3.610   5.987   5.056
12214TIP3    H136599   3.686   6.010   5.002
12214TIP3    H236600   3.541   5.966   4.993
12215TIP3   OH236601   3.560   7.166   6.069
12215TIP3    H136602   3.622   7.154   6.140
12215TIP3    H236603   3.493   7.224   6.106
12216TIP3   OH236604   1.974   2.849   5.443
12216TIP3    H136605   2.039   2.779   5.454
12216TIP3    H236606   1.991   2.909   5.515
12217TIP3   OH236607   6.659   4.222   2.780
12217TIP3    H136608   6.605   4.262   2.712
12217TIP3    H236609   6.672   4.132   2.751
12218TIP3   OH236610   4.774   6.970   5.573
12218TIP3    H136611   4.867   6.953   5.589
12218TIP3    H236612   4.728   6.897   5.613
12219TIP3   OH236613   4.142   0.963   1.776
12219TIP3    H136614   4.140   0.897   1.845
12219TIP3    H236615   4.108   1.042   1.818
12220TIP3   OH236616   8.085   7.560   1.081
12220TIP3    H136617   8.177   7.587   1.087
12220TIP3    H236618   8.061   7.537   1.171
12221TIP3   OH236619   4.878   3.705   1.555
12221TIP3    H136620   4.838   3.644   1.493
12221TIP3    H236621   4.868   3.791   1.515
12222TIP3   OH236622   1.400   4.788   4.087
12222TIP3    H136623   1.401   4.726   4.014
12222TIP3    H236624   1.480   4.840   4.075
12223TIP3   OH236625   1.812   7.110   1.870
12223TIP3    H136626   1.832   7.071   1.955
12223TIP3    H236627   1.766   7.192   1.892
12224TIP3   OH236628   5.100   0.420   3.506
12224TIP3    H136629   5.030   0.464   3.554
12224TIP3    H236630   5.158   0.492   3.479
12225TIP3   OH236631   7.694   1.780   5.011
12225TIP3    H136632   7.787   1.760   5.002
12225TIP3    H236633   7.692   1.866   5.053
12226TIP3   OH236634   6.887   5.589   0.152
12226TIP3    H136635   6.903   5.577   0.058
12226TIP3    H236636   6.820   5.657   0.157
12227TIP3   OH236637   3.623   1.685   3.200
12227TIP3    H136638   3.717   1.669   3.199
12227TIP3    H236639   3.588   1.624   3.264
12228TIP3   OH236640   0.919   3.669   3.392
12228TIP3    H136641   0.996   3.704   3.436
12228TIP3    H236642   0.853   3.738   3.402
12229TIP3   OH236643   4.195   3.571   5.461
12229TIP3    H136644   4.130   3.503   5.479
12229TIP3    H236645   4.145   3.643   5.422
12230TIP3   OH236646   1.394   2.690   0.037
12230TIP3    H136647   1.373   2.597   0.041
12230TIP3    H236648   1.482   2.697   0.073
12231TIP3   OH236649   3.277   4.939   0.799
12231TIP3    H136650   3.225   4.976   0.728
12231TIP3    H236651   3.283   4.845   0.778
12232TIP3   OH236652   1.092   1.725   5.086
12232TIP3    H136653   1.066   1.672   5.010
12232TIP3    H236654   1.010   1.739   5.134
12233TIP3   OH236655   0.263   1.477   0.440
12233TIP3    H136656   0.298   1.437   0.361
12233TIP3    H236657   0.340   1.498   0.493
12234TIP3   OH236658   1.367   3.658   3.194
12234TIP3    H136659   1.302   3.648   3.125
12234TIP3    H236660   1.324   3.625   3.273
12235TIP3   OH236661   1.975   0.262   4.337
12235TIP3    H136662   2.048   0.219   4.382
12235TIP3    H236663   1.899   0.243   4.392
12236TIP3   OH236664   2.095   2.438   5.724
12236TIP3    H136665   2.041   2.516   5.721
12236TIP3    H236666   2.051   2.376   5.666
12237TIP3   OH236667   7.326   2.376   6.015
12237TIP3    H136668   7.310   2.451   6.072
12237TIP3    H236669   7.258   2.314   6.037
12238TIP3   OH236670   6.240   7.661   2.285
12238TIP3    H136671   6.197   7.718   2.221
12238TIP3    H236672   6.281   7.721   2.347
12239TIP3   OH236673   6.936   3.863   2.157
12239TIP3    H136674   6.857   3.897   2.115
12239TIP3    H236675   7.006   3.920   2.125
12240TIP3   OH236676   2.995   6.888   3.452
12240TIP3    H136677   2.929   6.845   3.399
12240TIP3    H236678   2.964   6.880   3.542
12241TIP3   OH236679   1.207   6.526   3.525
12241TIP3    H136680   1.139   6.484   3.576
12241TIP3    H236681   1.285   6.523   3.581
12242TIP3   OH236682   8.086   6.006   6.780
12242TIP3    H136683   8.110   6.097   6.795
12242TIP3    H236684   8.031   6.008   6.701
12243TIP3   OH236685   4.919   2.293   5.273
12243TIP3    H136686   4.961   2.257   5.351
12243TIP3    H236687   4.961   2.378   5.259
12244TIP3   OH236688   7.581   0.427   0.424
12244TIP3    H136689   7.587   0.512   0.381
12244TIP3    H236690   7.643   0.371   0.377
12245TIP3   OH236691   2.709   0.135   0.957
12245TIP3    H136692   2.626   0.182   0.963
12245TIP3    H236693   2.704   0.069   1.026
12246TIP3   OH236694   3.956   3.533   6.593
12246TIP3    H136695   3.882   3.475   6.611
12246TIP3    H236696   3.939   3.566   6.505
12247TIP3   OH236697   4.327   6.808   2.645
12247TIP3    H136698   4.321   6.881   2.583
12247TIP3    H236699   4.257   6.823   2.707
12248TIP3   OH236700   0.649   0.567   5.240
12248TIP3    H136701   0.743   0.567   5.258
12248TIP3    H236702   0.639   0.506   5.167
12249TIP3   OH236703   7.403   4.951   2.586
12249TIP3    H136704   7.366   4.949   2.498
12249TIP3    H236705   7.403   4.859   2.614
12250TIP3   OH236706   6.079   6.745   4.849
12250TIP3    H136707   6.130   6.672   4.815
12250TIP3    H236708   6.058   6.798   4.772
12251TIP3   OH236709   2.302   4.160   0.423
12251TIP3    H136710   2.266   4.081   0.384
12251TIP3    H236711   2.241   4.182   0.493
12252TIP3   OH236712   5.995   3.984   4.648
12252TIP3    H136713   6.077   3.940   4.667
12252TIP3    H236714   5.930   3.914   4.646
12253TIP3   OH236715   7.973   4.077   4.097
12253TIP3    H136716   7.992   4.019   4.023
12253TIP3    H236717   7.878   4.088   4.096
12254TIP3   OH236718   4.400   1.722   2.017
12254TIP3    H136719   4.395   1.629   2.042
12254TIP3    H236720   4.332   1.732   1.951
12255TIP3   OH236721   4.049   7.552   5.149
12255TIP3    H136722   4.014   7.561   5.238
12255TIP3    H236723   4.143   7.540   5.162
12256TIP3   OH236724   8.059   7.431   2.786
12256TIP3    H136725   8.063   7.526   2.794
12256TIP3    H236726   7.966   7.411   2.776
12257TIP3   OH236727   6.735   2.126   5.908
12257TIP3    H136728   6.746   2.031   5.903
12257TIP3    H236729   6.693   2.141   5.993
12258TIP3   OH236730   2.676   2.567   2.985
12258TIP3    H136731   2.741   2.513   2.940
12258TIP3    H236732   2.722   2.649   3.005
12259TIP3   OH236733   4.511   7.244   0.741
12259TIP3    H136734   4.538   7.188   0.668
12259TIP3    H236735   4.464   7.186   0.801
12260TIP3   OH236736   7.570   3.375   1.079
12260TIP3    H136737   7.637   3.434   1.113
12260TIP3    H236738   7.525   3.425   1.010
12261TIP3   OH236739   6.004   1.414   5.364
12261TIP3    H136740   6.055   1.333   5.360
12261TIP3    H236741   5.933   1.394   5.426
12262TIP3   OH236742   6.556   4.901   1.915
12262TIP3    H136743   6.518   4.816   1.890
12262TIP3    H236744   6.595   4.934   1.835
12263TIP3   OH236745   2.345   3.946   0.863
12263TIP3    H136746   2.405   3.875   0.887
12263TIP3    H236747   2.402   4.020   0.845
12264TIP3   OH236748   7.404   3.505   0.895
12264TIP3    H136749   7.456   3.489   0.816
12264TIP3    H236750   7.363   3.590   0.879
12265TIP3   OH236751   5.025   0.630   4.503
12265TIP3    H136752   5.115   0.661   4.507
12265TIP3    H236753   5.010   0.590   4.589
12266TIP3   OH236754   0.741   4.035   6.693
12266TIP3    H136755   0.713   3.954   6.736
12266TIP3    H236756   0.814   4.008   6.636
12267TIP3   OH236757   5.424   1.774   4.068
12267TIP3    H136758   5.338   1.788   4.029
12267TIP3    H236759   5.407   1.756   4.160
12268TIP3   OH236760   3.465   5.062   3.085
12268TIP3    H136761   3.542   5.013   3.056
12268TIP3    H236762   3.450   5.032   3.175
12269TIP3   OH236763   3.905   0.918   0.828
12269TIP3    H136764   3.867   0.878   0.750
12269TIP3    H236765   3.940   1.002   0.797
12270TIP3   OH236766   7.653   5.420   2.448
12270TIP3    H136767   7.603   5.341   2.431
12270TIP3    H236768   7.616   5.486   2.389
12271TIP3   OH236769   1.073   6.350   6.717
12271TIP3    H136770   0.996   6.405   6.701
12271TIP3    H236771   1.050   6.266   6.677
12272TIP3   OH236772   1.070   7.091   4.644
12272TIP3    H136773   1.052   7.181   4.668
12272TIP3    H236774   1.045   7.084   4.552
12273TIP3   OH236775   4.211   5.057   3.277
12273TIP3    H136776   4.265   5.120   3.229
12273TIP3    H236777   4.174   5.001   3.209
12274TIP3   OH236778   5.028   2.712   3.572
12274TIP3    H136779   5.114   2.690   3.536
12274TIP3    H236780   4.965   2.676   3.509
12275TIP3   OH236781   6.940   1.388   6.140
12275TIP3    H136782   6.941   1.333   6.062
12275TIP3    H236783   7.018   1.443   6.131
12276TIP3   OH236784   1.244   2.635   3.009
12276TIP3    H136785   1.155   2.663   2.989
12276TIP3    H236786   1.299   2.705   2.974
12277TIP3   OH236787   8.009   3.404   1.436
12277TIP3    H136788   7.949   3.450   1.378
12277TIP3    H236789   7.955   3.340   1.482
12278TIP3   OH236790   4.637   3.072   0.034
12278TIP3    H136791   4.599   3.026   0.109
12278TIP3    H236792   4.564   3.089  -0.024
12279TIP3   OH236793   5.321   1.556   6.753
12279TIP3    H136794   5.294   1.616   6.684
12279TIP3    H236795   5.381   1.607   6.807
12280TIP3   OH236796   7.097   4.509   4.159
12280TIP3    H136797   7.060   4.584   4.113
12280TIP3    H236798   7.174   4.543   4.203
12281TIP3   OH236799   7.635   1.522   6.273
12281TIP3    H136800   7.640   1.568   6.189
12281TIP3    H236801   7.545   1.537   6.303
12282TIP3   OH236802   4.887   4.483   3.303
12282TIP3    H136803   4.908   4.559   3.358
12282TIP3    H236804   4.910   4.407   3.356
12283TIP3   OH236805   4.843   5.712   2.383
12283TIP3    H136806   4.898   5.717   2.461
12283TIP3    H236807   4.785   5.788   2.389
12284TIP3   OH236808   0.028   0.941   6.000
12284TIP3    H136809   0.060   0.909   6.084
12284TIP3    H236810   0.024   0.863   5.945
12285TIP3   OH236811   5.562   4.044   2.249
12285TIP3    H136812   5.526   3.972   2.300
12285TIP3    H236813   5.645   4.010   2.214
12286TIP3   OH236814   5.797   7.380   5.813
12286TIP3    H136815   5.719   7.413   5.767
12286TIP3    H236816   5.839   7.321   5.750
12287TIP3   OH236817   5.788   2.229   0.463
12287TIP3    H136818   5.862   2.289   0.459
12287TIP3    H236819   5.798   2.184   0.546
12288TIP3   OH236820   1.063   2.044   0.882
12288TIP3    H136821   1.105   2.085   0.957
12288TIP3    H236822   1.067   2.110   0.813
12289TIP3   OH236823   3.779   6.656   0.423
12289TIP3    H136824   3.700   6.701   0.453
12289TIP3    H236825   3.748   6.601   0.351
12290TIP3   OH236826   4.754   5.933   3.428
12290TIP3    H136827   4.785   5.882   3.502
12290TIP3    H236828   4.807   5.902   3.354
12291TIP3   OH236829   6.692   4.334   5.611
12291TIP3    H136830   6.721   4.248   5.580
12291TIP3    H236831   6.750   4.396   5.567
12292TIP3   OH236832   4.169   6.557   3.810
12292TIP3    H136833   4.229   6.530   3.879
12292TIP3    H236834   4.226   6.582   3.737
12293TIP3   OH236835   1.494   1.771   0.043
12293TIP3    H136836   1.505   1.696  -0.016
12293TIP3    H236837   1.404   1.799   0.029
12294TIP3   OH236838   7.817   7.580   2.183
12294TIP3    H136839   7.839   7.668   2.214
12294TIP3    H236840   7.723   7.571   2.199
12295TIP3   OH236841   0.388   3.795   2.709
12295TIP3    H136842   0.364   3.794   2.801
12295TIP3    H236843   0.330   3.732   2.668
12296TIP3   OH236844   4.626   2.670   2.699
12296TIP3    H136845   4.646   2.638   2.611
12296TIP3    H236846   4.597   2.760   2.685
12297TIP3   OH236847   0.267   0.635   5.426
12297TIP3    H136848   0.301   0.690   5.496
12297TIP3    H236849   0.326   0.560   5.424
12298TIP3   OH236850   1.865   1.032   1.414
12298TIP3    H136851   1.791   0.973   1.405
12298TIP3    H236852   1.906   1.008   1.497
12299TIP3   OH236853   3.844   2.242   1.221
12299TIP3    H136854   3.910   2.255   1.289
12299TIP3    H236855   3.798   2.325   1.215
12300TIP3   OH236856   3.128   1.843   2.911
12300TIP3    H136857   3.042   1.800   2.923
12300TIP3    H236858   3.129   1.870   2.819
12301TIP3   OH236859   5.071   0.228   0.225
12301TIP3    H136860   5.027   0.146   0.203
12301TIP3    H236861   5.001   0.294   0.221
12302TIP3   OH236862   2.078   5.515   2.363
12302TIP3    H136863   1.997   5.500   2.413
12302TIP3    H236864   2.048   5.532   2.274
12303TIP3   OH236865   4.516   3.843   1.308
12303TIP3    H136866   4.493   3.837   1.401
12303TIP3    H236867   4.590   3.903   1.306
12304TIP3   OH236868   3.259   3.378   5.170
12304TIP3    H136869   3.270   3.428   5.089
12304TIP3    H236870   3.166   3.355   5.172
12305TIP3   OH236871   0.559   3.445   3.242
12305TIP3    H136872   0.607   3.395   3.176
12305TIP3    H236873   0.626   3.483   3.297
12306TIP3   OH236874   5.874   1.660   3.041
12306TIP3    H136875   5.942   1.619   3.094
12306TIP3    H236876   5.855   1.596   2.972
12307TIP3   OH236877   2.927   0.733   4.667
12307TIP3    H136878   2.926   0.733   4.763
12307TIP3    H236879   2.930   0.641   4.643
12308TIP3   OH236880   6.671   6.089   0.118
12308TIP3    H136881   6.730   6.130   0.054
12308TIP3    H236882   6.699   6.125   0.203
12309TIP3   OH236883   7.123   6.542   1.630
12309TIP3    H136884   7.199   6.483   1.629
12309TIP3    H236885   7.050   6.486   1.659
12310TIP3   OH236886   0.198   4.530   0.819
12310TIP3    H136887   0.228   4.476   0.893
12310TIP3    H236888   0.211   4.620   0.848
12311TIP3   OH236889   5.914   3.649   0.783
12311TIP3    H136890   5.990   3.663   0.839
12311TIP3    H236891   5.938   3.574   0.728
12312TIP3   OH236892   5.722   6.493   0.131
12312TIP3    H136893   5.766   6.423   0.178
12312TIP3    H236894   5.634   6.458   0.112
12313TIP3   OH236895   1.423   7.052   3.037
12313TIP3    H136896   1.385   7.046   3.125
12313TIP3    H236897   1.348   7.043   2.979
12314TIP3   OH236898   5.541   6.297   2.490
12314TIP3    H136899   5.576   6.342   2.413
12314TIP3    H236900   5.585   6.338   2.564
12315TIP3   OH236901  -0.005   0.323   6.530
12315TIP3    H136902   0.018   0.416   6.528
12315TIP3    H236903   0.066   0.282   6.580
12316TIP3   OH236904   4.199   6.941   4.272
12316TIP3    H136905   4.291   6.949   4.297
12316TIP3    H236906   4.203   6.909   4.181
12317TIP3   OH236907   1.557   5.215   4.790
12317TIP3    H136908   1.566   5.197   4.696
12317TIP3    H236909   1.616   5.289   4.805
12318TIP3   OH236910   6.597   3.063   5.614
12318TIP3    H136911   6.576   3.128   5.547
12318TIP3    H236912   6.609   3.115   5.694
12319TIP3   OH236913   6.895   3.069   5.552
12319TIP3    H136914   6.802   3.047   5.543
12319TIP3    H236915   6.900   3.119   5.634
12320TIP3   OH236916   3.634   0.591   3.891
12320TIP3    H136917   3.557   0.592   3.834
12320TIP3    H236918   3.621   0.664   3.951
12321TIP3   OH236919   2.602   5.990   4.164
12321TIP3    H136920   2.646   6.017   4.244
12321TIP3    H236921   2.587   5.896   4.176
12322TIP3   OH236922   2.399   3.123   1.461
12322TIP3    H136923   2.487   3.158   1.471
12322TIP3    H236924   2.392   3.099   1.369
12323TIP3   OH236925   5.814   0.156   5.432
12323TIP3    H136926   5.798   0.086   5.495
12323TIP3    H236927   5.836   0.232   5.487
12324TIP3   OH236928   7.022   5.227   4.392
12324TIP3    H136929   7.055   5.146   4.430
12324TIP3    H236930   7.052   5.295   4.452
12325TIP3   OH236931   0.110   3.299   5.354
12325TIP3    H136932   0.186   3.293   5.296
12325TIP3    H236933   0.142   3.269   5.439
12326TIP3   OH236934   6.464   6.086   3.990
12326TIP3    H136935   6.522   6.051   4.057
12326TIP3    H236936   6.414   6.011   3.959
12327TIP3   OH236937   4.411   5.727   3.921
12327TIP3    H136938   4.379   5.805   3.877
12327TIP3    H236939   4.332   5.675   3.937
12328TIP3   OH236940   5.872   7.792   6.164
12328TIP3    H136941   5.837   7.720   6.111
12328TIP3    H236942   5.853   7.768   6.254
12329TIP3   OH236943   4.944   1.159   2.288
12329TIP3    H136944   4.966   1.226   2.353
12329TIP3    H236945   4.981   1.192   2.206
12330TIP3   OH236946   7.179   6.732   1.036
12330TIP3    H136947   7.153   6.821   1.013
12330TIP3    H236948   7.216   6.695   0.956
12331TIP3   OH236949   3.411   0.229   5.838
12331TIP3    H136950   3.439   0.147   5.798
12331TIP3    H236951   3.325   0.209   5.876
12332TIP3   OH236952   1.233   5.074   5.151
12332TIP3    H136953   1.284   5.087   5.071
12332TIP3    H236954   1.146   5.109   5.131
12333TIP3   OH236955   6.140   4.393   3.061
12333TIP3    H136956   6.114   4.392   2.968
12333TIP3    H236957   6.065   4.354   3.107
12334TIP3   OH236958   6.079   0.269   3.554
12334TIP3    H136959   6.056   0.330   3.623
12334TIP3    H236960   6.150   0.217   3.590
12335TIP3   OH236961   6.943   6.129   3.542
12335TIP3    H136962   6.987   6.130   3.457
12335TIP3    H236963   7.010   6.163   3.602
12336TIP3   OH236964   3.744   2.792   6.751
12336TIP3    H136965   3.726   2.818   6.841
12336TIP3    H236966   3.690   2.714   6.737
12337TIP3   OH236967   1.277   0.832   1.576
12337TIP3    H136968   1.278   0.756   1.634
12337TIP3    H236969   1.300   0.797   1.490
12338TIP3   OH236970   6.743   1.178   1.717
12338TIP3    H136971   6.717   1.137   1.634
12338TIP3    H236972   6.801   1.114   1.759
12339TIP3   OH236973   2.457   4.314   3.155
12339TIP3    H136974   2.412   4.254   3.216
12339TIP3    H236975   2.386   4.357   3.108
12340TIP3   OH236976   7.549   5.144   1.967
12340TIP3    H136977   7.506   5.083   1.907
12340TIP3    H236978   7.482   5.211   1.984
12341TIP3   OH236979   1.346   0.274   1.265
12341TIP3    H136980   1.365   0.327   1.188
12341TIP3    H236981   1.279   0.212   1.236
12342TIP3   OH236982   2.940   4.986   3.326
12342TIP3    H136983   3.025   4.997   3.283
12342TIP3    H236984   2.947   4.904   3.375
12343TIP3   OH236985   6.622   4.345   3.037
12343TIP3    H136986   6.641   4.317   2.947
12343TIP3    H236987   6.644   4.269   3.091
12344TIP3   OH236988   1.605   6.410   0.577
12344TIP3    H136989   1.574   6.480   0.520
12344TIP3    H236990   1.700   6.412   0.568
12345TIP3   OH236991   0.356   1.153   0.649
12345TIP3    H136992   0.385   1.212   0.718
12345TIP3    H236993   0.336   1.071   0.694
12346TIP3   OH236994   6.570   4.261   3.714
12346TIP3    H136995   6.654   4.265   3.759
12346TIP3    H236996   6.515   4.210   3.773
12347TIP3   OH236997   0.857   3.472   2.230
12347TIP3    H136998   0.890   3.561   2.241
12347TIP3    H236999   0.774   3.483   2.183
12348TIP3   OH237000   5.462   6.426   1.361
12348TIP3    H137001   5.525   6.477   1.310
12348TIP3    H237002   5.448   6.478   1.440
12349TIP3   OH237003   8.283   6.751   4.684
12349TIP3    H137004   8.244   6.829   4.724
12349TIP3    H237005   8.341   6.784   4.616
12350TIP3   OH237006   1.701   3.863   6.480
12350TIP3    H137007   1.654   3.923   6.422
12350TIP3    H237008   1.663   3.777   6.462
12351TIP3   OH237009   2.095   0.697   5.149
12351TIP3    H137010   2.096   0.776   5.202
12351TIP3    H237011   2.181   0.658   5.162
12352TIP3   OH237012   0.507   6.601   6.563
12352TIP3    H137013   0.584   6.553   6.595
12352TIP3    H237014   0.433   6.557   6.605
12353TIP3   OH237015   1.371   4.870   0.089
12353TIP3    H137016   1.409   4.803   0.146
12353TIP3    H237017   1.384   4.952   0.137
12354TIP3   OH237018   2.527   5.551   0.133
12354TIP3    H137019   2.593   5.482   0.141
12354TIP3    H237020   2.512   5.559   0.039
12355TIP3   OH237021   6.387  -0.007   5.658
12355TIP3    H137022   6.425  -0.037   5.740
12355TIP3    H237023   6.440   0.069   5.633
12356TIP3   OH237024   0.913   0.028   0.874
12356TIP3    H137025   0.954  -0.054   0.903
12356TIP3    H237026   0.948   0.094   0.934
12357TIP3   OH237027   4.487   1.525   0.406
12357TIP3    H137028   4.474   1.446   0.457
12357TIP3    H237029   4.440   1.510   0.324
12358TIP3   OH237030   6.236   7.069   0.016
12358TIP3    H137031   6.174   7.061   0.089
12358TIP3    H237032   6.319   7.090   0.057
12359TIP3   OH237033   3.795   4.609   4.428
12359TIP3    H137034   3.801   4.598   4.333
12359TIP3    H237035   3.710   4.570   4.451
12360TIP3   OH237036   7.307   0.006   0.516
12360TIP3    H137037   7.400   0.008   0.490
12360TIP3    H237038   7.267   0.076   0.464
12361TIP3   OH237039   7.321   3.593   2.160
12361TIP3    H137040   7.379   3.525   2.195
12361TIP3    H237041   7.262   3.547   2.100
12362TIP3   OH237042   1.892   0.516   6.731
12362TIP3    H137043   1.919   0.474   6.649
12362TIP3    H237044   1.942   0.470   6.799
12363TIP3   OH237045   1.713   0.754   1.394
12363TIP3    H137046   1.695   0.666   1.425
12363TIP3    H237047   1.633   0.803   1.415
12364TIP3   OH237048   2.318   5.197   2.546
12364TIP3    H137049   2.271   5.220   2.466
12364TIP3    H237050   2.390   5.141   2.516
12365TIP3   OH237051   4.094   7.514   3.655
12365TIP3    H137052   4.019   7.530   3.597
12365TIP3    H237053   4.057   7.470   3.731
12366TIP3   OH237054   0.326   3.599   3.959
12366TIP3    H137055   0.244   3.648   3.961
12366TIP3    H237056   0.343   3.585   3.866
12367TIP3   OH237057   7.010   5.904   5.631
12367TIP3    H137058   6.981   5.827   5.681
12367TIP3    H237059   7.050   5.961   5.696
12368TIP3   OH237060   1.029   2.771   6.617
12368TIP3    H137061   1.088   2.696   6.608
12368TIP3    H237062   1.051   2.809   6.703
12369TIP3   OH237063   2.558   4.890   0.231
12369TIP3    H137064   2.617   4.819   0.254
12369TIP3    H237065   2.512   4.911   0.312
12370TIP3   OH237066   7.478   4.756   5.777
12370TIP3    H137067   7.393   4.778   5.815
12370TIP3    H237068   7.501   4.672   5.817
12371TIP3   OH237069   7.957   0.769   2.820
12371TIP3    H137070   7.964   0.683   2.863
12371TIP3    H237071   7.900   0.820   2.877
12372TIP3   OH237072   4.478   3.081   2.902
12372TIP3    H137073   4.497   3.044   2.816
12372TIP3    H237074   4.410   3.024   2.938
12373TIP3   OH237075   3.785   1.247   1.578
12373TIP3    H137076   3.852   1.295   1.626
12373TIP3    H237077   3.724   1.315   1.547
12374TIP3   OH237078   1.612   5.739   1.547
12374TIP3    H137079   1.599   5.811   1.608
12374TIP3    H237080   1.695   5.759   1.503
12375TIP3   OH237081   0.762   6.450   4.906
12375TIP3    H137082   0.797   6.427   4.992
12375TIP3    H237083   0.756   6.366   4.860
12376TIP3   OH237084   4.894   2.636   4.155
12376TIP3    H137085   4.823   2.691   4.188
12376TIP3    H237086   4.857   2.593   4.078
12377TIP3   OH237087   5.318   5.073   2.728
12377TIP3    H137088   5.316   4.977   2.732
12377TIP3    H237089   5.401   5.097   2.769
12378TIP3   OH237090   6.465   1.117   3.239
12378TIP3    H137091   6.549   1.122   3.192
12378TIP3    H237092   6.487   1.143   3.329
12379TIP3   OH237093   4.388   5.713   6.532
12379TIP3    H137094   4.403   5.625   6.567
12379TIP3    H237095   4.450   5.721   6.460
12380TIP3   OH237096   5.290   5.179   0.291
12380TIP3    H137097   5.239   5.162   0.211
12380TIP3    H237098   5.230   5.157   0.362
12381TIP3   OH237099   2.308   4.648   3.219
12381TIP3    H137100   2.258   4.618   3.142
12381TIP3    H237101   2.345   4.732   3.192
12382TIP3   OH237102   4.647   7.767   5.374
12382TIP3    H137103   4.563   7.722   5.377
12382TIP3    H237104   4.633   7.848   5.424
12383TIP3   OH237105   6.014   4.253   1.076
12383TIP3    H137106   6.078   4.294   1.017
12383TIP3    H237107   5.929   4.282   1.044
12384TIP3   OH237108   3.243   2.640   2.311
12384TIP3    H137109   3.236   2.725   2.268
12384TIP3    H237110   3.337   2.628   2.326
12385TIP3   OH237111   7.847   3.425   2.116
12385TIP3    H137112   7.877   3.477   2.191
12385TIP3    H237113   7.911   3.354   2.109
12386TIP3   OH237114   4.379   1.268   2.536
12386TIP3    H137115   4.349   1.331   2.602
12386TIP3    H237116   4.437   1.209   2.584
12387TIP3   OH237117   5.203   3.575   2.740
12387TIP3    H137118   5.248   3.495   2.770
12387TIP3    H237119   5.273   3.632   2.711
12388TIP3   OH237120   3.238   3.622   1.652
12388TIP3    H137121   3.193   3.698   1.689
12388TIP3    H237122   3.256   3.566   1.728
12389TIP3   OH237123   4.594   7.654   6.528
12389TIP3    H137124   4.628   7.608   6.605
12389TIP3    H237125   4.567   7.584   6.469
12390TIP3   OH237126   3.967   2.122   0.502
12390TIP3    H137127   4.047   2.126   0.450
12390TIP3    H237128   3.922   2.043   0.472
12391TIP3   OH237129   2.007   6.332   4.583
12391TIP3    H137130   1.928   6.320   4.531
12391TIP3    H237131   2.007   6.258   4.644
12392TIP3   OH237132   2.834   3.609   0.902
12392TIP3    H137133   2.838   3.570   0.989
12392TIP3    H237134   2.848   3.536   0.842
12393TIP3   OH237135   4.354   1.777   4.280
12393TIP3    H137136   4.369   1.850   4.340
12393TIP3    H237137   4.400   1.801   4.200
12394TIP3   OH237138   5.354   2.442   3.187
12394TIP3    H137139   5.358   2.351   3.157
12394TIP3    H237140   5.350   2.436   3.282
12395TIP3   OH237141   5.100   5.145   0.491
12395TIP3    H137142   5.096   5.240   0.487
12395TIP3    H237143   5.020   5.119   0.537
12396TIP3   OH237144   2.562   1.766   5.599
12396TIP3    H137145   2.545   1.812   5.517
12396TIP3    H237146   2.475   1.742   5.631
12397TIP3   OH237147   7.361   2.465   1.614
12397TIP3    H137148   7.332   2.540   1.666
12397TIP3    H237149   7.322   2.389   1.658
12398TIP3   OH237150   1.271   0.526   4.283
12398TIP3    H137151   1.338   0.492   4.341
12398TIP3    H237152   1.319   0.572   4.215
12399TIP3   OH237153   6.434   4.215   4.118
12399TIP3    H137154   6.396   4.143   4.068
12399TIP3    H237155   6.470   4.174   4.197
12400TIP3   OH237156   4.849   2.942   1.399
12400TIP3    H137157   4.790   2.955   1.473
12400TIP3    H237158   4.839   2.850   1.376
12401TIP3   OH237159   7.838   6.248   5.764
12401TIP3    H137160   7.783   6.171   5.778
12401TIP3    H237161   7.850   6.285   5.851
12402TIP3   OH237162   7.061   6.719   0.231
12402TIP3    H137163   7.142   6.749   0.189
12402TIP3    H237164   7.003   6.700   0.157
12403TIP3   OH237165   6.591   6.155   0.617
12403TIP3    H137166   6.655   6.177   0.684
12403TIP3    H237167   6.513   6.207   0.640
12404TIP3   OH237168   4.376   0.962   4.035
12404TIP3    H137169   4.465   0.934   4.012
12404TIP3    H237170   4.373   0.953   4.131
12405TIP3   OH237171   6.714   3.267   6.577
12405TIP3    H137172   6.758   3.350   6.559
12405TIP3    H237173   6.625   3.292   6.602
12406TIP3   OH237174   6.100   4.697   6.311
12406TIP3    H137175   6.051   4.763   6.360
12406TIP3    H237176   6.173   4.744   6.273
12407TIP3   OH237177   7.176   4.222   5.381
12407TIP3    H137178   7.266   4.196   5.361
12407TIP3    H237179   7.166   4.205   5.475
12408TIP3   OH237180   6.374   1.143   0.712
12408TIP3    H137181   6.381   1.235   0.736
12408TIP3    H237182   6.390   1.141   0.618
12409TIP3   OH237183   7.327   5.269   3.528
12409TIP3    H137184   7.365   5.279   3.441
12409TIP3    H237185   7.401   5.271   3.588
12410TIP3   OH237186   4.725   7.268   4.944
12410TIP3    H137187   4.677   7.327   5.002
12410TIP3    H237188   4.716   7.182   4.984
12411TIP3   OH237189   1.954   2.788   0.144
12411TIP3    H137190   1.981   2.872   0.107
12411TIP3    H237191   2.034   2.736   0.146
12412TIP3   OH237192   1.497   7.804   5.888
12412TIP3    H137193   1.473   7.896   5.873
12412TIP3    H237194   1.428   7.770   5.944
12413TIP3   OH237195   1.516   4.804   5.823
12413TIP3    H137196   1.602   4.828   5.788
12413TIP3    H237197   1.536   4.754   5.903
12414TIP3   OH237198   1.321   4.558   3.166
12414TIP3    H137199   1.405   4.580   3.125
12414TIP3    H237200   1.256   4.600   3.110
12415TIP3   OH237201   6.167   6.471   3.455
12415TIP3    H137202   6.244   6.502   3.504
12415TIP3    H237203   6.093   6.496   3.510
12416TIP3   OH237204   3.875   6.100   5.785
12416TIP3    H137205   3.939   6.041   5.823
12416TIP3    H237206   3.849   6.058   5.703
12417TIP3   OH237207   8.294   2.330   0.168
12417TIP3    H137208   8.237   2.257   0.145
12417TIP3    H237209   8.291   2.334   0.264
12418TIP3   OH237210   5.156   0.587   0.601
12418TIP3    H137211   5.226   0.602   0.664
12418TIP3    H237212   5.089   0.538   0.651
12419TIP3   OH237213   2.729   5.365   5.617
12419TIP3    H137214   2.717   5.300   5.548
12419TIP3    H237215   2.823   5.365   5.633
12420TIP3   OH237216   6.711   0.994   4.241
12420TIP3    H137217   6.752   1.037   4.315
12420TIP3    H237218   6.762   0.913   4.229
12421TIP3   OH237219   2.850   3.814   4.224
12421TIP3    H137220   2.896   3.812   4.140
12421TIP3    H237221   2.918   3.837   4.287
12422TIP3   OH237222   2.344   0.047   3.388
12422TIP3    H137223   2.319   0.026   3.298
12422TIP3    H237224   2.369   0.140   3.384
12423TIP3   OH237225   7.684   2.124   2.431
12423TIP3    H137226   7.745   2.060   2.396
12423TIP3    H237227   7.740   2.191   2.471
12424TIP3   OH237228   7.792   1.185   2.130
12424TIP3    H137229   7.803   1.090   2.129
12424TIP3    H237230   7.876   1.219   2.100
12425TIP3   OH237231   7.162   0.157   2.345
12425TIP3    H137232   7.192   0.085   2.400
12425TIP3    H237233   7.199   0.139   2.259
12426TIP3   OH237234   7.918   6.020   0.441
12426TIP3    H137235   7.852   6.089   0.442
12426TIP3    H237236   7.989   6.055   0.387
12427TIP3   OH237237   6.035   6.454   5.112
12427TIP3    H137238   6.047   6.413   5.026
12427TIP3    H237239   6.066   6.388   5.174
12428TIP3   OH237240   6.702   3.252   0.761
12428TIP3    H137241   6.773   3.203   0.720
12428TIP3    H237242   6.737   3.279   0.846
12429TIP3   OH237243   0.967   7.826   2.343
12429TIP3    H137244   0.933   7.737   2.353
12429TIP3    H237245   0.890   7.882   2.358
12430TIP3   OH237246   7.989   7.089   3.034
12430TIP3    H137247   7.987   7.034   3.112
12430TIP3    H237248   7.911   7.144   3.042
12431TIP3   OH237249   7.667   0.683   1.669
12431TIP3    H137250   7.652   0.603   1.720
12431TIP3    H237251   7.663   0.654   1.578
12432TIP3   OH237252   3.219   0.441   6.278
12432TIP3    H137253   3.153   0.508   6.263
12432TIP3    H237254   3.231   0.399   6.193
12433TIP3   OH237255   0.956   7.757   1.540
12433TIP3    H137256   1.042   7.719   1.523
12433TIP3    H237257   0.905   7.737   1.461
12434TIP3   OH237258   5.962   5.273   2.980
12434TIP3    H137259   6.014   5.254   2.902
12434TIP3    H237260   5.994   5.358   3.010
12435TIP3   OH237261   5.979   1.048   0.320
12435TIP3    H137262   5.895   1.075   0.285
12435TIP3    H237263   6.028   1.016   0.244
12436TIP3   OH237264   8.272   2.878   3.579
12436TIP3    H137265   8.361   2.857   3.552
12436TIP3    H237266   8.217   2.844   3.508
12437TIP3   OH237267   0.463   0.397   1.273
12437TIP3    H137268   0.440   0.479   1.229
12437TIP3    H237269   0.380   0.351   1.284
12438TIP3   OH237270   1.759   6.111   1.468
12438TIP3    H137271   1.815   6.064   1.406
12438TIP3    H237272   1.687   6.144   1.415
12439TIP3   OH237273   4.025   4.416   2.587
12439TIP3    H137274   3.943   4.367   2.580
12439TIP3    H237275   4.091   4.350   2.608
12440TIP3   OH237276   0.791   3.280   3.049
12440TIP3    H137277   0.828   3.200   3.087
12440TIP3    H237278   0.770   3.255   2.959
12441TIP3   OH237279   5.141   2.482   3.036
12441TIP3    H137280   5.225   2.479   3.081
12441TIP3    H237281   5.102   2.566   3.062
12442TIP3   OH237282   7.384   4.444   0.720
12442TIP3    H137283   7.315   4.384   0.750
12442TIP3    H237284   7.464   4.391   0.722
12443TIP3   OH237285   0.351   6.678   3.692
12443TIP3    H137286   0.404   6.681   3.612
12443TIP3    H237287   0.317   6.589   3.694
12444TIP3   OH237288   6.479   0.684   4.099
12444TIP3    H137289   6.565   0.644   4.109
12444TIP3    H237290   6.478   0.718   4.009
12445TIP3   OH237291   3.499   4.945   6.296
12445TIP3    H137292   3.536   5.034   6.298
12445TIP3    H237293   3.408   4.959   6.269
12446TIP3   OH237294   0.034   0.861   4.997
12446TIP3    H137295   0.107   0.802   5.020
12446TIP3    H237296   0.055   0.891   4.909
12447TIP3   OH237297   4.447   6.637   4.239
12447TIP3    H137298   4.499   6.693   4.181
12447TIP3    H237299   4.489   6.646   4.325
12448TIP3   OH237300   1.275   3.101   5.509
12448TIP3    H137301   1.310   3.013   5.508
12448TIP3    H237302   1.288   3.134   5.420
12449TIP3   OH237303   5.526   4.770   2.860
12449TIP3    H137304   5.431   4.766   2.874
12449TIP3    H237305   5.535   4.803   2.770
12450TIP3   OH237306   2.007   5.372   4.118
12450TIP3    H137307   2.005   5.353   4.025
12450TIP3    H237308   1.971   5.293   4.159
12451TIP3   OH237309   4.093   0.530   2.034
12451TIP3    H137310   4.143   0.519   1.953
12451TIP3    H237311   4.064   0.442   2.057
12452TIP3   OH237312   6.070   5.709   1.838
12452TIP3    H137313   5.990   5.731   1.789
12452TIP3    H237314   6.138   5.761   1.797
12453TIP3   OH237315   0.773   6.013   1.184
12453TIP3    H137316   0.772   6.104   1.213
12453TIP3    H237317   0.682   5.984   1.194
12454TIP3   OH237318   6.950   1.807   3.955
12454TIP3    H137319   7.003   1.826   3.877
12454TIP3    H237320   6.866   1.849   3.937
12455TIP3   OH237321   2.422   1.423   0.875
12455TIP3    H137322   2.327   1.434   0.865
12455TIP3    H237323   2.445   1.354   0.812
12456TIP3   OH237324   0.328   5.226   2.226
12456TIP3    H137325   0.257   5.288   2.210
12456TIP3    H237326   0.397   5.279   2.265
12457TIP3   OH237327   7.853   6.871   2.928
12457TIP3    H137328   7.918   6.939   2.944
12457TIP3    H237329   7.785   6.914   2.877
12458TIP3   OH237330   1.103   2.392   4.611
12458TIP3    H137331   1.018   2.433   4.629
12458TIP3    H237332   1.157   2.462   4.574
12459TIP3   OH237333   0.763   5.958   6.079
12459TIP3    H137334   0.836   5.906   6.045
12459TIP3    H237335   0.692   5.942   6.017
12460TIP3   OH237336   1.702   5.684   0.211
12460TIP3    H137337   1.633   5.680   0.278
12460TIP3    H237338   1.677   5.757   0.155
12461TIP3   OH237339   3.597   3.359   5.751
12461TIP3    H137340   3.654   3.339   5.825
12461TIP3    H237341   3.617   3.450   5.730
12462TIP3   OH237342   7.422   2.139   1.155
12462TIP3    H137343   7.444   2.163   1.065
12462TIP3    H237344   7.501   2.096   1.188
12463TIP3   OH237345   3.684   3.995   6.809
12463TIP3    H137346   3.719   4.081   6.784
12463TIP3    H237347   3.733   3.933   6.755
12464TIP3   OH237348   0.635   6.181   5.030
12464TIP3    H137349   0.574   6.238   4.983
12464TIP3    H237350   0.701   6.241   5.066
12465TIP3   OH237351   1.585   1.605   4.544
12465TIP3    H137352   1.571   1.581   4.636
12465TIP3    H237353   1.627   1.528   4.506
12466TIP3   OH237354   5.582   2.962   5.348
12466TIP3    H137355   5.519   3.001   5.409
12466TIP3    H237356   5.666   3.001   5.371
12467TIP3   OH237357   2.551   7.766   3.985
12467TIP3    H137358   2.485   7.718   3.936
12467TIP3    H237359   2.585   7.702   4.048
12468TIP3   OH237360   4.991   3.050   1.969
12468TIP3    H137361   5.078   3.065   1.930
12468TIP3    H237362   4.998   3.089   2.056
12469TIP3   OH237363   1.853   6.866   6.539
12469TIP3    H137364   1.766   6.849   6.505
12469TIP3    H237365   1.854   6.960   6.557
12470TIP3   OH237366   2.297   3.140   0.748
12470TIP3    H137367   2.249   3.145   0.831
12470TIP3    H237368   2.298   3.230   0.716
12471TIP3   OH237369   6.646   7.636   3.172
12471TIP3    H137370   6.664   7.728   3.152
12471TIP3    H237371   6.654   7.592   3.087
12472TIP3   OH237372   1.769   7.537   1.674
12472TIP3    H137373   1.809   7.510   1.591
12472TIP3    H237374   1.729   7.622   1.655
12473TIP3   OH237375   6.006   1.453   1.854
12473TIP3    H137376   6.031   1.451   1.946
12473TIP3    H237377   6.063   1.389   1.812
12474TIP3   OH237378   0.596   0.097   5.809
12474TIP3    H137379   0.688   0.122   5.797
12474TIP3    H237380   0.550   0.140   5.737
12475TIP3   OH237381   2.817   4.100   2.961
12475TIP3    H137382   2.841   4.160   3.033
12475TIP3    H237383   2.901   4.065   2.931
12476TIP3   OH237384   7.201   4.057   5.651
12476TIP3    H137385   7.273   4.071   5.713
12476TIP3    H237386   7.124   4.090   5.697
12477TIP3   OH237387   6.830   2.262   1.794
12477TIP3    H137388   6.871   2.316   1.862
12477TIP3    H237389   6.740   2.251   1.825
12478TIP3   OH237390   5.939   5.057   5.521
12478TIP3    H137391   5.902   5.116   5.455
12478TIP3    H237392   5.930   4.970   5.482
12479TIP3   OH237393   4.856   5.693   0.758
12479TIP3    H137394   4.790   5.762   0.769
12479TIP3    H237395   4.890   5.678   0.846
12480TIP3   OH237396   0.693   1.218   4.085
12480TIP3    H137397   0.739   1.187   4.007
12480TIP3    H237398   0.758   1.210   4.156
12481TIP3   OH237399   7.462   5.781   2.183
12481TIP3    H137400   7.479   5.872   2.206
12481TIP3    H237401   7.368   5.776   2.170
12482TIP3   OH237402   4.999   3.105   5.841
12482TIP3    H137403   4.929   3.040   5.835
12482TIP3    H237404   4.973   3.163   5.912
12483TIP3   OH237405   0.494   7.237   4.893
12483TIP3    H137406   0.588   7.247   4.878
12483TIP3    H237407   0.484   7.242   4.988
12484TIP3   OH237408   3.553   6.258   3.825
12484TIP3    H137409   3.631   6.211   3.796
12484TIP3    H237410   3.482   6.218   3.775
12485TIP3   OH237411   0.560   1.409   1.885
12485TIP3    H137412   0.643   1.444   1.855
12485TIP3    H237413   0.582   1.356   1.961
12486TIP3   OH237414   5.197   3.541   4.030
12486TIP3    H137415   5.184   3.636   4.020
12486TIP3    H237416   5.198   3.527   4.125
12487TIP3   OH237417   3.997   1.779   5.891
12487TIP3    H137418   4.091   1.792   5.877
12487TIP3    H237419   3.968   1.859   5.935
12488TIP3   OH237420   2.948   3.508   3.977
12488TIP3    H137421   2.993   3.499   4.061
12488TIP3    H237422   3.004   3.463   3.915
12489TIP3   OH237423   4.773   1.328   1.232
12489TIP3    H137424   4.845   1.386   1.257
12489TIP3    H237425   4.805   1.282   1.154
12490TIP3   OH237426   4.547   5.419   2.418
12490TIP3    H137427   4.461   5.432   2.459
12490TIP3    H237428   4.605   5.478   2.466
12491TIP3   OH237429   0.808   5.716   1.656
12491TIP3    H137430   0.818   5.638   1.711
12491TIP3    H237431   0.891   5.724   1.609
12492TIP3   OH237432   4.104   1.565   6.684
12492TIP3    H137433   4.038   1.515   6.637
12492TIP3    H237434   4.186   1.520   6.667
12493TIP3   OH237435   4.444   4.520   2.675
12493TIP3    H137436   4.403   4.498   2.591
12493TIP3    H237437   4.484   4.438   2.704
12494TIP3   OH237438   4.435   7.262   4.801
12494TIP3    H137439   4.375   7.331   4.830
12494TIP3    H237440   4.522   7.301   4.812
12495TIP3   OH237441   3.718   3.494   6.300
12495TIP3    H137442   3.777   3.561   6.335
12495TIP3    H237443   3.760   3.411   6.323
12496TIP3   OH237444   2.669   7.219   2.188
12496TIP3    H137445   2.634   7.302   2.221
12496TIP3    H237446   2.764   7.229   2.194
12497TIP3   OH237447   1.483   0.738   6.191
12497TIP3    H137448   1.438   0.821   6.176
12497TIP3    H237449   1.576   0.761   6.188
12498TIP3   OH237450   7.068   7.468   1.888
12498TIP3    H137451   7.086   7.543   1.832
12498TIP3    H237452   6.974   7.454   1.882
12499TIP3   OH237453   4.778   2.321   5.622
12499TIP3    H137454   4.834   2.399   5.628
12499TIP3    H237455   4.690   2.354   5.639
12500TIP3   OH237456   3.849   5.439   3.858
12500TIP3    H137457   3.767   5.476   3.827
12500TIP3    H237458   3.900   5.424   3.779
12501TIP3   OH237459   3.410   0.202   6.762
12501TIP3    H137460   3.465   0.272   6.797
12501TIP3    H237461   3.458   0.172   6.684
12502TIP3   OH237462   0.122   3.981   1.134
12502TIP3    H137463   0.060   3.987   1.206
12502TIP3    H237464   0.071   3.946   1.061
12503TIP3   OH237465   2.729   4.217   3.461
12503TIP3    H137466   2.799   4.278   3.484
12503TIP3    H237467   2.700   4.245   3.375
12504TIP3   OH237468   7.935   4.474   2.306
12504TIP3    H137469   7.961   4.551   2.255
12504TIP3    H237470   7.888   4.419   2.243
12505TIP3   OH237471   2.950   4.032   6.585
12505TIP3    H137472   3.034   3.985   6.587
12505TIP3    H237473   2.899   3.988   6.517
12506TIP3   OH237474   7.227   0.838   5.736
12506TIP3    H137475   7.281   0.777   5.785
12506TIP3    H237476   7.227   0.805   5.646
12507TIP3   OH237477   1.010   5.371   0.337
12507TIP3    H137478   0.967   5.324   0.266
12507TIP3    H237479   0.976   5.332   0.417
12508TIP3   OH237480   4.303   5.364   4.704
12508TIP3    H137481   4.322   5.413   4.624
12508TIP3    H237482   4.344   5.416   4.774
12509TIP3   OH237483   2.607   6.783   3.155
12509TIP3    H137484   2.519   6.749   3.174
12509TIP3    H237485   2.592   6.851   3.089
12510TIP3   OH237486   4.501   3.596   5.627
12510TIP3    H137487   4.536   3.599   5.716
12510TIP3    H237488   4.551   3.661   5.578
12511TIP3   OH237489   2.286   2.974   2.462
12511TIP3    H137490   2.289   2.891   2.510
12511TIP3    H237491   2.376   3.006   2.464
12512TIP3   OH237492   0.730   0.308   0.058
12512TIP3    H137493   0.782   0.228   0.068
12512TIP3    H237494   0.794   0.376   0.037
12513TIP3   OH237495   7.107   3.889   2.457
12513TIP3    H137496   7.156   3.894   2.375
12513TIP3    H237497   7.087   3.796   2.467
12514TIP3   OH237498   4.531   2.114   1.319
12514TIP3    H137499   4.499   2.024   1.311
12514TIP3    H237500   4.626   2.106   1.308
12515TIP3   OH237501   6.136   3.001   0.724
12515TIP3    H137502   6.047   2.974   0.746
12515TIP3    H237503   6.189   2.923   0.740
12516TIP3   OH237504   6.012   5.160   4.481
12516TIP3    H137505   5.970   5.078   4.508
12516TIP3    H237506   6.036   5.203   4.564
12517TIP3   OH237507   8.255   5.702   1.305
12517TIP3    H137508   8.349   5.707   1.291
12517TIP3    H237509   8.237   5.766   1.374
12518TIP3   OH237510   1.894   0.766   6.427
12518TIP3    H137511   1.869   0.801   6.512
12518TIP3    H237512   1.926   0.678   6.445
12519TIP3   OH237513   5.071   1.835   1.845
12519TIP3    H137514   5.134   1.832   1.772
12519TIP3    H237515   5.098   1.763   1.902
12520TIP3   OH237516   2.413   2.514   1.490
12520TIP3    H137517   2.439   2.456   1.562
12520TIP3    H237518   2.319   2.503   1.482
12521TIP3   OH237519   4.959   0.992   5.920
12521TIP3    H137520   4.895   0.921   5.919
12521TIP3    H237521   4.940   1.043   5.841
12522TIP3   OH237522   1.411   4.434   4.600
12522TIP3    H137523   1.458   4.462   4.678
12522TIP3    H237524   1.328   4.401   4.632
12523TIP3   OH237525   2.538   1.159   0.883
12523TIP3    H137526   2.504   1.092   0.825
12523TIP3    H237527   2.627   1.175   0.853
12524TIP3   OH237528   7.121   1.481   4.023
12524TIP3    H137529   7.112   1.569   3.988
12524TIP3    H237530   7.212   1.476   4.053
12525TIP3   OH237531   4.031   7.105   1.965
12525TIP3    H137532   3.945   7.147   1.970
12525TIP3    H237533   4.091   7.178   1.949
12526TIP3   OH237534   5.904   5.476   4.188
12526TIP3    H137535   5.871   5.547   4.133
12526TIP3    H237536   5.869   5.494   4.275
12527TIP3   OH237537   2.891   4.642   3.132
12527TIP3    H137538   2.962   4.632   3.196
12527TIP3    H237539   2.820   4.684   3.182
12528TIP3   OH237540   4.891   4.979   0.883
12528TIP3    H137541   4.940   4.914   0.934
12528TIP3    H237542   4.921   5.063   0.916
12529TIP3   OH237543   1.299   2.612   1.450
12529TIP3    H137544   1.376   2.639   1.400
12529TIP3    H237545   1.335   2.558   1.521
12530TIP3   OH237546   7.289   1.479   2.094
12530TIP3    H137547   7.249   1.552   2.047
12530TIP3    H237548   7.231   1.405   2.076
12531TIP3   OH237549   6.272   4.432   4.231
12531TIP3    H137550   6.299   4.353   4.184
12531TIP3    H237551   6.349   4.489   4.228
12532TIP3   OH237552   1.955   3.566   1.105
12532TIP3    H137553   2.047   3.564   1.079
12532TIP3    H237554   1.956   3.593   1.197
12533TIP3   OH237555   4.188   0.405   6.417
12533TIP3    H137556   4.234   0.457   6.483
12533TIP3    H237557   4.108   0.375   6.460
12534TIP3   OH237558   0.434   5.881   4.830
12534TIP3    H137559   0.387   5.959   4.801
12534TIP3    H237560   0.526   5.899   4.811
12535TIP3   OH237561   4.821   7.324   0.635
12535TIP3    H137562   4.791   7.243   0.676
12535TIP3    H237563   4.755   7.342   0.567
12536TIP3   OH237564   7.063   2.989   1.212
12536TIP3    H137565   7.048   2.907   1.165
12536TIP3    H237566   7.154   2.985   1.239
12537TIP3   OH237567   3.747   6.416   0.256
12537TIP3    H137568   3.812   6.438   0.189
12537TIP3    H237569   3.698   6.343   0.218
12538TIP3   OH237570   1.545   3.820   3.311
12538TIP3    H137571   1.477   3.769   3.267
12538TIP3    H237572   1.509   3.840   3.397
12539TIP3   OH237573   1.244   4.019   2.473
12539TIP3    H137574   1.262   4.080   2.402
12539TIP3    H237575   1.149   4.004   2.469
12540TIP3   OH237576   0.499   1.354   1.487
12540TIP3    H137577   0.562   1.293   1.448
12540TIP3    H237578   0.429   1.298   1.520
12541TIP3   OH237579   4.299   6.868   1.494
12541TIP3    H137580   4.311   6.962   1.476
12541TIP3    H237581   4.283   6.829   1.409
12542TIP3   OH237582   5.743   1.357   5.804
12542TIP3    H137583   5.708   1.408   5.877
12542TIP3    H237584   5.830   1.393   5.790
12543TIP3   OH237585   1.319   5.876   1.369
12543TIP3    H137586   1.405   5.913   1.388
12543TIP3    H237587   1.303   5.899   1.277
12544TIP3   OH237588   2.295   3.769   3.619
12544TIP3    H137589   2.358   3.790   3.688
12544TIP3    H237590   2.340   3.795   3.538
12545TIP3   OH237591   1.254   3.988   0.114
12545TIP3    H137592   1.274   3.961   0.024
12545TIP3    H237593   1.331   3.961   0.165
12546TIP3   OH237594   5.215   0.397   5.558
12546TIP3    H137595   5.285   0.380   5.620
12546TIP3    H237596   5.138   0.417   5.612
12547TIP3   OH237597   0.712   1.613   2.157
12547TIP3    H137598   0.627   1.643   2.125
12547TIP3    H237599   0.709   1.625   2.251
12548TIP3   OH237600   1.588   7.374   1.330
12548TIP3    H137601   1.606   7.300   1.389
12548TIP3    H237602   1.658   7.436   1.349
12549TIP3   OH237603   1.031   2.890   2.093
12549TIP3    H137604   0.946   2.922   2.063
12549TIP3    H237605   1.039   2.802   2.055
12550TIP3   OH237606   2.159   2.857   3.826
12550TIP3    H137607   2.066   2.837   3.834
12550TIP3    H237608   2.204   2.776   3.851
12551TIP3   OH237609   5.757   3.197   1.635
12551TIP3    H137610   5.733   3.112   1.599
12551TIP3    H237611   5.788   3.247   1.560
12552TIP3   OH237612   0.822   6.565   3.027
12552TIP3    H137613   0.863   6.571   3.114
12552TIP3    H237614   0.729   6.553   3.045
12553TIP3   OH237615   0.523   2.329   0.034
12553TIP3    H137616   0.600   2.280   0.006
12553TIP3    H237617   0.534   2.340   0.128
12554TIP3   OH237618   1.133   5.390   1.156
12554TIP3    H137619   1.108   5.481   1.171
12554TIP3    H237620   1.134   5.350   1.243
12555TIP3   OH237621   7.901   5.576   5.341
12555TIP3    H137622   7.926   5.514   5.410
12555TIP3    H237623   7.811   5.599   5.362
12556TIP3   OH237624   2.825   6.662   6.280
12556TIP3    H137625   2.861   6.578   6.254
12556TIP3    H237626   2.897   6.705   6.328
12557TIP3   OH237627   1.292   0.241   6.237
12557TIP3    H137628   1.345   0.321   6.229
12557TIP3    H237629   1.237   0.256   6.313
12558TIP3   OH237630   0.865   1.515   6.478
12558TIP3    H137631   0.870   1.532   6.573
12558TIP3    H237632   0.771   1.516   6.459
12559TIP3   OH237633   4.928   1.493   5.207
12559TIP3    H137634   4.855   1.433   5.193
12559TIP3    H237635   4.922   1.555   5.134
12560TIP3   OH237636   0.783   6.699   1.057
12560TIP3    H137637   0.866   6.741   1.034
12560TIP3    H237638   0.808   6.630   1.118
12561TIP3   OH237639   3.033   1.947   2.568
12561TIP3    H137640   3.033   1.942   2.473
12561TIP3    H237641   3.124   1.930   2.593
12562TIP3   OH237642   0.341   3.730   2.983
12562TIP3    H137643   0.373   3.774   3.061
12562TIP3    H237644   0.247   3.723   2.996
12563TIP3   OH237645   1.035   6.770   3.123
12563TIP3    H137646   1.079   6.756   3.207
12563TIP3    H237647   0.945   6.795   3.146
12564TIP3   OH237648   6.703   7.320   3.486
12564TIP3    H137649   6.611   7.342   3.497
12564TIP3    H237650   6.713   7.234   3.526
12565TIP3   OH237651   2.224   2.540   0.131
12565TIP3    H137652   2.280   2.568   0.203
12565TIP3    H237653   2.233   2.611   0.066
12566TIP3   OH237654   7.254   3.839   2.230
12566TIP3    H137655   7.337   3.797   2.252
12566TIP3    H237656   7.218   3.785   2.160
12567TIP3   OH237657   6.271   0.957   4.544
12567TIP3    H137658   6.273   0.892   4.614
12567TIP3    H237659   6.192   0.936   4.494
12568TIP3   OH237660   0.290   4.978   5.132
12568TIP3    H137661   0.269   5.071   5.142
12568TIP3    H237662   0.208   4.938   5.104
12569TIP3   OH237663   3.582   7.385   6.345
12569TIP3    H137664   3.632   7.306   6.326
12569TIP3    H237665   3.645   7.444   6.385
12570TIP3   OH237666   0.010   5.976   3.191
12570TIP3    H137667   0.079   5.930   3.143
12570TIP3    H237668  -0.066   5.974   3.133
12571TIP3   OH237669   7.068   1.981   5.726
12571TIP3    H137670   7.031   1.952   5.643
12571TIP3    H237671   7.162   1.980   5.713
12572TIP3   OH237672   3.774   1.999   5.980
12572TIP3    H137673   3.807   2.078   5.938
12572TIP3    H237674   3.734   1.948   5.910
12573TIP3   OH237675   4.863   2.723   1.895
12573TIP3    H137676   4.836   2.815   1.891
12573TIP3    H237677   4.781   2.674   1.897
12574TIP3   OH237678   0.829   7.337   2.723
12574TIP3    H137679   0.838   7.318   2.630
12574TIP3    H237680   0.820   7.432   2.728
12575TIP3   OH237681   4.362   3.120   3.790
12575TIP3    H137682   4.328   3.115   3.701
12575TIP3    H237683   4.285   3.122   3.846
12576TIP3   OH237684   7.536   1.630   3.807
12576TIP3    H137685   7.524   1.654   3.715
12576TIP3    H237686   7.569   1.710   3.848
12577TIP3   OH237687   4.622   7.725   2.162
12577TIP3    H137688   4.554   7.699   2.224
12577TIP3    H237689   4.582   7.794   2.110
12578TIP3   OH237690   8.016   1.051   0.230
12578TIP3    H137691   8.083   0.984   0.214
12578TIP3    H237692   7.934   1.002   0.235
12579TIP3   OH237693   0.374   3.253   6.782
12579TIP3    H137694   0.321   3.319   6.737
12579TIP3    H237695   0.464   3.287   6.776
12580TIP3   OH237696   2.684   2.474   5.438
12580TIP3    H137697   2.624   2.540   5.473
12580TIP3    H237698   2.724   2.435   5.516
12581TIP3   OH237699   0.115   1.605   3.720
12581TIP3    H137700   0.027   1.627   3.750
12581TIP3    H237701   0.115   1.625   3.626
12582TIP3   OH237702   2.435   4.057   6.146
12582TIP3    H137703   2.445   4.112   6.223
12582TIP3    H237704   2.354   4.008   6.161
12583TIP3   OH237705   4.719   2.411   6.406
12583TIP3    H137706   4.745   2.327   6.367
12583TIP3    H237707   4.783   2.425   6.476
12584TIP3   OH237708   8.199   3.186   6.272
12584TIP3    H137709   8.231   3.119   6.334
12584TIP3    H237710   8.218   3.269   6.315
12585TIP3   OH237711   4.527   1.900   4.100
12585TIP3    H137712   4.580   1.964   4.053
12585TIP3    H237713   4.575   1.818   4.091
12586TIP3   OH237714   0.117   1.717   6.383
12586TIP3    H137715   0.125   1.638   6.330
12586TIP3    H237716   0.063   1.690   6.458
12587TIP3   OH237717   1.338   7.374   3.673
12587TIP3    H137718   1.376   7.459   3.654
12587TIP3    H237719   1.328   7.371   3.768
12588TIP3   OH237720   6.337   1.790   1.471
12588TIP3    H137721   6.332   1.777   1.566
12588TIP3    H237722   6.358   1.703   1.436
12589TIP3   OH237723   7.863   7.764   3.649
12589TIP3    H137724   7.916   7.802   3.579
12589TIP3    H237725   7.891   7.811   3.728
12590TIP3   OH237726   6.485   2.793   6.061
12590TIP3    H137727   6.448   2.851   5.994
12590TIP3    H237728   6.417   2.728   6.077
12591TIP3   OH237729   6.677   7.834   2.688
12591TIP3    H137730   6.696   7.741   2.706
12591TIP3    H237731   6.588   7.834   2.654
12592TIP3   OH237732   6.684   6.432   0.190
12592TIP3    H137733   6.673   6.353   0.243
12592TIP3    H237734   6.675   6.504   0.253
12593TIP3   OH237735   6.880   0.389   4.830
12593TIP3    H137736   6.908   0.298   4.843
12593TIP3    H237737   6.952   0.441   4.864
12594TIP3   OH237738   6.575   1.693   0.168
12594TIP3    H137739   6.659   1.648   0.160
12594TIP3    H237740   6.596   1.776   0.211
12595TIP3   OH237741   3.031   2.500   2.165
12595TIP3    H137742   3.061   2.448   2.239
12595TIP3    H237743   2.973   2.566   2.204
12596TIP3   OH237744   5.003   5.201   1.559
12596TIP3    H137745   4.991   5.294   1.580
12596TIP3    H237746   5.074   5.199   1.496
12597TIP3   OH237747   7.488   7.371   5.463
12597TIP3    H137748   7.444   7.302   5.414
12597TIP3    H237749   7.540   7.325   5.529
12598TIP3   OH237750   5.078   4.337   1.448
12598TIP3    H137751   5.113   4.421   1.477
12598TIP3    H237752   5.084   4.280   1.525
12599TIP3   OH237753   5.824   6.943   2.873
12599TIP3    H137754   5.809   6.992   2.792
12599TIP3    H237755   5.767   6.866   2.865
12600TIP3   OH237756   2.272   7.105   4.439
12600TIP3    H137757   2.290   7.011   4.432
12600TIP3    H237758   2.205   7.111   4.508
12601TIP3   OH237759   3.247   2.270   4.434
12601TIP3    H137760   3.169   2.227   4.469
12601TIP3    H237761   3.249   2.245   4.342
12602TIP3   OH237762   5.984   4.323   6.149
12602TIP3    H137763   6.022   4.240   6.121
12602TIP3    H237764   5.984   4.378   6.070
12603TIP3   OH237765   6.493   1.631   3.534
12603TIP3    H137766   6.480   1.541   3.565
12603TIP3    H237767   6.572   1.626   3.480
12604TIP3   OH237768   4.165   4.011   4.993
12604TIP3    H137769   4.074   3.991   5.014
12604TIP3    H237770   4.208   3.926   4.988
12605TIP3   OH237771   2.092   7.020   6.235
12605TIP3    H137772   2.170   6.974   6.262
12605TIP3    H237773   2.045   6.959   6.178
12606TIP3   OH237774   1.859   7.175   6.152
12606TIP3    H137775   1.899   7.209   6.232
12606TIP3    H237776   1.856   7.249   6.093
12607TIP3   OH237777   1.466   6.487   4.817
12607TIP3    H137778   1.416   6.553   4.768
12607TIP3    H237779   1.558   6.511   4.801
12608TIP3   OH237780   0.630   1.659   1.306
12608TIP3    H137781   0.666   1.710   1.234
12608TIP3    H237782   0.697   1.594   1.326
12609TIP3   OH237783   5.216   6.557   5.757
12609TIP3    H137784   5.275   6.627   5.785
12609TIP3    H237785   5.263   6.514   5.685
12610TIP3   OH237786   4.956   1.640   0.267
12610TIP3    H137787   5.029   1.586   0.235
12610TIP3    H237788   4.878   1.597   0.232
12611TIP3   OH237789   1.136   7.695   4.343
12611TIP3    H137790   1.063   7.713   4.403
12611TIP3    H237791   1.212   7.684   4.400
12612TIP3   OH237792   7.910   1.379   4.200
12612TIP3    H137793   7.820   1.361   4.227
12612TIP3    H237794   7.908   1.471   4.172
12613TIP3   OH237795   5.545   1.978   2.611
12613TIP3    H137796   5.535   1.888   2.643
12613TIP3    H237797   5.467   1.994   2.559
12614TIP3   OH237798   1.198   6.074   4.293
12614TIP3    H137799   1.170   5.989   4.257
12614TIP3    H237800   1.128   6.134   4.268
12615TIP3   OH237801   7.627   2.262   2.791
12615TIP3    H137802   7.538   2.237   2.766
12615TIP3    H237803   7.644   2.343   2.745
12616TIP3   OH237804   4.315   0.180   5.628
12616TIP3    H137805   4.261   0.193   5.550
12616TIP3    H237806   4.405   0.194   5.597
12617TIP3   OH237807   1.986   7.753   2.309
12617TIP3    H137808   1.982   7.661   2.283
12617TIP3    H237809   1.934   7.799   2.243
12618TIP3   OH237810   3.916   3.784   2.646
12618TIP3    H137811   3.825   3.812   2.646
12618TIP3    H237812   3.926   3.736   2.729
12619TIP3   OH237813   5.969   7.491   2.291
12619TIP3    H137814   5.934   7.580   2.296
12619TIP3    H237815   6.036   7.495   2.222
12620TIP3   OH237816   3.043   5.578   0.383
12620TIP3    H137817   3.013   5.488   0.372
12620TIP3    H237818   3.110   5.590   0.315
12621TIP3   OH237819   3.255   0.705   1.381
12621TIP3    H137820   3.347   0.685   1.367
12621TIP3    H237821   3.246   0.712   1.476
12622TIP3   OH237822   7.032   7.392   6.205
12622TIP3    H137823   6.987   7.465   6.248
12622TIP3    H237824   7.010   7.402   6.112
12623TIP3   OH237825   5.114   1.456   1.622
12623TIP3    H137826   5.051   1.384   1.629
12623TIP3    H237827   5.177   1.427   1.557
12624TIP3   OH237828   2.897   3.194   6.728
12624TIP3    H137829   2.824   3.181   6.667
12624TIP3    H237830   2.858   3.239   6.803
12625TIP3   OH237831   5.456   5.680   5.462
12625TIP3    H137832   5.417   5.593   5.463
12625TIP3    H237833   5.471   5.699   5.370
12626TIP3   OH237834   4.339   0.078   3.235
12626TIP3    H137835   4.345   0.042   3.323
12626TIP3    H237836   4.331   0.001   3.179
12627TIP3   OH237837   0.817   1.272   6.705
12627TIP3    H137838   0.903   1.280   6.665
12627TIP3    H237839   0.769   1.211   6.649
12628TIP3   OH237840   2.073   7.352   3.045
12628TIP3    H137841   2.032   7.398   2.972
12628TIP3    H237842   2.156   7.399   3.060
12629TIP3   OH237843   6.103   7.468   5.019
12629TIP3    H137844   6.129   7.470   4.927
12629TIP3    H237845   6.045   7.544   5.030
12630TIP3   OH237846   4.805   0.529   0.455
12630TIP3    H137847   4.874   0.590   0.429
12630TIP3    H237848   4.849   0.444   0.459
12631TIP3   OH237849   2.423   7.753   3.714
12631TIP3    H137850   2.499   7.763   3.656
12631TIP3    H237851   2.350   7.738   3.654
12632TIP3   OH237852   5.944   7.220   1.829
12632TIP3    H137853   5.947   7.130   1.860
12632TIP3    H237854   5.862   7.255   1.865
12633TIP3   OH237855   1.329   2.232   5.837
12633TIP3    H137856   1.352   2.304   5.897
12633TIP3    H237857   1.400   2.231   5.773
12634TIP3   OH237858   6.648   2.657   1.204
12634TIP3    H137859   6.722   2.605   1.234
12634TIP3    H237860   6.687   2.727   1.151
12635TIP3   OH237861   6.678   6.827   1.507
12635TIP3    H137862   6.697   6.804   1.598
12635TIP3    H237863   6.611   6.764   1.480
12636TIP3   OH237864   6.135   3.381   5.003
12636TIP3    H137865   6.117   3.304   5.058
12636TIP3    H237866   6.209   3.424   5.045
12637TIP3   OH237867   6.468   2.150   2.333
12637TIP3    H137868   6.486   2.093   2.408
12637TIP3    H237869   6.393   2.109   2.289
12638TIP3   OH237870   3.206   6.755   6.319
12638TIP3    H137871   3.271   6.690   6.345
12638TIP3    H237872   3.228   6.834   6.369
12639TIP3   OH237873   5.504   3.759   6.644
12639TIP3    H137874   5.522   3.695   6.576
12639TIP3    H237875   5.547   3.839   6.613
12640TIP3   OH237876   7.004   2.778   0.595
12640TIP3    H137877   6.971   2.757   0.508
12640TIP3    H237878   7.017   2.692   0.636
12641TIP3   OH237879   2.746   2.848   3.075
12641TIP3    H137880   2.739   2.795   3.154
12641TIP3    H237881   2.838   2.875   3.073
12642TIP3   OH237882   3.023   7.709   5.951
12642TIP3    H137883   2.930   7.733   5.946
12642TIP3    H237884   3.070   7.791   5.940
12643TIP3   OH237885   7.719   1.548   5.505
12643TIP3    H137886   7.753   1.471   5.551
12643TIP3    H237887   7.740   1.621   5.563
12644TIP3   OH237888   7.240   3.385   1.916
12644TIP3    H137889   7.293   3.410   1.840
12644TIP3    H237890   7.150   3.392   1.886
12645TIP3   OH237891   6.982   6.239   0.096
12645TIP3    H137892   7.019   6.157   0.130
12645TIP3    H237893   6.991   6.232   0.001
12646TIP3   OH237894   7.200   6.310   6.635
12646TIP3    H137895   7.128   6.334   6.693
12646TIP3    H237896   7.259   6.386   6.637
12647TIP3   OH237897   1.271   1.182   0.974
12647TIP3    H137898   1.344   1.173   0.912
12647TIP3    H237899   1.195   1.151   0.924
12648TIP3   OH237900   2.132   0.241   3.250
12648TIP3    H137901   2.071   0.307   3.216
12648TIP3    H237902   2.144   0.180   3.178
12649TIP3   OH237903   0.664   0.702   0.251
12649TIP3    H137904   0.622   0.788   0.248
12649TIP3    H237905   0.674   0.678   0.159
12650TIP3   OH237906   4.323   0.764   1.871
12650TIP3    H137907   4.388   0.753   1.940
12650TIP3    H237908   4.240   0.736   1.912
12651TIP3   OH237909   5.131   3.046   0.883
12651TIP3    H137910   5.136   2.951   0.871
12651TIP3    H237911   5.167   3.061   0.971
12652TIP3   OH237912   1.398   0.747   4.194
12652TIP3    H137913   1.488   0.775   4.179
12652TIP3    H237914   1.366   0.805   4.263
12653TIP3   OH237915   0.085   2.044   2.395
12653TIP3    H137916   0.110   2.081   2.310
12653TIP3    H237917   0.163   1.997   2.424
12654TIP3   OH237918   7.784   6.539   3.811
12654TIP3    H137919   7.747   6.550   3.898
12654TIP3    H237920   7.872   6.577   3.817
12655TIP3   OH237921   3.604   2.853   0.744
12655TIP3    H137922   3.540   2.880   0.810
12655TIP3    H237923   3.652   2.932   0.723
12656TIP3   OH237924   2.730   0.038   5.624
12656TIP3    H137925   2.665   0.003   5.562
12656TIP3    H237926   2.812   0.038   5.576
12657TIP3   OH237927   3.855   5.499   0.624
12657TIP3    H137928   3.919   5.515   0.555
12657TIP3    H237929   3.843   5.405   0.624
12658TIP3   OH237930   6.849   2.817   5.050
12658TIP3    H137931   6.765   2.789   5.086
12658TIP3    H237932   6.914   2.759   5.092
12659TIP3   OH237933   7.696   4.546   2.434
12659TIP3    H137934   7.653   4.487   2.496
12659TIP3    H237935   7.783   4.508   2.422
12660TIP3   OH237936   0.674   4.596   0.981
12660TIP3    H137937   0.692   4.658   1.052
12660TIP3    H237938   0.686   4.510   1.021
12661TIP3   OH237939   3.294   1.854   4.187
12661TIP3    H137940   3.274   1.946   4.169
12661TIP3    H237941   3.344   1.855   4.268
12662TIP3   OH237942   7.927   3.017   1.355
12662TIP3    H137943   7.878   3.094   1.329
12662TIP3    H237944   7.875   2.977   1.424
12663TIP3   OH237945   5.179   4.134   4.097
12663TIP3    H137946   5.113   4.144   4.166
12663TIP3    H237947   5.168   4.043   4.068
12664TIP3   OH237948   2.288   6.875   3.186
12664TIP3    H137949   2.231   6.951   3.175
12664TIP3    H237950   2.330   6.864   3.100
12665TIP3   OH237951   3.313   5.820   1.347
12665TIP3    H137952   3.288   5.857   1.262
12665TIP3    H237953   3.229   5.798   1.388
12666TIP3   OH237954   2.284   7.379   4.860
12666TIP3    H137955   2.291   7.365   4.766
12666TIP3    H237956   2.317   7.298   4.899
12667TIP3   OH237957   5.287   2.410   1.252
12667TIP3    H137958   5.380   2.408   1.229
12667TIP3    H237959   5.247   2.344   1.195
12668TIP3   OH237960   4.337   2.826   2.789
12668TIP3    H137961   4.265   2.776   2.750
12668TIP3    H237962   4.329   2.811   2.883
12669TIP3   OH237963   0.762   7.408   0.394
12669TIP3    H137964   0.747   7.318   0.422
12669TIP3    H237965   0.719   7.414   0.309
12670TIP3   OH237966   5.065   1.551   4.171
12670TIP3    H137967   5.079   1.456   4.169
12670TIP3    H237968   5.048   1.570   4.263
12671TIP3   OH237969   1.337   1.146   2.048
12671TIP3    H137970   1.243   1.161   2.056
12671TIP3    H237971   1.345   1.052   2.030
12672TIP3   OH237972   4.190   0.990   5.139
12672TIP3    H137973   4.262   0.972   5.078
12672TIP3    H237974   4.226   1.055   5.199
12673TIP3   OH237975   3.114   1.953   2.321
12673TIP3    H137976   3.177   2.011   2.278
12673TIP3    H237977   3.069   1.909   2.249
12674TIP3   OH237978   2.458   1.712   2.325
12674TIP3    H137979   2.468   1.648   2.396
12674TIP3    H237980   2.423   1.790   2.368
12675TIP3   OH237981   0.874   0.689   0.542
12675TIP3    H137982   0.881   0.756   0.474
12675TIP3    H237983   0.939   0.623   0.518
12676TIP3   OH237984   3.286   4.488   0.268
12676TIP3    H137985   3.205   4.479   0.318
12676TIP3    H237986   3.277   4.572   0.223
12677TIP3   OH237987   7.699   6.481   6.641
12677TIP3    H137988   7.765   6.521   6.698
12677TIP3    H237989   7.685   6.545   6.571
12678TIP3   OH237990   4.401   5.466   6.354
12678TIP3    H137991   4.387   5.383   6.401
12678TIP3    H237992   4.318   5.484   6.311
12679TIP3   OH237993   7.383   3.425   2.883
12679TIP3    H137994   7.341   3.346   2.848
12679TIP3    H237995   7.467   3.394   2.917
12680TIP3   OH237996   4.884   7.587   4.290
12680TIP3    H137997   4.811   7.649   4.291
12680TIP3    H237998   4.859   7.518   4.351
12681TIP3   OH237999   4.712   3.393   0.512
12681TIP3    H138000   4.801   3.414   0.540
12681TIP3    H238001   4.723   3.320   0.451
12682TIP3   OH238002   1.684   2.031   0.229
12682TIP3    H138003   1.592   2.037   0.205
12682TIP3    H238004   1.700   2.107   0.285
12683TIP3   OH238005   3.795   0.194   1.610
12683TIP3    H138006   3.773   0.107   1.578
12683TIP3    H238007   3.781   0.252   1.535
12684TIP3   OH238008   4.661   0.040   3.157
12684TIP3    H138009   4.639   0.037   3.064
12684TIP3    H238010   4.618   0.120   3.189
12685TIP3   OH238011   0.007   0.752   5.813
12685TIP3    H138012  -0.031   0.747   5.725
12685TIP3    H238013   0.083   0.694   5.809
12686TIP3   OH238014   3.675   0.843   3.238
12686TIP3    H138015   3.603   0.825   3.178
12686TIP3    H238016   3.678   0.939   3.244
12687TIP3   OH238017   1.522   5.675   4.499
12687TIP3    H138018   1.579   5.723   4.560
12687TIP3    H238019   1.540   5.583   4.517
12688TIP3   OH238020   1.501   3.637   2.103
12688TIP3    H138021   1.472   3.554   2.140
12688TIP3    H238022   1.539   3.614   2.018
12689TIP3   OH238023   5.195   7.042   6.419
12689TIP3    H138024   5.199   7.118   6.361
12689TIP3    H238025   5.170   6.970   6.361
12690TIP3   OH238026   7.860   7.072   6.047
12690TIP3    H138027   7.932   7.133   6.066
12690TIP3    H238028   7.796   7.088   6.117
12691TIP3   OH238029   0.564   5.067   4.255
12691TIP3    H138030   0.526   5.068   4.343
12691TIP3    H238031   0.522   4.992   4.212
12692TIP3   OH238032   5.559   0.277   5.659
12692TIP3    H138033   5.651   0.256   5.672
12692TIP3    H238034   5.541   0.346   5.723
12693TIP3   OH238035   6.275   0.971   5.812
12693TIP3    H138036   6.317   1.056   5.827
12693TIP3    H238037   6.196   0.974   5.865
12694TIP3   OH238038   5.437   0.658   0.444
12694TIP3    H138039   5.400   0.728   0.496
12694TIP3    H238040   5.385   0.581   0.467
12695TIP3   OH238041   0.858   2.651   3.140
12695TIP3    H138042   0.898   2.693   3.064
12695TIP3    H238043   0.867   2.557   3.123
12696TIP3   OH238044   6.350   6.533   2.914
12696TIP3    H138045   6.395   6.494   2.988
12696TIP3    H238046   6.282   6.470   2.891
12697TIP3   OH238047   0.170   4.786   1.270
12697TIP3    H138048   0.246   4.824   1.313
12697TIP3    H238049   0.104   4.778   1.340
12698TIP3   OH238050   0.943   4.132   1.743
12698TIP3    H138051   1.016   4.075   1.768
12698TIP3    H238052   0.946   4.136   1.648
12699TIP3   OH238053   1.833   5.888   3.006
12699TIP3    H138054   1.834   5.960   3.069
12699TIP3    H238055   1.742   5.859   3.004
12700TIP3   OH238056   4.141   7.750   5.965
12700TIP3    H138057   4.160   7.816   5.898
12700TIP3    H238058   4.061   7.781   6.007
12701TIP3   OH238059   1.733   2.608   4.669
12701TIP3    H138060   1.658   2.599   4.727
12701TIP3    H238061   1.800   2.551   4.706
12702TIP3   OH238062   8.022   6.336   0.511
12702TIP3    H138063   7.967   6.350   0.433
12702TIP3    H238064   7.969   6.368   0.584
12703TIP3   OH238065   1.687   7.001   3.089
12703TIP3    H138066   1.662   6.973   3.177
12703TIP3    H238067   1.605   7.010   3.041
12704TIP3   OH238068   6.129   5.241   2.748
12704TIP3    H138069   6.186   5.297   2.695
12704TIP3    H238070   6.181   5.163   2.765
12705TIP3   OH238071   7.388   7.077   0.269
12705TIP3    H138072   7.448   7.053   0.198
12705TIP3    H238073   7.408   7.169   0.286
12706TIP3   OH238074   5.903   7.518   0.728
12706TIP3    H138075   5.946   7.602   0.746
12706TIP3    H238076   5.819   7.541   0.690
12707TIP3   OH238077   1.768   1.755   4.329
12707TIP3    H138078   1.853   1.715   4.349
12707TIP3    H238079   1.786   1.817   4.259
12708TIP3   OH238080   8.045   3.303   4.962
12708TIP3    H138081   8.002   3.219   4.945
12708TIP3    H238082   8.101   3.286   5.038
12709TIP3   OH238083   2.554   7.071   5.281
12709TIP3    H138084   2.591   7.151   5.242
12709TIP3    H238085   2.629   7.013   5.291
12710TIP3   OH238086   2.787   3.102   0.741
12710TIP3    H138087   2.696   3.078   0.755
12710TIP3    H238088   2.837   3.040   0.795
12711TIP3   OH238089   5.907   2.539   2.526
12711TIP3    H138090   5.909   2.576   2.438
12711TIP3    H238091   5.932   2.612   2.583
12712TIP3   OH238092   5.120   4.810   1.796
12712TIP3    H138093   5.141   4.809   1.889
12712TIP3    H238094   5.043   4.753   1.788
12713TIP3   OH238095   6.427   7.333   3.495
12713TIP3    H138096   6.396   7.322   3.584
12713TIP3    H238097   6.347   7.335   3.442
12714TIP3   OH238098   3.256   1.239   0.094
12714TIP3    H138099   3.298   1.322   0.074
12714TIP3    H238100   3.269   1.227   0.188
12715TIP3   OH238101   0.354   2.971   6.682
12715TIP3    H138102   0.343   3.066   6.686
12715TIP3    H238103   0.432   2.953   6.734
12716TIP3   OH238104   1.581   1.511   0.221
12716TIP3    H138105   1.671   1.496   0.190
12716TIP3    H238106   1.527   1.498   0.144
12717TIP3   OH238107   7.307   1.487   5.538
12717TIP3    H138108   7.217   1.461   5.519
12717TIP3    H238109   7.310   1.581   5.521
12718TIP3   OH238110   0.232   4.493   0.182
12718TIP3    H138111   0.233   4.456   0.094
12718TIP3    H238112   0.271   4.580   0.172
12719TIP3   OH238113   5.589   2.283   3.373
12719TIP3    H138114   5.643   2.233   3.433
12719TIP3    H238115   5.615   2.251   3.286
12720TIP3   OH238116   7.863   1.216   0.996
12720TIP3    H138117   7.952   1.230   0.967
12720TIP3    H238118   7.816   1.188   0.918
12721TIP3   OH238119   4.559   5.011   0.443
12721TIP3    H138120   4.501   4.942   0.476
12721TIP3    H238121   4.605   5.041   0.522
12722TIP3   OH238122   3.187   4.363   6.012
12722TIP3    H138123   3.109   4.333   6.058
12722TIP3    H238124   3.214   4.442   6.058
12723TIP3   OH238125   6.972   7.357   2.138
12723TIP3    H138126   7.016   7.399   2.064
12723TIP3    H238127   6.945   7.272   2.105
12724TIP3   OH238128   0.184   1.847   3.340
12724TIP3    H138129   0.128   1.883   3.271
12724TIP3    H238130   0.174   1.908   3.413
12725TIP3   OH238131   4.971   2.655   6.273
12725TIP3    H138132   4.977   2.706   6.353
12725TIP3    H238133   5.052   2.673   6.226
12726TIP3   OH238134   7.122   1.812   0.428
12726TIP3    H138135   7.028   1.825   0.440
12726TIP3    H238136   7.138   1.828   0.335
12727TIP3   OH238137   2.452   5.949   2.271
12727TIP3    H138138   2.523   5.999   2.311
12727TIP3    H238139   2.384   6.014   2.253
12728TIP3   OH238140   0.100   6.719   0.401
12728TIP3    H138141   0.098   6.814   0.387
12728TIP3    H238142   0.007   6.694   0.403
12729TIP3   OH238143   6.748   7.742   0.872
12729TIP3    H138144   6.763   7.801   0.946
12729TIP3    H238145   6.824   7.756   0.815
12730TIP3   OH238146   1.254   2.109   5.522
12730TIP3    H138147   1.231   2.136   5.433
12730TIP3    H238148   1.307   2.030   5.511
12731TIP3   OH238149   7.572   1.336   1.075
12731TIP3    H138150   7.565   1.405   1.009
12731TIP3    H238151   7.658   1.298   1.062
12732TIP3   OH238152   5.363   7.401   2.329
12732TIP3    H138153   5.346   7.358   2.413
12732TIP3    H238154   5.391   7.329   2.272
12733TIP3   OH238155   4.273   3.783   3.057
12733TIP3    H138156   4.277   3.805   2.964
12733TIP3    H238157   4.199   3.723   3.065
12734TIP3   OH238158   8.272   2.247   5.265
12734TIP3    H138159   8.340   2.290   5.317
12734TIP3    H238160   8.192   2.254   5.317
12735TIP3   OH238161   4.882   3.707   5.786
12735TIP3    H138162   4.830   3.629   5.768
12735TIP3    H238163   4.973   3.676   5.783
12736TIP3   OH238164   5.514   6.896   1.457
12736TIP3    H138165   5.550   6.943   1.532
12736TIP3    H238166   5.587   6.842   1.425
12737TIP3   OH238167   1.734   5.860   2.665
12737TIP3    H138168   1.814   5.838   2.714
12737TIP3    H238169   1.672   5.792   2.689
12738TIP3   OH238170   4.376   4.357   3.610
12738TIP3    H138171   4.424   4.395   3.683
12738TIP3    H238172   4.358   4.267   3.636
12739TIP3   OH238173   2.265   0.930   3.095
12739TIP3    H138174   2.299   0.985   3.166
12739TIP3    H238175   2.286   0.841   3.121
12740TIP3   OH238176   7.537   4.679   4.096
12740TIP3    H138177   7.457   4.659   4.048
12740TIP3    H238178   7.507   4.728   4.173
12741TIP3   OH238179   4.435   6.748   3.090
12741TIP3    H138180   4.365   6.784   3.144
12741TIP3    H238181   4.395   6.674   3.045
12742TIP3   OH238182   7.806   5.072   6.771
12742TIP3    H138183   7.733   5.010   6.767
12742TIP3    H238184   7.825   5.092   6.679
12743TIP3   OH238185   8.132   5.016   2.342
12743TIP3    H138186   8.132   4.943   2.280
12743TIP3    H238187   8.064   4.993   2.406
12744TIP3   OH238188   2.311   4.122   1.803
12744TIP3    H138189   2.324   4.124   1.898
12744TIP3    H238190   2.216   4.123   1.792
12745TIP3   OH238191   7.684   6.778   0.532
12745TIP3    H138192   7.687   6.831   0.452
12745TIP3    H238193   7.623   6.824   0.589
12746TIP3   OH238194   1.329   7.050   1.664
12746TIP3    H138195   1.280   7.014   1.738
12746TIP3    H238196   1.411   7.000   1.664
12747TIP3   OH238197   1.993   2.959   5.688
12747TIP3    H138198   1.903   2.989   5.702
12747TIP3    H238199   2.045   3.008   5.752
12748TIP3   OH238200   4.418   3.076   5.772
12748TIP3    H138201   4.373   3.084   5.856
12748TIP3    H238202   4.378   2.999   5.731
12749TIP3   OH238203   5.421   0.474   2.011
12749TIP3    H138204   5.474   0.428   1.946
12749TIP3    H238205   5.344   0.504   1.962
12750TIP3   OH238206   0.224   1.769   5.730
12750TIP3    H138207   0.253   1.713   5.803
12750TIP3    H238208   0.299   1.826   5.712
12751TIP3   OH238209   8.071   3.796   2.922
12751TIP3    H138210   8.144   3.858   2.924
12751TIP3    H238211   8.009   3.834   2.860
12752TIP3   OH238212   4.379   3.182   0.109
12752TIP3    H138213   4.364   3.109   0.169
12752TIP3    H238214   4.346   3.258   0.157
12753TIP3   OH238215   2.450   1.404   6.080
12753TIP3    H138216   2.472   1.353   6.158
12753TIP3    H238217   2.401   1.479   6.114
12754TIP3   OH238218   4.592   5.716   1.061
12754TIP3    H138219   4.500   5.701   1.039
12754TIP3    H238220   4.639   5.649   1.011
12755TIP3   OH238221   7.306   6.351   4.790
12755TIP3    H138222   7.377   6.415   4.802
12755TIP3    H238223   7.323   6.313   4.704
12756TIP3   OH238224   5.542   6.217   6.332
12756TIP3    H138225   5.532   6.274   6.408
12756TIP3    H238226   5.462   6.165   6.329
12757TIP3   OH238227   7.170   0.363   3.233
12757TIP3    H138228   7.139   0.274   3.248
12757TIP3    H238229   7.099   0.405   3.184
12758TIP3   OH238230   7.229   0.066   6.393
12758TIP3    H138231   7.141   0.076   6.358
12758TIP3    H238232   7.236  -0.026   6.416
12759TIP3   OH238233   1.296   5.352   6.418
12759TIP3    H138234   1.336   5.295   6.483
12759TIP3    H238235   1.339   5.330   6.336
12760TIP3   OH238236   4.578   7.056   1.255
12760TIP3    H138237   4.638   7.115   1.299
12760TIP3    H238238   4.635   6.996   1.206
12761TIP3   OH238239   1.889   6.410   0.527
12761TIP3    H138240   1.901   6.385   0.436
12761TIP3    H238241   1.931   6.496   0.533
12762TIP3   OH238242   4.704   3.621   4.117
12762TIP3    H138243   4.716   3.679   4.192
12762TIP3    H238244   4.757   3.544   4.138
12763TIP3   OH238245   4.115   6.623   2.121
12763TIP3    H138246   4.071   6.589   2.199
12763TIP3    H238247   4.158   6.704   2.151
12764TIP3   OH238248   5.284   5.394   1.184
12764TIP3    H138249   5.315   5.425   1.269
12764TIP3    H238250   5.236   5.469   1.148
12765TIP3   OH238251   7.249   2.272   4.372
12765TIP3    H138252   7.267   2.284   4.279
12765TIP3    H238253   7.317   2.213   4.403
12766TIP3   OH238254   7.975   2.142   1.835
12766TIP3    H138255   8.052   2.112   1.884
12766TIP3    H238256   7.973   2.086   1.757
12767TIP3   OH238257   2.678   5.205   0.861
12767TIP3    H138258   2.615   5.133   0.861
12767TIP3    H238259   2.656   5.256   0.939
12768TIP3   OH238260   5.987   3.052   5.936
12768TIP3    H138261   5.899   3.014   5.929
12768TIP3    H238262   6.026   3.008   6.011
12769TIP3   OH238263   7.161   7.512   5.327
12769TIP3    H138264   7.200   7.544   5.409
12769TIP3    H238265   7.236   7.503   5.268
12770TIP3   OH238266   2.852   7.695   3.482
12770TIP3    H138267   2.837   7.602   3.466
12770TIP3    H238268   2.905   7.724   3.407
12771TIP3   OH238269   3.047   4.175   4.278
12771TIP3    H138270   3.092   4.216   4.352
12771TIP3    H238271   3.021   4.247   4.222
12772TIP3   OH238272   7.856   5.747   1.613
12772TIP3    H138273   7.892   5.658   1.610
12772TIP3    H238274   7.834   5.767   1.522
12773TIP3   OH238275   7.761   3.027   6.188
12773TIP3    H138276   7.681   3.060   6.147
12773TIP3    H238277   7.735   3.005   6.277
12774TIP3   OH238278   3.694   6.022   5.318
12774TIP3    H138279   3.644   6.006   5.238
12774TIP3    H238280   3.710   6.116   5.318
12775TIP3   OH238281   3.059   5.984   0.453
12775TIP3    H138282   3.103   6.063   0.421
12775TIP3    H238283   2.997   5.962   0.383
12776TIP3   OH238284   5.062   1.736   2.726
12776TIP3    H138285   5.107   1.794   2.664
12776TIP3    H238286   4.980   1.781   2.745
12777TIP3   OH238287   7.235   7.244   3.171
12777TIP3    H138288   7.166   7.310   3.169
12777TIP3    H238289   7.222   7.198   3.254
12778TIP3   OH238290   1.828   1.559   1.069
12778TIP3    H138291   1.892   1.488   1.076
12778TIP3    H238292   1.878   1.638   1.085
12779TIP3   OH238293   4.248   6.636   6.527
12779TIP3    H138294   4.249   6.602   6.438
12779TIP3    H238295   4.233   6.560   6.582
12780TIP3   OH238296   2.466   3.657   0.104
12780TIP3    H138297   2.480   3.652   0.009
12780TIP3    H238298   2.534   3.717   0.135
12781TIP3   OH238299   4.836   2.286   2.373
12781TIP3    H138300   4.832   2.210   2.314
12781TIP3    H238301   4.770   2.269   2.439
12782TIP3   OH238302   6.533   2.989   6.267
12782TIP3    H138303   6.446   3.006   6.303
12782TIP3    H238304   6.520   2.915   6.207
12783TIP3   OH238305   1.945   5.261   0.933
12783TIP3    H138306   1.949   5.312   1.013
12783TIP3    H238307   1.853   5.233   0.927
12784TIP3   OH238308   4.589   1.522   2.260
12784TIP3    H138309   4.639   1.460   2.313
12784TIP3    H238310   4.520   1.553   2.319
12785TIP3   OH238311   4.252   6.276   1.730
12785TIP3    H138312   4.255   6.338   1.657
12785TIP3    H238313   4.202   6.322   1.798
12786TIP3   OH238314   6.793   3.416   3.893
12786TIP3    H138315   6.880   3.392   3.924
12786TIP3    H238316   6.733   3.363   3.945
12787TIP3   OH238317   0.441   3.049   4.590
12787TIP3    H138318   0.479   2.961   4.596
12787TIP3    H238319   0.510   3.108   4.621
12788TIP3   OH238320   4.550   7.491   4.146
12788TIP3    H138321   4.553   7.578   4.107
12788TIP3    H238322   4.575   7.432   4.075
12789TIP3   OH238323   1.319   0.483   0.433
12789TIP3    H138324   1.384   0.483   0.364
12789TIP3    H238325   1.358   0.432   0.504
12790TIP3   OH238326   7.235   4.494   6.080
12790TIP3    H138327   7.182   4.476   6.158
12790TIP3    H238328   7.324   4.473   6.107
12791TIP3   OH238329   3.048   0.723   3.496
12791TIP3    H138330   2.973   0.756   3.446
12791TIP3    H238331   3.125   0.747   3.443
12792TIP3   OH238332   1.659   4.299   5.135
12792TIP3    H138333   1.573   4.333   5.112
12792TIP3    H238334   1.702   4.284   5.051
12793TIP3   OH238335   5.459   5.177   1.116
12793TIP3    H138336   5.407   5.255   1.136
12793TIP3    H238337   5.490   5.146   1.201
12794TIP3   OH238338   8.043   7.218   4.219
12794TIP3    H138339   7.948   7.229   4.215
12794TIP3    H238340   8.056   7.125   4.235
12795TIP3   OH238341   4.423   0.016   1.390
12795TIP3    H138342   4.437   0.035   1.297
12795TIP3    H238343   4.328   0.024   1.402
12796TIP3   OH238344   3.405   7.452   5.331
12796TIP3    H138345   3.419   7.504   5.410
12796TIP3    H238346   3.485   7.400   5.322
12797TIP3   OH238347   6.655   4.956   5.122
12797TIP3    H138348   6.645   4.959   5.218
12797TIP3    H238349   6.748   4.939   5.109
12798TIP3   OH238350   0.286   4.064   5.185
12798TIP3    H138351   0.243   4.055   5.270
12798TIP3    H238352   0.311   4.156   5.180
12799TIP3   OH238353   2.577   7.113   4.202
12799TIP3    H138354   2.538   7.196   4.174
12799TIP3    H238355   2.618   7.133   4.287
12800TIP3   OH238356   0.281   6.426   0.055
12800TIP3    H138357   0.318   6.376  -0.018
12800TIP3    H238358   0.262   6.360   0.122
12801TIP3   OH238359   4.244   6.123   4.360
12801TIP3    H138360   4.323   6.070   4.373
12801TIP3    H238361   4.276   6.207   4.327
12802TIP3   OH238362   5.516   7.293   4.586
12802TIP3    H138363   5.552   7.329   4.506
12802TIP3    H238364   5.480   7.208   4.561
12803TIP3   OH238365   3.775   2.823   5.419
12803TIP3    H138366   3.704   2.784   5.368
12803TIP3    H238367   3.805   2.754   5.478
12804TIP3   OH238368   4.337   1.601   4.987
12804TIP3    H138369   4.423   1.639   5.005
12804TIP3    H238370   4.284   1.675   4.955
12805TIP3   OH238371   4.973   4.700   1.374
12805TIP3    H138372   5.015   4.664   1.296
12805TIP3    H238373   5.034   4.766   1.406
12806TIP3   OH238374   5.951   2.417   5.191
12806TIP3    H138375   5.973   2.414   5.098
12806TIP3    H238376   6.032   2.392   5.235
12807TIP3   OH238377   6.904   4.457   5.854
12807TIP3    H138378   6.955   4.487   5.929
12807TIP3    H238379   6.956   4.385   5.817
12808TIP3   OH238380   3.228   7.176   2.698
12808TIP3    H138381   3.188   7.165   2.612
12808TIP3    H238382   3.181   7.114   2.754
12809TIP3   OH238383   8.287   1.953   3.164
12809TIP3    H138384   8.267   2.040   3.130
12809TIP3    H238385   8.212   1.930   3.218
12810TIP3   OH238386   3.260   6.441   2.381
12810TIP3    H138387   3.186   6.390   2.412
12810TIP3    H238388   3.324   6.436   2.452
12811TIP3   OH238389   3.398   6.938   6.428
12811TIP3    H138390   3.366   7.028   6.418
12811TIP3    H238391   3.391   6.920   6.521
12812TIP3   OH238392   5.296   2.675   3.491
12812TIP3    H138393   5.321   2.707   3.578
12812TIP3    H238394   5.333   2.587   3.487
12813TIP3   OH238395   2.679   3.507   4.466
12813TIP3    H138396   2.658   3.576   4.403
12813TIP3    H238397   2.722   3.439   4.414
12814TIP3   OH238398   3.488   1.199   6.507
12814TIP3    H138399   3.485   1.209   6.603
12814TIP3    H238400   3.423   1.262   6.475
12815TIP3   OH238401   6.771   3.926   1.532
12815TIP3    H138402   6.706   3.938   1.601
12815TIP3    H238403   6.844   3.881   1.575
12816TIP3   OH238404   0.853   3.005   3.199
12816TIP3    H138405   0.913   2.966   3.262
12816TIP3    H238406   0.898   2.997   3.115
12817TIP3   OH238407   4.693   1.896   1.170
12817TIP3    H138408   4.763   1.854   1.120
12817TIP3    H238409   4.664   1.969   1.115
12818TIP3   OH238410   4.156   2.970   1.346
12818TIP3    H138411   4.169   2.914   1.423
12818TIP3    H238412   4.094   2.922   1.291
12819TIP3   OH238413   4.970   1.680   3.456
12819TIP3    H138414   4.879   1.708   3.450
12819TIP3    H238415   5.015   1.727   3.386
12820TIP3   OH238416   1.553   0.879   2.410
12820TIP3    H138417   1.461   0.898   2.427
12820TIP3    H238418   1.599   0.960   2.430
12821TIP3   OH238419   4.796   4.792   0.046
12821TIP3    H138420   4.805   4.701   0.075
12821TIP3    H238421   4.835   4.843   0.117
12822TIP3   OH238422   5.732   1.214   6.296
12822TIP3    H138423   5.761   1.155   6.227
12822TIP3    H238424   5.812   1.234   6.345
12823TIP3   OH238425   6.386   5.069   3.906
12823TIP3    H138426   6.445   5.089   3.833
12823TIP3    H238427   6.303   5.045   3.864
12824TIP3   OH238428   3.480   6.851   4.970
12824TIP3    H138429   3.497   6.780   5.031
12824TIP3    H238430   3.546   6.917   4.991
12825TIP3   OH238431   4.899   7.746   5.809
12825TIP3    H138432   4.898   7.805   5.884
12825TIP3    H238433   4.829   7.683   5.827
12826TIP3   OH238434   3.850   2.574   5.485
12826TIP3    H138435   3.814   2.490   5.458
12826TIP3    H238436   3.945   2.559   5.488
12827TIP3   OH238437   2.543   7.521   1.112
12827TIP3    H138438   2.597   7.499   1.188
12827TIP3    H238439   2.514   7.610   1.129
12828TIP3   OH238440   3.501   5.216   2.178
12828TIP3    H138441   3.429   5.267   2.141
12828TIP3    H238442   3.514   5.144   2.116
12829TIP3   OH238443   6.922   0.319   1.651
12829TIP3    H138444   6.898   0.234   1.688
12829TIP3    H238445   6.876   0.322   1.567
12830TIP3   OH238446   0.250   6.184   5.116
12830TIP3    H138447   0.174   6.164   5.170
12830TIP3    H238448   0.322   6.138   5.158
12831TIP3   OH238449   3.084   7.824   1.978
12831TIP3    H138450   2.994   7.826   2.009
12831TIP3    H238451   3.080   7.857   1.888
12832TIP3   OH238452   4.229   1.954   6.034
12832TIP3    H138453   4.316   1.916   6.024
12832TIP3    H238454   4.181   1.891   6.088
12833TIP3   OH238455   2.797   5.597   2.336
12833TIP3    H138456   2.777   5.518   2.285
12833TIP3    H238457   2.722   5.606   2.395
12834TIP3   OH238458   2.339   7.348   5.182
12834TIP3    H138459   2.249   7.381   5.176
12834TIP3    H238460   2.392   7.416   5.140
12835TIP3   OH238461   6.001   3.026   4.171
12835TIP3    H138462   6.090   3.021   4.205
12835TIP3    H238463   5.989   3.119   4.149
12836TIP3   OH238464   2.680   5.294   2.713
12836TIP3    H138465   2.754   5.351   2.691
12836TIP3    H238466   2.678   5.293   2.809
12837TIP3   OH238467   0.654   7.274   0.155
12837TIP3    H138468   0.646   7.184   0.124
12837TIP3    H238469   0.702   7.319   0.085
12838TIP3   OH238470   1.557   7.178   4.742
12838TIP3    H138471   1.516   7.103   4.698
12838TIP3    H238472   1.485   7.219   4.791
12839TIP3   OH238473   2.715   4.500   5.470
12839TIP3    H138474   2.791   4.533   5.421
12839TIP3    H238475   2.734   4.408   5.485
12840TIP3   OH238476   0.696   2.941   5.712
12840TIP3    H138477   0.634   2.920   5.783
12840TIP3    H238478   0.770   2.882   5.726
12841TIP3   OH238479   4.158   5.700   6.051
12841TIP3    H138480   4.208   5.753   6.113
12841TIP3    H238481   4.120   5.630   6.104
12842TIP3   OH238482   3.887   7.218   1.215
12842TIP3    H138483   3.952   7.172   1.268
12842TIP3    H238484   3.938   7.277   1.160
12843TIP3   OH238485   5.889   4.514   5.505
12843TIP3    H138486   5.913   4.453   5.575
12843TIP3    H238487   5.952   4.495   5.435
12844TIP3   OH238488   6.109   7.812   2.954
12844TIP3    H138489   6.189   7.761   2.959
12844TIP3    H238490   6.101   7.853   3.040
12845TIP3   OH238491   4.125   5.671   6.467
12845TIP3    H138492   4.097   5.671   6.558
12845TIP3    H238493   4.218   5.696   6.470
12846TIP3   OH238494   4.303   3.729   0.848
12846TIP3    H138495   4.303   3.635   0.861
12846TIP3    H238496   4.319   3.766   0.935
12847TIP3   OH238497   6.814   6.567   1.489
12847TIP3    H138498   6.865   6.492   1.521
12847TIP3    H238499   6.766   6.598   1.565
12848TIP3   OH238500   6.176   6.236   6.493
12848TIP3    H138501   6.161   6.148   6.459
12848TIP3    H238502   6.173   6.293   6.416
12849TIP3   OH238503   4.599   7.384   2.453
12849TIP3    H138504   4.589   7.313   2.517
12849TIP3    H238505   4.665   7.351   2.391
12850TIP3   OH238506   3.262   5.794   6.251
12850TIP3    H138507   3.339   5.826   6.298
12850TIP3    H238508   3.289   5.788   6.160
12851TIP3   OH238509   3.496   4.393   2.871
12851TIP3    H138510   3.554   4.440   2.931
12851TIP3    H238511   3.509   4.437   2.787
12852TIP3   OH238512   1.522   5.154   4.520
12852TIP3    H138513   1.551   5.084   4.463
12852TIP3    H238514   1.519   5.232   4.464
12853TIP3   OH238515   1.206   3.357   3.034
12853TIP3    H138516   1.299   3.335   3.041
12853TIP3    H238517   1.167   3.320   3.113
12854TIP3   OH238518   6.361   7.404   1.554
12854TIP3    H138519   6.391   7.465   1.622
12854TIP3    H238520   6.295   7.351   1.598
12855TIP3   OH238521   1.308   4.434   4.342
12855TIP3    H138522   1.261   4.354   4.364
12855TIP3    H238523   1.351   4.460   4.424
12856TIP3   OH238524   0.701   5.123   4.668
12856TIP3    H138525   0.637   5.186   4.633
12856TIP3    H238526   0.755   5.175   4.727
12857TIP3   OH238527   7.604   3.191   5.313
12857TIP3    H138528   7.540   3.262   5.311
12857TIP3    H238529   7.601   3.153   5.225
12858TIP3   OH238530   2.149   2.311   0.485
12858TIP3    H138531   2.183   2.288   0.398
12858TIP3    H238532   2.083   2.378   0.468
12859TIP3   OH238533   7.469   1.447   4.656
12859TIP3    H138534   7.433   1.476   4.739
12859TIP3    H238535   7.476   1.526   4.603
12860TIP3   OH238536   0.968   0.879   6.734
12860TIP3    H138537   0.977   0.971   6.759
12860TIP3    H238538   0.989   0.830   6.813
12861TIP3   OH238539   0.522   3.297   1.468
12861TIP3    H138540   0.511   3.274   1.560
12861TIP3    H238541   0.448   3.256   1.424
12862TIP3   OH238542   2.222   0.794   6.105
12862TIP3    H138543   2.294   0.853   6.082
12862TIP3    H238544   2.193   0.824   6.191
12863TIP3   OH238545   3.925   6.169   1.925
12863TIP3    H138546   3.916   6.260   1.952
12863TIP3    H238547   3.906   6.169   1.831
12864TIP3   OH238548   0.395   2.746   6.103
12864TIP3    H138549   0.323   2.703   6.148
12864TIP3    H238550   0.383   2.840   6.121
12865TIP3   OH238551   5.233   5.714   4.126
12865TIP3    H138552   5.146   5.735   4.161
12865TIP3    H238553   5.260   5.637   4.175
12866TIP3   OH238554   5.288   5.530   6.570
12866TIP3    H138555   5.217   5.466   6.567
12866TIP3    H238556   5.355   5.495   6.512
12867TIP3   OH238557   0.885   0.908   4.079
12867TIP3    H138558   0.828   0.951   4.016
12867TIP3    H238559   0.972   0.908   4.038
12868TIP3   OH238560   7.142   6.249   5.548
12868TIP3    H138561   7.107   6.232   5.461
12868TIP3    H238562   7.093   6.325   5.579
12869TIP3   OH238563   3.607   3.611   0.489
12869TIP3    H138564   3.653   3.615   0.573
12869TIP3    H238565   3.515   3.620   0.511
12870TIP3   OH238566   7.486   2.213   1.964
12870TIP3    H138567   7.489   2.118   1.966
12870TIP3    H238568   7.574   2.240   1.991
12871TIP3   OH238569   1.913   3.341   6.326
12871TIP3    H138570   1.994   3.358   6.278
12871TIP3    H238571   1.883   3.256   6.292
12872TIP3   OH238572   3.542   6.888   4.336
12872TIP3    H138573   3.563   6.977   4.363
12872TIP3    H238574   3.511   6.897   4.246
12873TIP3   OH238575   6.551   3.199   6.075
12873TIP3    H138576   6.479   3.170   6.020
12873TIP3    H238577   6.560   3.130   6.141
12874TIP3   OH238578   3.499   1.637   4.355
12874TIP3    H138579   3.514   1.732   4.355
12874TIP3    H238580   3.545   1.606   4.277
12875TIP3   OH238581   1.551   4.516   4.260
12875TIP3    H138582   1.463   4.488   4.284
12875TIP3    H238583   1.553   4.510   4.164
12876TIP3   OH238584   1.923   3.607  -0.020
12876TIP3    H138585   1.917   3.546   0.054
12876TIP3    H238586   1.999   3.661  -0.001
12877TIP3   OH238587   2.006   2.489   4.848
12877TIP3    H138588   1.989   2.566   4.903
12877TIP3    H238589   2.087   2.453   4.883
12878TIP3   OH238590   5.144   6.267   0.299
12878TIP3    H138591   5.086   6.329   0.343
12878TIP3    H238592   5.143   6.189   0.356
12879TIP3   OH238593   7.856   4.394   3.398
12879TIP3    H138594   7.811   4.322   3.354
12879TIP3    H238595   7.833   4.471   3.346
12880TIP3   OH238596   1.947   3.844   0.311
12880TIP3    H138597   2.003   3.916   0.282
12880TIP3    H238598   2.008   3.780   0.349
12881TIP3   OH238599   3.446   3.350   1.023
12881TIP3    H138600   3.461   3.444   1.021
12881TIP3    H238601   3.534   3.312   1.033
12882TIP3   OH238602   6.368   5.668   3.442
12882TIP3    H138603   6.462   5.653   3.436
12882TIP3    H238604   6.346   5.647   3.533
12883TIP3   OH238605   6.750   2.490   4.110
12883TIP3    H138606   6.811   2.486   4.184
12883TIP3    H238607   6.663   2.479   4.150
12884TIP3   OH238608   1.870   3.737   1.333
12884TIP3    H138609   1.835   3.679   1.401
12884TIP3    H238610   1.793   3.766   1.284
12885TIP3   OH238611   7.487   2.825   1.786
12885TIP3    H138612   7.565   2.771   1.804
12885TIP3    H238613   7.465   2.864   1.870
12886TIP3   OH238614   6.710   7.326   1.498
12886TIP3    H138615   6.766   7.292   1.429
12886TIP3    H238616   6.648   7.256   1.516
12887TIP3   OH238617   7.805   6.842   3.465
12887TIP3    H138618   7.764   6.761   3.437
12887TIP3    H238619   7.886   6.815   3.509
12888TIP3   OH238620   7.717   0.782   4.928
12888TIP3    H138621   7.653   0.840   4.888
12888TIP3    H238622   7.784   0.770   4.860
12889TIP3   OH238623   7.223   3.795   0.190
12889TIP3    H138624   7.217   3.890   0.195
12889TIP3    H238625   7.248   3.767   0.278
12890TIP3   OH238626   4.409   2.012   0.072
12890TIP3    H138627   4.421   1.976  -0.016
12890TIP3    H238628   4.497   2.039   0.100
12891TIP3   OH238629   1.778   7.280   3.154
12891TIP3    H138630   1.741   7.271   3.066
12891TIP3    H238631   1.858   7.331   3.142
12892TIP3   OH238632   7.920   2.970   3.294
12892TIP3    H138633   7.851   2.907   3.274
12892TIP3    H238634   7.945   2.951   3.384
12893TIP3   OH238635   2.443   0.488   6.694
12893TIP3    H138636   2.491   0.411   6.726
12893TIP3    H238637   2.446   0.550   6.767
12894TIP3   OH238638   3.510   2.377   2.699
12894TIP3    H138639   3.590   2.332   2.672
12894TIP3    H238640   3.466   2.398   2.616
12895TIP3   OH238641   0.946   0.209   5.757
12895TIP3    H138642   0.919   0.289   5.803
12895TIP3    H238643   1.002   0.240   5.686
12896TIP3   OH238644   3.969   2.273   4.589
12896TIP3    H138645   3.951   2.364   4.616
12896TIP3    H238646   3.983   2.278   4.495
12897TIP3   OH238647   6.621   0.317   5.920
12897TIP3    H138648   6.551   0.375   5.889
12897TIP3    H238649   6.669   0.371   5.983
12898TIP3   OH238650   5.563   0.972   2.072
12898TIP3    H138651   5.650   1.013   2.076
12898TIP3    H238652   5.581   0.883   2.043
12899TIP3   OH238653   7.437   6.484   3.364
12899TIP3    H138654   7.496   6.410   3.376
12899TIP3    H238655   7.357   6.458   3.410
12900TIP3   OH238656   0.663   5.552   0.226
12900TIP3    H138657   0.607   5.580   0.298
12900TIP3    H238658   0.698   5.633   0.189
12901TIP3   OH238659   2.000   4.516   2.478
12901TIP3    H138660   1.907   4.538   2.472
12901TIP3    H238661   2.014   4.497   2.571
12902TIP3   OH238662   4.502   5.280   0.859
12902TIP3    H138663   4.520   5.262   0.766
12902TIP3    H238664   4.409   5.306   0.860
12903TIP3   OH238665   0.069   6.997   6.275
12903TIP3    H138666   0.105   6.910   6.258
12903TIP3    H238667   0.143   7.057   6.262
12904TIP3   OH238668   7.208   1.760   4.453
12904TIP3    H138669   7.229   1.827   4.519
12904TIP3    H238670   7.116   1.775   4.432
12905TIP3   OH238671   7.382   2.471   5.188
12905TIP3    H138672   7.334   2.534   5.242
12905TIP3    H238673   7.402   2.518   5.107
12906TIP3   OH238674   7.692   4.002   5.025
12906TIP3    H138675   7.636   3.936   5.066
12906TIP3    H238676   7.678   3.990   4.931
12907TIP3   OH238677   5.587   7.813   6.001
12907TIP3    H138678   5.653   7.810   5.932
12907TIP3    H238679   5.549   7.725   6.000
12908TIP3   OH238680   8.183   5.144   0.834
12908TIP3    H138681   8.144   5.057   0.846
12908TIP3    H238682   8.219   5.166   0.920
12909TIP3   OH238683   0.252   3.487   6.682
12909TIP3    H138684   0.172   3.530   6.652
12909TIP3    H238685   0.323   3.545   6.655
12910TIP3   OH238686   1.299   2.662   4.695
12910TIP3    H138687   1.217   2.668   4.743
12910TIP3    H238688   1.332   2.751   4.691
12911TIP3   OH238689   7.351   6.674   5.763
12911TIP3    H138690   7.445   6.685   5.744
12911TIP3    H238691   7.324   6.757   5.800
12912TIP3   OH238692   5.665   6.861   6.225
12912TIP3    H138693   5.599   6.856   6.294
12912TIP3    H238694   5.640   6.937   6.173
12913TIP3   OH238695   3.502   1.477   0.332
12913TIP3    H138696   3.489   1.386   0.358
12913TIP3    H238697   3.469   1.481   0.242
12914TIP3   OH238698   6.970   7.851   5.248
12914TIP3    H138699   6.969   7.756   5.260
12914TIP3    H238700   7.047   7.868   5.194
12915TIP3   OH238701   4.752   0.243   5.188
12915TIP3    H138702   4.744   0.182   5.115
12915TIP3    H238703   4.802   0.317   5.152
12916TIP3   OH238704   5.578   6.873   3.222
12916TIP3    H138705   5.500   6.873   3.167
12916TIP3    H238706   5.581   6.961   3.259
12917TIP3   OH238707   2.799   7.131   4.908
12917TIP3    H138708   2.882   7.164   4.944
12917TIP3    H238709   2.826   7.068   4.841
12918TIP3   OH238710   0.596   0.509   3.030
12918TIP3    H138711   0.677   0.512   3.081
12918TIP3    H238712   0.526   0.517   3.095
12919TIP3   OH238713   4.158   6.000   3.223
12919TIP3    H138714   4.072   6.026   3.191
12919TIP3    H238715   4.214   6.076   3.205
12920TIP3   OH238716   0.101   7.480   1.757
12920TIP3    H138717   0.045   7.554   1.781
12920TIP3    H238718   0.158   7.514   1.688
12921TIP3   OH238719   1.260   0.722   2.838
12921TIP3    H138720   1.281   0.665   2.763
12921TIP3    H238721   1.166   0.735   2.831
12922TIP3   OH238722   7.884   7.309   5.834
12922TIP3    H138723   7.934   7.296   5.915
12922TIP3    H238724   7.872   7.404   5.828
12923TIP3   OH238725   2.451   4.983   4.214
12923TIP3    H138726   2.540   4.950   4.202
12923TIP3    H238727   2.432   4.966   4.307
12924TIP3   OH238728   7.620   6.589   4.038
12924TIP3    H138729   7.644   6.678   4.063
12924TIP3    H238730   7.550   6.565   4.099
12925TIP3   OH238731   6.653   5.296   2.131
12925TIP3    H138732   6.626   5.373   2.079
12925TIP3    H238733   6.575   5.240   2.131
12926TIP3   OH238734   0.221   5.035   5.664
12926TIP3    H138735   0.225   4.940   5.658
12926TIP3    H238736   0.300   5.066   5.621
12927TIP3   OH238737   7.596   4.257   0.771
12927TIP3    H138738   7.645   4.318   0.825
12927TIP3    H238739   7.597   4.175   0.820
12928TIP3   OH238740   2.934   7.755   0.632
12928TIP3    H138741   2.992   7.680   0.619
12928TIP3    H238742   2.846   7.718   0.624
12929TIP3   OH238743   6.831   4.461   0.709
12929TIP3    H138744   6.837   4.536   0.650
12929TIP3    H238745   6.741   4.430   0.699
12930TIP3   OH238746   5.525   6.723   5.737
12930TIP3    H138747   5.487   6.756   5.655
12930TIP3    H238748   5.526   6.799   5.795
12931TIP3   OH238749   1.158   3.517   4.966
12931TIP3    H138750   1.205   3.544   5.045
12931TIP3    H238751   1.110   3.595   4.938
12932TIP3   OH238752   0.842   7.350   4.195
12932TIP3    H138753   0.806   7.360   4.283
12932TIP3    H238754   0.895   7.429   4.183
12933TIP3   OH238755   0.897   0.034   4.587
12933TIP3    H138756   0.884   0.045   4.681
12933TIP3    H238757   0.834   0.095   4.547
12934TIP3   OH238758   4.096   6.797   6.071
12934TIP3    H138759   4.055   6.849   6.140
12934TIP3    H238760   4.030   6.793   6.002
12935TIP3   OH238761   1.254   0.464   1.428
12935TIP3    H138762   1.164   0.460   1.395
12935TIP3    H238763   1.294   0.384   1.395
12936TIP3   OH238764   0.790   5.370   6.486
12936TIP3    H138765   0.849   5.358   6.561
12936TIP3    H238766   0.811   5.298   6.427
12937TIP3   OH238767   0.558   6.582   3.089
12937TIP3    H138768   0.509   6.656   3.053
12937TIP3    H238769   0.491   6.517   3.110
12938TIP3   OH238770   2.094   4.649   0.791
12938TIP3    H138771   2.103   4.678   0.701
12938TIP3    H238772   2.047   4.720   0.835
12939TIP3   OH238773   6.701   3.464   2.167
12939TIP3    H138774   6.752   3.498   2.240
12939TIP3    H238775   6.686   3.540   2.111
12940TIP3   OH238776   0.876   2.069   5.942
12940TIP3    H138777   0.926   2.077   6.023
12940TIP3    H238778   0.943   2.059   5.874
12941TIP3   OH238779   5.755   2.260   3.904
12941TIP3    H138780   5.776   2.334   3.846
12941TIP3    H238781   5.705   2.300   3.975
12942TIP3   OH238782   7.543   5.844   6.046
12942TIP3    H138783   7.513   5.932   6.069
12942TIP3    H238784   7.529   5.838   5.951
12943TIP3   OH238785   5.387   2.984   1.773
12943TIP3    H138786   5.384   2.963   1.866
12943TIP3    H238787   5.409   2.901   1.730
12944TIP3   OH238788   6.982   0.117   6.282
12944TIP3    H138789   6.892   0.113   6.313
12944TIP3    H238790   6.976   0.160   6.196
12945TIP3   OH238791   3.992   4.510   5.622
12945TIP3    H138792   4.035   4.589   5.656
12945TIP3    H238793   4.028   4.499   5.534
12946TIP3   OH238794   7.690   3.257   3.222
12946TIP3    H138795   7.769   3.242   3.274
12946TIP3    H238796   7.703   3.345   3.185
12947TIP3   OH238797   2.339   7.439   1.314
12947TIP3    H138798   2.370   7.475   1.231
12947TIP3    H238799   2.244   7.434   1.305
12948TIP3   OH238800   1.370   1.830   4.009
12948TIP3    H138801   1.452   1.876   4.027
12948TIP3    H238802   1.349   1.853   3.919
12949TIP3   OH238803   7.281   5.042   0.704
12949TIP3    H138804   7.281   5.133   0.674
12949TIP3    H238805   7.204   5.035   0.760
12950TIP3   OH238806   6.859   1.981   0.221
12950TIP3    H138807   6.841   2.074   0.205
12950TIP3    H238808   6.851   1.971   0.316
12951TIP3   OH238809   2.518   5.527   2.996
12951TIP3    H138810   2.497   5.530   3.089
12951TIP3    H238811   2.536   5.435   2.979
12952TIP3   OH238812   0.225   0.329   5.175
12952TIP3    H138813   0.165   0.374   5.235
12952TIP3    H238814   0.168   0.275   5.120
12953TIP3   OH238815   6.156   7.695   5.264
12953TIP3    H138816   6.127   7.784   5.244
12953TIP3    H238817   6.221   7.675   5.196
12954TIP3   OH238818   5.037   3.941   5.031
12954TIP3    H138819   5.072   4.030   5.022
12954TIP3    H238820   5.036   3.926   5.126
12955TIP3   OH238821   4.192   2.690   5.356
12955TIP3    H138822   4.255   2.705   5.285
12955TIP3    H238823   4.239   2.715   5.435
12956TIP3   OH238824   2.515   0.849   6.751
12956TIP3    H138825   2.459   0.894   6.813
12956TIP3    H238826   2.461   0.836   6.673
12957TIP3   OH238827   0.999   6.382   3.640
12957TIP3    H138828   1.031   6.410   3.725
12957TIP3    H238829   0.906   6.406   3.641
12958TIP3   OH238830   7.582   1.980   0.538
12958TIP3    H138831   7.506   1.934   0.572
12958TIP3    H238832   7.549   2.032   0.465
12959TIP3   OH238833   6.690   1.933   6.631
12959TIP3    H138834   6.751   1.981   6.687
12959TIP3    H238835   6.653   1.866   6.688
12960TIP3   OH238836   7.690   7.079   2.837
12960TIP3    H138837   7.622   7.016   2.860
12960TIP3    H238838   7.680   7.150   2.900
12961TIP3   OH238839   0.643   5.240   3.628
12961TIP3    H138840   0.651   5.329   3.662
12961TIP3    H238841   0.549   5.223   3.627
12962TIP3   OH238842   3.100   5.775   2.782
12962TIP3    H138843   3.013   5.794   2.747
12962TIP3    H238844   3.154   5.759   2.704
12963TIP3   OH238845   6.452   0.145   1.363
12963TIP3    H138846   6.524   0.201   1.391
12963TIP3    H238847   6.422   0.184   1.281
12964TIP3   OH238848   1.910   6.878   3.917
12964TIP3    H138849   1.989   6.836   3.883
12964TIP3    H238850   1.850   6.878   3.843
12965TIP3   OH238851   1.878   3.968   4.651
12965TIP3    H138852   1.897   3.931   4.738
12965TIP3    H238853   1.782   3.978   4.651
12966TIP3   OH238854   3.983   6.087   0.761
12966TIP3    H138855   4.034   6.159   0.798
12966TIP3    H238856   4.043   6.012   0.765
12967TIP3   OH238857   3.838   2.377   2.668
12967TIP3    H138858   3.919   2.348   2.626
12967TIP3    H238859   3.818   2.309   2.732
12968TIP3   OH238860   3.306   2.833   4.725
12968TIP3    H138861   3.262   2.863   4.645
12968TIP3    H238862   3.261   2.751   4.746
12969TIP3   OH238863   6.472   5.467   1.963
12969TIP3    H138864   6.425   5.495   1.885
12969TIP3    H238865   6.425   5.507   2.036
12970TIP3   OH238866   2.902   5.158   1.426
12970TIP3    H138867   2.843   5.146   1.501
12970TIP3    H238868   2.990   5.148   1.462
12971TIP3   OH238869   0.699   4.633   3.488
12971TIP3    H138870   0.606   4.656   3.485
12971TIP3    H238871   0.738   4.700   3.544
12972TIP3   OH238872   1.527   4.702   3.519
12972TIP3    H138873   1.603   4.662   3.563
12972TIP3    H238874   1.495   4.767   3.582
12973TIP3   OH238875   0.663   3.796   0.020
12973TIP3    H138876   0.600   3.772   0.087
12973TIP3    H238877   0.741   3.823   0.069
12974TIP3   OH238878   4.548   5.964   4.093
12974TIP3    H138879   4.478   6.021   4.061
12974TIP3    H238880   4.508   5.912   4.163
12975TIP3   OH238881   3.997   6.072   6.560
12975TIP3    H138882   3.903   6.054   6.566
12975TIP3    H238883   4.019   6.112   6.645
12976TIP3   OH238884   7.868   5.166   2.544
12976TIP3    H138885   7.777   5.182   2.517
12976TIP3    H238886   7.880   5.072   2.531
12977TIP3   OH238887   2.531   5.899   3.289
12977TIP3    H138888   2.475   5.973   3.315
12977TIP3    H238889   2.620   5.934   3.292
12978TIP3   OH238890   1.101   5.882   2.611
12978TIP3    H138891   1.073   5.942   2.542
12978TIP3    H238892   1.102   5.935   2.690
12979TIP3   OH238893   6.549   7.580   3.568
12979TIP3    H138894   6.499   7.660   3.554
12979TIP3    H238895   6.484   7.510   3.565
12980TIP3   OH238896   3.397   0.253   6.359
12980TIP3    H138897   3.337   0.323   6.333
12980TIP3    H238898   3.391   0.189   6.288
12981TIP3   OH238899   5.356   2.696   1.182
12981TIP3    H138900   5.276   2.749   1.190
12981TIP3    H238901   5.346   2.628   1.249
12982TIP3   OH238902   7.836   6.181   1.044
12982TIP3    H138903   7.791   6.096   1.045
12982TIP3    H238904   7.924   6.160   1.013
12983TIP3   OH238905   7.776   3.965   5.937
12983TIP3    H138906   7.778   4.012   5.853
12983TIP3    H238907   7.832   3.888   5.922
12984TIP3   OH238908   6.042   3.645   4.318
12984TIP3    H138909   5.971   3.611   4.373
12984TIP3    H238910   5.997   3.676   4.239
12985TIP3   OH238911   3.883   2.854   2.674
12985TIP3    H138912   3.885   2.929   2.734
12985TIP3    H238913   3.966   2.809   2.690
12986TIP3   OH238914   0.272   3.751   1.092
12986TIP3    H138915   0.184   3.718   1.075
12986TIP3    H238916   0.260   3.843   1.112
12987TIP3   OH238917   2.383   2.679   4.998
12987TIP3    H138918   2.378   2.773   4.978
12987TIP3    H238919   2.300   2.660   5.041
12988TIP3   OH238920   2.762   6.278   0.085
12988TIP3    H138921   2.789   6.213   0.020
12988TIP3    H238922   2.692   6.235   0.135
12989TIP3   OH238923   5.406   1.308   6.670
12989TIP3    H138924   5.365   1.391   6.695
12989TIP3    H238925   5.494   1.311   6.708
12990TIP3   OH238926   2.594   1.695   4.023
12990TIP3    H138927   2.550   1.611   4.009
12990TIP3    H238928   2.687   1.675   4.017
12991TIP3   OH238929   4.966   0.513   1.098
12991TIP3    H138930   4.885   0.490   1.052
12991TIP3    H238931   5.033   0.457   1.058
12992TIP3   OH238932   3.417   3.592   1.266
12992TIP3    H138933   3.436   3.579   1.173
12992TIP3    H238934   3.444   3.510   1.307
12993TIP3   OH238935   1.081   1.229   2.114
12993TIP3    H138936   1.064   1.302   2.053
12993TIP3    H238937   1.057   1.264   2.200
12994TIP3   OH238938   1.203   0.118   3.194
12994TIP3    H138939   1.218   0.133   3.101
12994TIP3    H238940   1.282   0.074   3.224
12995TIP3   OH238941   5.975   0.413   3.366
12995TIP3    H138942   5.911   0.429   3.435
12995TIP3    H238943   6.044   0.361   3.408
12996TIP3   OH238944   1.666   2.301   5.878
12996TIP3    H138945   1.703   2.276   5.793
12996TIP3    H238946   1.645   2.394   5.869
12997TIP3   OH238947   2.442   1.368   0.588
12997TIP3    H138948   2.452   1.445   0.644
12997TIP3    H238949   2.525   1.361   0.542
12998TIP3   OH238950   4.984   5.219   0.966
12998TIP3    H138951   5.047   5.286   0.988
12998TIP3    H238952   4.938   5.200   1.048
12999TIP3   OH238953   2.502   4.055   6.723
12999TIP3    H138954   2.436   4.005   6.771
12999TIP3    H238955   2.577   3.996   6.716
13000TIP3   OH238956   3.932   3.115   4.578
13000TIP3    H138957   3.936   3.020   4.593
13000TIP3    H238958   4.022   3.139   4.557
13001TIP3   OH238959   0.883   5.316   0.991
13001TIP3    H138960   0.910   5.250   0.927
13001TIP3    H238961   0.963   5.334   1.042
13002TIP3   OH238962   4.195   7.840   4.205
13002TIP3    H138963   4.190   7.862   4.298
13002TIP3    H238964   4.201   7.745   4.203
13003TIP3   OH238965   6.384   5.169   0.929
13003TIP3    H138966   6.456   5.116   0.893
13003TIP3    H238967   6.314   5.158   0.865
13004TIP3   OH238968   0.814   4.072   0.566
13004TIP3    H138969   0.857   3.988   0.581
13004TIP3    H238970   0.801   4.108   0.654
13005TIP3   OH238971   1.708   2.234   4.834
13005TIP3    H138972   1.632   2.181   4.858
13005TIP3    H238973   1.776   2.206   4.895
13006TIP3   OH238974   5.683   5.221   0.909
13006TIP3    H138975   5.718   5.299   0.953
13006TIP3    H238976   5.600   5.204   0.953
13007TIP3   OH238977   7.982   5.486   5.085
13007TIP3    H138978   8.075   5.510   5.091
13007TIP3    H238979   7.939   5.540   5.151
13008TIP3   OH238980   2.525   5.347   1.983
13008TIP3    H138981   2.563   5.401   1.914
13008TIP3    H238982   2.439   5.320   1.949
13009TIP3   OH238983   3.595   7.294   1.332
13009TIP3    H138984   3.676   7.269   1.377
13009TIP3    H238985   3.609   7.268   1.241
13010TIP3   OH238986   6.938   6.092   0.395
13010TIP3    H138987   7.023   6.080   0.437
13010TIP3    H238988   6.941   6.033   0.319
13011TIP3   OH238989   0.773   3.080   6.194
13011TIP3    H138990   0.786   3.022   6.269
13011TIP3    H238991   0.765   3.021   6.119
13012TIP3   OH238992   6.123   2.066   3.558
13012TIP3    H138993   6.051   2.086   3.498
13012TIP3    H238994   6.192   2.031   3.502
13013TIP3   OH238995   7.061   0.613   3.915
13013TIP3    H138996   7.131   0.547   3.908
13013TIP3    H238997   7.038   0.632   3.825
13014TIP3   OH238998   3.068   1.045   3.718
13014TIP3    H138999   3.156   1.054   3.683
13014TIP3    H239000   3.080   1.005   3.804
13015TIP3   OH239001   1.867   6.733   0.587
13015TIP3    H139002   1.949   6.778   0.568
13015TIP3    H239003   1.847   6.685   0.507
13016TIP3   OH239004   7.756   6.793   5.300
13016TIP3    H139005   7.790   6.757   5.382
13016TIP3    H239006   7.708   6.872   5.327
13017TIP3   OH239007   1.355   2.820   5.811
13017TIP3    H139008   1.306   2.840   5.891
13017TIP3    H239009   1.310   2.745   5.773
13018TIP3   OH239010   7.725   1.885   5.473
13018TIP3    H139011   7.820   1.876   5.482
13018TIP3    H239012   7.713   1.950   5.404
13019TIP3   OH239013   6.638   7.523   2.928
13019TIP3    H139014   6.678   7.551   2.845
13019TIP3    H239015   6.605   7.434   2.910
13020TIP3   OH239016   3.003   3.842   4.880
13020TIP3    H139017   2.908   3.847   4.889
13020TIP3    H239018   3.025   3.909   4.816
13021TIP3   OH239019   6.094   6.934   3.663
13021TIP3    H139020   6.122   6.904   3.749
13021TIP3    H239021   6.016   6.986   3.680
13022TIP3   OH239022   5.484   6.151   5.385
13022TIP3    H139023   5.530   6.133   5.303
13022TIP3    H239024   5.407   6.093   5.382
13023TIP3   OH239025   5.749   3.422   6.300
13023TIP3    H139026   5.783   3.358   6.238
13023TIP3    H239027   5.823   3.477   6.322
13024TIP3   OH239028   2.638   3.772   3.715
13024TIP3    H139029   2.695   3.790   3.790
13024TIP3    H239030   2.623   3.858   3.675
13025TIP3   OH239031   1.528   4.344   2.173
13025TIP3    H139032   1.622   4.325   2.174
13025TIP3    H239033   1.511   4.379   2.085
13026TIP3   OH239034   4.646   3.960   2.477
13026TIP3    H139035   4.561   4.003   2.478
13026TIP3    H239036   4.695   4.001   2.548
13027TIP3   OH239037   0.728   1.049   5.298
13027TIP3    H139038   0.670   0.973   5.299
13027TIP3    H239039   0.723   1.084   5.387
13028TIP3   OH239040   6.548   5.740   2.166
13028TIP3    H139041   6.516   5.806   2.105
13028TIP3    H239042   6.470   5.691   2.192
13029TIP3   OH239043   7.989   3.001   4.339
13029TIP3    H139044   7.955   3.089   4.326
13029TIP3    H239045   7.934   2.945   4.284
13030TIP3   OH239046   7.119   2.134   1.427
13030TIP3    H139047   7.058   2.144   1.355
13030TIP3    H239048   7.065   2.109   1.502
13031TIP3   OH239049   5.238   6.339   1.214
13031TIP3    H139050   5.244   6.384   1.130
13031TIP3    H239051   5.316   6.366   1.262
13032TIP3   OH239052   2.846   4.747   2.388
13032TIP3    H139053   2.863   4.785   2.475
13032TIP3    H239054   2.858   4.653   2.400
13033TIP3   OH239055   0.156   5.961   3.923
13033TIP3    H139056   0.079   6.013   3.946
13033TIP3    H239057   0.202   6.015   3.859
13034TIP3   OH239058   2.334   0.694   5.620
13034TIP3    H139059   2.421   0.663   5.644
13034TIP3    H239060   2.275   0.625   5.651
13035TIP3   OH239061   7.508   7.601   2.772
13035TIP3    H139062   7.597   7.601   2.809
13035TIP3    H239063   7.455   7.642   2.840
13036TIP3   OH239064   3.120   1.261   6.128
13036TIP3    H139065   3.045   1.240   6.184
13036TIP3    H239066   3.081   1.294   6.047
13037TIP3   OH239067   5.347   4.959   0.988
13037TIP3    H139068   5.342   5.050   1.017
13037TIP3    H239069   5.397   4.914   1.056
13038TIP3   OH239070   0.156   1.927   2.776
13038TIP3    H139071   0.225   1.872   2.739
13038TIP3    H239072   0.124   1.877   2.852
13039TIP3   OH239073   6.232   0.767   4.189
13039TIP3    H139074   6.202   0.705   4.256
13039TIP3    H239075   6.322   0.739   4.171
13040TIP3   OH239076   1.021   0.364   5.526
13040TIP3    H139077   1.057   0.418   5.597
13040TIP3    H239078   1.059   0.401   5.446
13041TIP3   OH239079   2.043   4.108   0.571
13041TIP3    H139080   2.044   4.102   0.666
13041TIP3    H239081   2.053   4.018   0.541
13042TIP3   OH239082   5.813   2.323   0.105
13042TIP3    H139083   5.721   2.346   0.097
13042TIP3    H239084   5.813   2.233   0.136
13043TIP3   OH239085   6.000   3.128   1.839
13043TIP3    H139086   5.969   3.044   1.873
13043TIP3    H239087   5.922   3.183   1.836
13044TIP3   OH239088   3.376   0.040   3.562
13044TIP3    H139089   3.284   0.029   3.586
13044TIP3    H239090   3.395  -0.037   3.508
13045TIP3   OH239091   4.952   2.740   0.717
13045TIP3    H139092   5.029   2.740   0.774
13045TIP3    H239093   4.978   2.687   0.642
13046TIP3   OH239094   0.700   7.093   2.701
13046TIP3    H139095   0.605   7.107   2.700
13046TIP3    H239096   0.736   7.180   2.718
13047TIP3   OH239097   3.778   4.114   4.526
13047TIP3    H139098   3.724   4.115   4.605
13047TIP3    H239099   3.745   4.186   4.473
13048TIP3   OH239100   1.958   7.515   3.388
13048TIP3    H139101   1.896   7.482   3.323
13048TIP3    H239102   1.947   7.457   3.464
13049TIP3   OH239103   3.898   3.671   4.050
13049TIP3    H139104   3.928   3.723   3.976
13049TIP3    H239105   3.975   3.617   4.073
13050TIP3   OH239106   2.092   5.200   2.720
13050TIP3    H139107   2.158   5.241   2.776
13050TIP3    H239108   2.141   5.168   2.644
13051TIP3   OH239109   6.909   0.600   3.690
13051TIP3    H139110   6.815   0.602   3.674
13051TIP3    H239111   6.947   0.650   3.618
13052TIP3   OH239112   0.900   5.170   2.677
13052TIP3    H139113   0.887   5.075   2.672
13052TIP3    H239114   0.860   5.195   2.760
13053TIP3   OH239115   7.847   3.823   5.701
13053TIP3    H139116   7.897   3.789   5.627
13053TIP3    H239117   7.852   3.754   5.767
13054TIP3   OH239118   8.172   4.849   4.449
13054TIP3    H139119   8.247   4.823   4.503
13054TIP3    H239120   8.179   4.795   4.371
13055TIP3   OH239121   3.260   0.825   6.751
13055TIP3    H139122   3.291   0.891   6.813
13055TIP3    H239123   3.167   0.814   6.771
13056TIP3   OH239124   5.474   0.599   5.889
13056TIP3    H139125   5.391   0.623   5.931
13056TIP3    H239126   5.451   0.580   5.799
13057TIP3   OH239127   5.840   3.413   0.972
13057TIP3    H139128   5.831   3.454   1.059
13057TIP3    H239129   5.768   3.450   0.921
13058TIP3   OH239130   2.585   1.605   1.138
13058TIP3    H139131   2.646   1.665   1.182
13058TIP3    H239132   2.528   1.574   1.208
13059TIP3   OH239133   1.616   4.812   6.667
13059TIP3    H139134   1.699   4.769   6.645
13059TIP3    H239135   1.569   4.748   6.720
13060TIP3   OH239136   2.510   0.493   5.382
13060TIP3    H139137   2.552   0.525   5.461
13060TIP3    H239138   2.417   0.510   5.396
13061TIP3   OH239139   0.714   2.112   1.323
13061TIP3    H139140   0.800   2.139   1.354
13061TIP3    H239141   0.723   2.020   1.301
13062TIP3   OH239142   3.918   5.601   5.463
13062TIP3    H139143   3.885   5.677   5.415
13062TIP3    H239144   3.994   5.572   5.414
13063TIP3   OH239145   5.413   4.208   3.929
13063TIP3    H139146   5.372   4.154   3.996
13063TIP3    H239147   5.371   4.182   3.847
13064TIP3   OH239148   1.369   4.263   3.806
13064TIP3    H139149   1.381   4.287   3.897
13064TIP3    H239150   1.449   4.291   3.762
13065TIP3   OH239151   6.020   1.379   6.174
13065TIP3    H139152   6.084   1.421   6.232
13065TIP3    H239153   6.069   1.310   6.130
13066TIP3   OH239154   0.760   1.802   3.491
13066TIP3    H139155   0.687   1.844   3.535
13066TIP3    H239156   0.740   1.810   3.397
13067TIP3   OH239157   0.679   1.771   6.439
13067TIP3    H139158   0.629   1.778   6.358
13067TIP3    H239159   0.746   1.705   6.420
13068TIP3   OH239160   1.096   6.469   5.572
13068TIP3    H139161   1.144   6.552   5.569
13068TIP3    H239162   1.099   6.443   5.664
13069TIP3   OH239163   0.679   7.084   4.131
13069TIP3    H139164   0.712   7.139   4.202
13069TIP3    H239165   0.591   7.115   4.115
13070TIP3   OH239166   1.774   3.365   1.162
13070TIP3    H139167   1.758   3.302   1.092
13070TIP3    H239168   1.831   3.432   1.122
13071TIP3   OH239169   3.511   1.497   1.945
13071TIP3    H139170   3.494   1.542   2.028
13071TIP3    H239171   3.579   1.434   1.966
13072TIP3   OH239172   6.416   3.523   2.270
13072TIP3    H139173   6.402   3.554   2.180
13072TIP3    H239174   6.479   3.451   2.261
13073TIP3   OH239175   5.175   2.683   5.835
13073TIP3    H139176   5.245   2.729   5.787
13073TIP3    H239177   5.147   2.613   5.775
13074TIP3   OH239178   7.472   3.933   0.629
13074TIP3    H139179   7.440   3.944   0.719
13074TIP3    H239180   7.568   3.932   0.638
13075TIP3   OH239181   5.890   0.726   5.838
13075TIP3    H139182   5.825   0.730   5.908
13075TIP3    H239183   5.945   0.803   5.851
13076TIP3   OH239184   7.874   2.038   2.112
13076TIP3    H139185   7.948   2.061   2.057
13076TIP3    H239186   7.845   2.121   2.151
13077TIP3   OH239187   4.013   7.612   2.496
13077TIP3    H139188   3.970   7.681   2.547
13077TIP3    H239189   3.975   7.620   2.408
13078TIP3   OH239190   4.064   4.991   6.561
13078TIP3    H139191   4.049   5.072   6.513
13078TIP3    H239192   4.107   4.933   6.498
13079TIP3   OH239193   2.050   5.424   0.326
13079TIP3    H139194   1.993   5.347   0.326
13079TIP3    H239195   1.993   5.497   0.302
13080TIP3   OH239196   5.179   6.071   5.189
13080TIP3    H139197   5.113   6.113   5.244
13080TIP3    H239198   5.221   6.007   5.247
13081TIP3   OH239199   6.600   1.275   2.098
13081TIP3    H139200   6.646   1.323   2.167
13081TIP3    H239201   6.548   1.209   2.146
13082TIP3   OH239202   7.015   7.046   2.253
13082TIP3    H139203   6.935   7.025   2.204
13082TIP3    H239204   6.990   7.034   2.345
13083TIP3   OH239205   6.231   7.178   4.915
13083TIP3    H139206   6.167   7.117   4.953
13083TIP3    H239207   6.187   7.215   4.839
13084TIP3   OH239208   2.971   6.318   3.099
13084TIP3    H139209   2.980   6.334   3.005
13084TIP3    H239210   3.041   6.256   3.120
13085TIP3   OH239211   2.928   1.508   2.825
13085TIP3    H139212   2.996   1.478   2.886
13085TIP3    H239213   2.966   1.585   2.783
13086TIP3   OH239214   2.529   2.321   0.192
13086TIP3    H139215   2.554   2.397   0.140
13086TIP3    H239216   2.533   2.351   0.283
13087TIP3   OH239217   8.180   5.543   1.706
13087TIP3    H139218   8.087   5.535   1.729
13087TIP3    H239219   8.181   5.563   1.613
13088TIP3   OH239220   5.003   4.106   6.571
13088TIP3    H139221   4.949   4.185   6.562
13088TIP3    H239222   4.986   4.076   6.660
13089TIP3   OH239223   1.834   2.828   6.496
13089TIP3    H139224   1.762   2.811   6.436
13089TIP3    H239225   1.901   2.764   6.472
13090TIP3   OH239226   6.533   3.088   0.939
13090TIP3    H139227   6.518   3.077   0.845
13090TIP3    H239228   6.589   3.165   0.945
13091TIP3   OH239229   7.899   6.437   4.688
13091TIP3    H139230   7.939   6.389   4.614
13091TIP3    H239231   7.882   6.524   4.653
13092TIP3   OH239232   0.101   2.123   3.957
13092TIP3    H139233   0.174   2.088   3.905
13092TIP3    H239234   0.143   2.182   4.020
13093TIP3   OH239235   5.903   2.392   1.690
13093TIP3    H139236   5.874   2.304   1.667
13093TIP3    H239237   5.950   2.423   1.613
13094TIP3   OH239238   2.741   3.962   4.859
13094TIP3    H139239   2.733   3.896   4.791
13094TIP3    H239240   2.651   3.990   4.877
13095TIP3   OH239241   0.170   2.941   0.437
13095TIP3    H139242   0.161   2.952   0.531
13095TIP3    H239243   0.085   2.966   0.401
13096TIP3   OH239244   6.157   0.444   1.285
13096TIP3    H139245   6.096   0.435   1.358
13096TIP3    H239246   6.239   0.471   1.326
13097TIP3   OH239247   7.234   5.818   0.556
13097TIP3    H139248   7.175   5.780   0.491
13097TIP3    H239249   7.219   5.912   0.551
13098TIP3   OH239250   6.768   4.711   0.528
13098TIP3    H139251   6.775   4.690   0.434
13098TIP3    H239252   6.838   4.774   0.544
13099TIP3   OH239253   3.963   5.765   4.398
13099TIP3    H139254   3.937   5.703   4.329
13099TIP3    H239255   4.030   5.719   4.447
13100TIP3   OH239256   5.972   7.386   6.229
13100TIP3    H139257   6.001   7.445   6.299
13100TIP3    H239258   5.998   7.299   6.259
13101TIP3   OH239259   2.883   3.409   2.407
13101TIP3    H139260   2.978   3.421   2.395
13101TIP3    H239261   2.868   3.424   2.500
13102TIP3   OH239262   2.633   4.802   4.374
13102TIP3    H139263   2.653   4.830   4.285
13102TIP3    H239264   2.712   4.821   4.424
13103TIP3   OH239265   1.461   3.195   5.767
13103TIP3    H139266   1.461   3.145   5.849
13103TIP3    H239267   1.547   3.179   5.729
13104TIP3   OH239268   7.996   5.525   6.177
13104TIP3    H139269   7.910   5.498   6.145
13104TIP3    H239270   8.034   5.574   6.104
13105TIP3   OH239271   2.309   6.593   4.102
13105TIP3    H139272   2.303   6.643   4.020
13105TIP3    H239273   2.375   6.526   4.083
13106TIP3   OH239274   2.854   4.849   5.825
13106TIP3    H139275   2.802   4.915   5.870
13106TIP3    H239276   2.803   4.829   5.746
13107TIP3   OH239277   6.697   6.201   0.357
13107TIP3    H139278   6.789   6.176   0.363
13107TIP3    H239279   6.667   6.205   0.448
13108TIP3   OH239280   6.590   2.892   2.220
13108TIP3    H139281   6.665   2.835   2.204
13108TIP3    H239282   6.514   2.835   2.211
13109TIP3   OH239283   6.644   0.244   2.062
13109TIP3    H139284   6.657   0.273   2.153
13109TIP3    H239285   6.555   0.272   2.041
13110TIP3   OH239286   3.382   4.372   2.366
13110TIP3    H139287   3.311   4.348   2.426
13110TIP3    H239288   3.359   4.459   2.335
13111TIP3   OH239289   1.621   3.344   3.385
13111TIP3    H139290   1.688   3.297   3.435
13111TIP3    H239291   1.570   3.391   3.451
13112TIP3   OH239292   6.912   4.911   5.063
13112TIP3    H139293   6.912   4.967   4.985
13112TIP3    H239294   6.998   4.869   5.063
13113TIP3   OH239295   4.046   0.601   4.635
13113TIP3    H139296   4.108   0.606   4.563
13113TIP3    H239297   4.078   0.529   4.690
13114TIP3   OH239298   3.527   5.633   0.840
13114TIP3    H139299   3.452   5.574   0.843
13114TIP3    H239300   3.494   5.716   0.875
13115TIP3   OH239301   5.672   6.490   4.495
13115TIP3    H139302   5.612   6.526   4.430
13115TIP3    H239303   5.632   6.511   4.580
13116TIP3   OH239304   4.458   6.562   3.839
13116TIP3    H139305   4.511   6.629   3.882
13116TIP3    H239306   4.508   6.481   3.848
13117TIP3   OH239307   6.002   4.790   4.526
13117TIP3    H139308   6.083   4.817   4.483
13117TIP3    H239309   6.018   4.804   4.619
13118TIP3   OH239310   2.577   6.314   5.770
13118TIP3    H139311   2.634   6.389   5.790
13118TIP3    H239312   2.494   6.354   5.743
13119TIP3   OH239313   1.524   3.305   3.840
13119TIP3    H139314   1.475   3.338   3.915
13119TIP3    H239315   1.611   3.342   3.849
13120TIP3   OH239316   0.436   4.041   1.504
13120TIP3    H139317   0.348   4.054   1.540
13120TIP3    H239318   0.441   3.947   1.486
13121TIP3   OH239319   0.925   5.528   3.232
13121TIP3    H139320   0.979   5.552   3.306
13121TIP3    H239321   0.900   5.437   3.248
13122TIP3   OH239322   8.033   4.000   0.117
13122TIP3    H139323   8.000   3.931   0.175
13122TIP3    H239324   8.026   3.963   0.029
13123TIP3   OH239325   2.774   0.812   1.326
13123TIP3    H139326   2.779   0.755   1.249
13123TIP3    H239327   2.692   0.788   1.368
13124TIP3   OH239328   4.718   2.048   2.263
13124TIP3    H139329   4.726   2.088   2.177
13124TIP3    H239330   4.635   2.000   2.259
13125TIP3   OH239331   4.585   3.901   1.593
13125TIP3    H139332   4.535   3.982   1.585
13125TIP3    H239333   4.582   3.879   1.686
13126TIP3   OH239334   2.793   0.978   3.680
13126TIP3    H139335   2.883   1.000   3.704
13126TIP3    H239336   2.741   1.051   3.713
13127TIP3   OH239337   3.443   5.634   2.337
13127TIP3    H139338   3.438   5.559   2.279
13127TIP3    H239339   3.503   5.607   2.407
13128TIP3   OH239340   0.685   6.750   3.691
13128TIP3    H139341   0.719   6.680   3.636
13128TIP3    H239342   0.657   6.707   3.771
13129TIP3   OH239343   1.286   6.631   4.053
13129TIP3    H139344   1.381   6.616   4.045
13129TIP3    H239345   1.279   6.720   4.087
13130TIP3   OH239346   4.955   6.210   1.413
13130TIP3    H139347   5.023   6.248   1.470
13130TIP3    H239348   4.873   6.226   1.460
13131TIP3   OH239349   5.411   1.727   0.554
13131TIP3    H139350   5.444   1.681   0.476
13131TIP3    H239351   5.318   1.702   0.559
13132TIP3   OH239352   7.508   1.352   2.335
13132TIP3    H139353   7.484   1.269   2.294
13132TIP3    H239354   7.604   1.355   2.328
13133TIP3   OH239355   5.723   1.453   1.846
13133TIP3    H139356   5.817   1.449   1.864
13133TIP3    H239357   5.689   1.518   1.908
13134TIP3   OH239358   6.173   5.394   0.450
13134TIP3    H139359   6.084   5.387   0.415
13134TIP3    H239360   6.163   5.440   0.533
13135TIP3   OH239361   5.039   5.102   5.042
13135TIP3    H139362   5.056   5.068   4.954
13135TIP3    H239363   5.108   5.166   5.057
13136TIP3   OH239364   2.899   5.319   0.759
13136TIP3    H139365   2.873   5.374   0.684
13136TIP3    H239366   2.816   5.289   0.796
13137TIP3   OH239367   4.984   6.552   5.081
13137TIP3    H139368   4.924   6.507   5.139
13137TIP3    H239369   4.972   6.509   4.996
13138TIP3   OH239370   2.358   0.596   0.356
13138TIP3    H139371   2.435   0.554   0.317
13138TIP3    H239372   2.343   0.547   0.438
13139TIP3   OH239373   3.115   7.023   1.881
13139TIP3    H139374   3.041   7.082   1.866
13139TIP3    H239375   3.128   6.979   1.796
13140TIP3   OH239376   3.255   3.982   4.558
13140TIP3    H139377   3.183   4.015   4.611
13140TIP3    H239378   3.212   3.939   4.484
13141TIP3   OH239379   6.104   1.442   0.602
13141TIP3    H139380   6.101   1.348   0.588
13141TIP3    H239381   6.045   1.479   0.536
13142TIP3   OH239382   6.617   7.592   5.233
13142TIP3    H139383   6.710   7.587   5.214
13142TIP3    H239384   6.610   7.646   5.311
13143TIP3   OH239385   4.912   0.131   1.166
13143TIP3    H139386   4.855   0.145   1.241
13143TIP3    H239387   4.853   0.119   1.092
13144TIP3   OH239388   2.889   5.462   2.618
13144TIP3    H139389   2.829   5.520   2.571
13144TIP3    H239390   2.965   5.516   2.636
13145TIP3   OH239391   7.067   4.534   2.990
13145TIP3    H139392   6.998   4.489   2.942
13145TIP3    H239393   7.094   4.605   2.931
13146TIP3   OH239394   5.899   3.956   1.583
13146TIP3    H139395   5.991   3.943   1.562
13146TIP3    H239396   5.888   4.051   1.582
13147TIP3   OH239397   6.701   1.965   1.112
13147TIP3    H139398   6.653   2.012   1.180
13147TIP3    H239399   6.735   2.034   1.055
13148TIP3   OH239400   2.513   3.246   4.466
13148TIP3    H139401   2.484   3.311   4.531
13148TIP3    H239402   2.607   3.238   4.480
13149TIP3   OH239403   6.776   5.659   2.023
13149TIP3    H139404   6.824   5.682   2.102
13149TIP3    H239405   6.686   5.687   2.040
13150TIP3   OH239406   4.456   3.172   5.482
13150TIP3    H139407   4.432   3.142   5.570
13150TIP3    H239408   4.372   3.180   5.436
13151TIP3   OH239409   8.031   6.848   3.263
13151TIP3    H139410   8.049   6.754   3.257
13151TIP3    H239411   7.940   6.853   3.291
13152TIP3   OH239412   0.116   1.499   1.271
13152TIP3    H139413   0.106   1.532   1.361
13152TIP3    H239414   0.198   1.539   1.241
13153TIP3   OH239415   4.884   0.885   2.324
13153TIP3    H139416   4.958   0.826   2.311
13153TIP3    H239417   4.921   0.973   2.319
13154TIP3   OH239418   2.093   2.051   2.646
13154TIP3    H139419   2.019   1.997   2.618
13154TIP3    H239420   2.168   2.016   2.597
13155TIP3   OH239421   7.239   1.550   0.405
13155TIP3    H139422   7.184   1.554   0.327
13155TIP3    H239423   7.289   1.631   0.403
13156TIP3   OH239424   7.614   6.270   2.197
13156TIP3    H139425   7.584   6.326   2.269
13156TIP3    H239426   7.540   6.267   2.136
13157TIP3   OH239427   3.050   3.687   4.450
13157TIP3    H139428   3.128   3.637   4.426
13157TIP3    H239429   3.070   3.777   4.423
13158TIP3   OH239430   2.008   4.020   1.889
13158TIP3    H139431   1.955   4.084   1.842
13158TIP3    H239432   1.982   3.935   1.854
13159TIP3   OH239433   6.910   4.781   1.228
13159TIP3    H139434   6.864   4.720   1.286
13159TIP3    H239435   6.940   4.851   1.286
13160TIP3   OH239436   0.328   3.195   4.833
13160TIP3    H139437   0.411   3.233   4.860
13160TIP3    H239438   0.349   3.146   4.753
13161TIP3   OH239439   4.646   6.783   2.610
13161TIP3    H139440   4.551   6.780   2.626
13161TIP3    H239441   4.671   6.691   2.600
13162TIP3   OH239442   5.337   7.827   3.420
13162TIP3    H139443   5.317   7.750   3.366
13162TIP3    H239444   5.251   7.862   3.445
13163TIP3   OH239445   2.288   4.832   6.209
13163TIP3    H139446   2.198   4.818   6.239
13163TIP3    H239447   2.279   4.879   6.126
13164TIP3   OH239448   1.042   4.190   1.471
13164TIP3    H139449   1.047   4.109   1.420
13164TIP3    H239450   1.121   4.238   1.448
13165TIP3   OH239451   6.031   5.599   6.564
13165TIP3    H139452   6.085   5.624   6.640
13165TIP3    H239453   6.079   5.633   6.489
13166TIP3   OH239454   0.353   3.125   6.169
13166TIP3    H139455   0.300   3.165   6.100
13166TIP3    H239456   0.313   3.039   6.184
13167TIP3   OH239457   0.727   2.294   2.254
13167TIP3    H139458   0.766   2.346   2.184
13167TIP3    H239459   0.727   2.353   2.330
13168TIP3   OH239460   4.465   3.703   3.463
13168TIP3    H139461   4.478   3.789   3.503
13168TIP3    H239462   4.548   3.684   3.420
13169TIP3   OH239463   0.094   0.898   6.688
13169TIP3    H139464   0.061   0.888   6.599
13169TIP3    H239465   0.170   0.839   6.691
13170TIP3   OH239466   5.313   3.879   4.158
13170TIP3    H139467   5.286   3.819   4.089
13170TIP3    H239468   5.231   3.913   4.194
13171TIP3   OH239469   7.903   6.744   0.220
13171TIP3    H139470   7.988   6.706   0.196
13171TIP3    H239471   7.915   6.776   0.309
13172TIP3   OH239472   7.163   1.583   1.114
13172TIP3    H139473   7.075   1.617   1.134
13172TIP3    H239474   7.186   1.624   1.031
13173TIP3   OH239475   0.854   3.225   2.674
13173TIP3    H139476   0.820   3.308   2.640
13173TIP3    H239477   0.778   3.167   2.675
13174TIP3   OH239478   5.885   7.208   1.151
13174TIP3    H139479   5.855   7.296   1.130
13174TIP3    H239480   5.971   7.201   1.109
13175TIP3   OH239481   1.863   4.663   3.162
13175TIP3    H139482   1.880   4.755   3.180
13175TIP3    H239483   1.772   4.662   3.130
13176TIP3   OH239484   2.772   0.301   1.558
13176TIP3    H139485   2.806   0.314   1.647
13176TIP3    H239486   2.697   0.360   1.552
13177TIP3   OH239487   3.470   1.922   4.378
13177TIP3    H139488   3.477   2.013   4.347
13177TIP3    H239489   3.551   1.907   4.427
13178TIP3   OH239490   2.012   7.694   1.367
13178TIP3    H139491   2.024   7.788   1.382
13178TIP3    H239492   2.044   7.679   1.278
13179TIP3   OH239493   5.490   4.833   0.227
13179TIP3    H139494   5.520   4.744   0.207
13179TIP3    H239495   5.400   4.820   0.260
13180TIP3   OH239496   5.260   7.140   6.139
13180TIP3    H139497   5.350   7.111   6.151
13180TIP3    H239498   5.258   7.174   6.049
13181TIP3   OH239499   4.794   7.007   2.581
13181TIP3    H139500   4.871   7.003   2.525
13181TIP3    H239501   4.749   6.924   2.566
13182TIP3   OH239502   6.263   7.436   0.207
13182TIP3    H139503   6.257   7.529   0.188
13182TIP3    H239504   6.196   7.395   0.152
13183TIP3   OH239505   5.372   4.432   1.310
13183TIP3    H139506   5.344   4.350   1.268
13183TIP3    H239507   5.376   4.411   1.404
13184TIP3   OH239508   7.973   5.620   0.748
13184TIP3    H139509   8.009   5.702   0.715
13184TIP3    H239510   7.907   5.594   0.684
13185TIP3   OH239511   5.589   2.842   3.444
13185TIP3    H139512   5.647   2.775   3.481
13185TIP3    H239513   5.577   2.815   3.353
13186TIP3   OH239514   0.337   0.129   2.454
13186TIP3    H139515   0.391   0.196   2.413
13186TIP3    H239516   0.391   0.092   2.523
13187TIP3   OH239517   3.277   0.122   0.266
13187TIP3    H139518   3.238   0.077   0.191
13187TIP3    H239519   3.332   0.190   0.227
13188TIP3   OH239520   0.600   2.327   6.052
13188TIP3    H139521   0.602   2.375   6.135
13188TIP3    H239522   0.513   2.287   6.050
13189TIP3   OH239523   0.167   6.105   6.234
13189TIP3    H139524   0.095   6.136   6.179
13189TIP3    H239525   0.149   6.012   6.247
13190TIP3   OH239526   0.666   3.619   5.107
13190TIP3    H139527   0.689   3.708   5.080
13190TIP3    H239528   0.715   3.604   5.188
13191TIP3   OH239529   0.960   5.852   4.042
13191TIP3    H139530   0.953   5.853   3.946
13191TIP3    H239531   0.871   5.870   4.073
13192TIP3   OH239532   1.342   2.438   0.131
13192TIP3    H139533   1.358   2.356   0.084
13192TIP3    H239534   1.314   2.411   0.218
13193TIP3   OH239535   3.308   4.122   2.151
13193TIP3    H139536   3.312   4.188   2.082
13193TIP3    H239537   3.263   4.166   2.224
13194TIP3   OH239538   5.989   3.423   0.617
13194TIP3    H139539   5.994   3.459   0.529
13194TIP3    H239540   6.063   3.362   0.623
13195TIP3   OH239541   5.553   1.653   3.845
13195TIP3    H139542   5.584   1.598   3.918
13195TIP3    H239543   5.483   1.706   3.883
13196TIP3   OH239544   3.955   4.648   4.638
13196TIP3    H139545   3.948   4.561   4.679
13196TIP3    H239546   3.912   4.637   4.553
13197TIP3   OH239547   4.046   6.790   0.616
13197TIP3    H139548   3.963   6.837   0.619
13197TIP3    H239549   4.111   6.856   0.593
13198TIP3   OH239550   6.017   6.849   0.541
13198TIP3    H139551   5.979   6.809   0.620
13198TIP3    H239552   6.008   6.782   0.473
13199TIP3   OH239553   3.934   1.271   3.315
13199TIP3    H139554   3.984   1.212   3.371
13199TIP3    H239555   3.918   1.348   3.370
13200TIP3   OH239556   1.901   3.940   1.621
13200TIP3    H139557   1.977   3.900   1.577
13200TIP3    H239558   1.855   3.985   1.550
13201TIP3   OH239559   6.023   3.965   0.889
13201TIP3    H139560   6.117   3.978   0.877
13201TIP3    H239561   6.010   3.971   0.984
13202TIP3   OH239562   4.447   1.146   5.817
13202TIP3    H139563   4.374   1.183   5.867
13202TIP3    H239564   4.507   1.113   5.884
13203TIP3   OH239565   1.264   2.901   2.443
13203TIP3    H139566   1.173   2.901   2.416
13203TIP3    H239567   1.279   2.988   2.480
13204TIP3   OH239568   7.086   2.748   2.508
13204TIP3    H139569   7.169   2.700   2.514
13204TIP3    H239570   7.025   2.694   2.557
13205TIP3   OH239571   0.512   6.763   3.466
13205TIP3    H139572   0.559   6.700   3.411
13205TIP3    H239573   0.560   6.762   3.549
13206TIP3   OH239574   7.829   4.326   1.597
13206TIP3    H139575   7.858   4.294   1.683
13206TIP3    H239576   7.785   4.251   1.558
13207TIP3   OH239577   3.655   4.206   5.384
13207TIP3    H139578   3.685   4.252   5.463
13207TIP3    H239579   3.579   4.256   5.355
13208TIP3   OH239580   6.410   2.589   4.113
13208TIP3    H139581   6.419   2.532   4.190
13208TIP3    H239582   6.342   2.652   4.138
13209TIP3   OH239583   6.987   3.439   0.835
13209TIP3    H139584   7.038   3.489   0.898
13209TIP3    H239585   7.038   3.359   0.820
13210TIP3   OH239586   1.946   2.019   1.152
13210TIP3    H139587   1.877   2.041   1.214
13210TIP3    H239588   1.947   2.093   1.091
13211TIP3   OH239589   2.687   0.886   2.590
13211TIP3    H139590   2.771   0.903   2.547
13211TIP3    H239591   2.623   0.935   2.537
13212TIP3   OH239592   0.001   4.742   4.672
13212TIP3    H139593   0.029   4.652   4.655
13212TIP3    H239594   0.045   4.766   4.754
13213TIP3   OH239595   0.054   6.507   2.834
13213TIP3    H139596   0.075   6.445   2.904
13213TIP3    H239597   0.007   6.578   2.879
13214TIP3   OH239598   5.882   6.130   6.503
13214TIP3    H139599   5.867   6.215   6.544
13214TIP3    H239600   5.850   6.066   6.567
13215TIP3   OH239601   0.432   0.874   3.846
13215TIP3    H139602   0.340   0.850   3.850
13215TIP3    H239603   0.433   0.969   3.844
13216TIP3   OH239604   1.875   4.671   4.142
13216TIP3    H139605   1.917   4.635   4.220
13216TIP3    H239606   1.941   4.662   4.073
13217TIP3   OH239607   5.394   2.725   0.092
13217TIP3    H139608   5.428   2.770   0.169
13217TIP3    H239609   5.419   2.633   0.105
13218TIP3   OH239610   0.213   6.084   4.843
13218TIP3    H139611   0.198   6.178   4.846
13218TIP3    H239612   0.210   6.056   4.934
13219TIP3   OH239613   2.168   2.923   5.239
13219TIP3    H139614   2.135   2.929   5.329
13219TIP3    H239615   2.158   3.012   5.204
13220TIP3   OH239616   2.250   5.857   1.402
13220TIP3    H139617   2.284   5.886   1.487
13220TIP3    H239618   2.318   5.880   1.339
13221TIP3   OH239619   7.356   6.259   2.079
13221TIP3    H139620   7.296   6.263   2.153
13221TIP3    H239621   7.299   6.248   2.003
13222TIP3   OH239622   1.592   4.675   1.134
13222TIP3    H139623   1.590   4.767   1.160
13222TIP3    H239624   1.633   4.675   1.047
13223TIP3   OH239625   4.262   5.394   0.567
13223TIP3    H139626   4.254   5.449   0.645
13223TIP3    H239627   4.335   5.432   0.518
13224TIP3   OH239628   1.977   3.908   4.900
13224TIP3    H139629   2.014   3.822   4.884
13224TIP3    H239630   1.892   3.891   4.941
13225TIP3   OH239631   2.167   4.838   2.407
13225TIP3    H139632   2.098   4.905   2.407
13225TIP3    H239633   2.121   4.756   2.423
13226TIP3   OH239634   7.892   6.447   5.942
13226TIP3    H139635   7.937   6.457   5.858
13226TIP3    H239636   7.947   6.492   6.005
13227TIP3   OH239637   5.226   4.419   6.522
13227TIP3    H139638   5.284   4.369   6.579
13227TIP3    H239639   5.193   4.490   6.577
13228TIP3   OH239640   0.600   4.234   3.006
13228TIP3    H139641   0.657   4.233   2.929
13228TIP3    H239642   0.643   4.176   3.068
13229TIP3   OH239643   1.500   2.876   3.958
13229TIP3    H139644   1.566   2.944   3.940
13229TIP3    H239645   1.535   2.830   4.034
13230TIP3   OH239646   3.104   4.052   3.351
13230TIP3    H139647   3.159   3.979   3.321
13230TIP3    H239648   3.118   4.121   3.287
13231TIP3   OH239649   5.266   0.358   4.533
13231TIP3    H139650   5.304   0.313   4.458
13231TIP3    H239651   5.183   0.314   4.548
13232TIP3   OH239652   8.278   5.528   4.697
13232TIP3    H139653   8.331   5.455   4.668
13232TIP3    H239654   8.285   5.527   4.792
13233TIP3   OH239655   5.864   0.280   1.039
13233TIP3    H139656   5.786   0.244   0.996
13233TIP3    H239657   5.930   0.283   0.969
13234TIP3   OH239658   3.411   1.031   3.084
13234TIP3    H139659   3.360   0.951   3.071
13234TIP3    H239660   3.346   1.098   3.104
13235TIP3   OH239661   3.370   0.387   0.900
13235TIP3    H139662   3.354   0.455   0.835
13235TIP3    H239663   3.428   0.324   0.856
13236TIP3   OH239664   6.224   5.786   5.888
13236TIP3    H139665   6.211   5.701   5.930
13236TIP3    H239666   6.166   5.783   5.811
13237TIP3   OH239667   3.893   3.293   3.938
13237TIP3    H139668   3.875   3.320   3.848
13237TIP3    H239669   3.812   3.310   3.985
13238TIP3   OH239670   2.651   1.421   3.674
13238TIP3    H139671   2.586   1.411   3.604
13238TIP3    H239672   2.656   1.334   3.714
13239TIP3   OH239673   7.940   3.643   2.276
13239TIP3    H139674   7.897   3.702   2.338
13239TIP3    H239675   8.030   3.675   2.271
13240TIP3   OH239676   5.194   1.272   5.574
13240TIP3    H139677   5.151   1.317   5.502
13240TIP3    H239678   5.172   1.180   5.561
13241TIP3   OH239679   2.439   2.636   0.718
13241TIP3    H139680   2.465   2.665   0.630
13241TIP3    H239681   2.385   2.559   0.702
13242TIP3   OH239682   1.961   2.637   6.063
13242TIP3    H139683   1.940   2.638   5.970
13242TIP3    H239684   2.057   2.646   6.066
13243TIP3   OH239685   2.263   1.250   0.413
13243TIP3    H139686   2.289   1.312   0.482
13243TIP3    H239687   2.175   1.223   0.438
13244TIP3   OH239688   6.048   5.450   5.790
13244TIP3    H139689   6.098   5.520   5.747
13244TIP3    H239690   5.960   5.457   5.752
13245TIP3   OH239691   2.183   3.849   6.166
13245TIP3    H139692   2.168   3.780   6.230
13245TIP3    H239693   2.198   3.802   6.084
13246TIP3   OH239694   6.635   4.421   6.709
13246TIP3    H139695   6.555   4.466   6.683
13246TIP3    H239696   6.607   4.332   6.731
13247TIP3   OH239697   6.200   7.511   2.037
13247TIP3    H139698   6.192   7.416   2.049
13247TIP3    H239699   6.214   7.546   2.125
13248TIP3   OH239700   3.641   5.441   5.591
13248TIP3    H139701   3.626   5.528   5.628
13248TIP3    H239702   3.581   5.384   5.638
13249TIP3   OH239703   4.724   2.107   2.627
13249TIP3    H139704   4.771   2.185   2.655
13249TIP3    H239705   4.764   2.036   2.677
13250TIP3   OH239706   6.013   6.990   2.434
13250TIP3    H139707   5.983   7.080   2.449
13250TIP3    H239708   6.074   6.973   2.505
13251TIP3   OH239709   3.835   5.298   2.302
13251TIP3    H139710   3.779   5.310   2.378
13251TIP3    H239711   3.775   5.277   2.231
13252TIP3   OH239712   1.930   7.325   6.683
13252TIP3    H139713   1.974   7.303   6.601
13252TIP3    H239714   1.844   7.358   6.655
13253TIP3   OH239715   5.273   4.198   6.127
13253TIP3    H139716   5.217   4.121   6.135
13253TIP3    H239717   5.239   4.260   6.191
13254TIP3   OH239718   1.318   0.734   3.225
13254TIP3    H139719   1.326   0.667   3.293
13254TIP3    H239720   1.397   0.722   3.171
13255TIP3   OH239721   0.955   0.394   5.072
13255TIP3    H139722   0.909   0.311   5.062
13255TIP3    H239723   0.920   0.449   5.002
13256TIP3   OH239724   1.603   0.069   4.875
13256TIP3    H139725   1.591  -0.018   4.837
13256TIP3    H239726   1.531   0.078   4.938
13257TIP3   OH239727   1.113   3.517   1.915
13257TIP3    H139728   1.053   3.448   1.944
13257TIP3    H239729   1.196   3.496   1.959
13258TIP3   OH239730   4.266   7.343   1.175
13258TIP3    H139731   4.186   7.368   1.129
13258TIP3    H239732   4.258   7.248   1.187
13259TIP3   OH239733   6.964   0.221   6.607
13259TIP3    H139734   7.034   0.244   6.546
13259TIP3    H239735   6.993   0.140   6.648
13260TIP3   OH239736   6.145   0.703   3.158
13260TIP3    H139737   6.141   0.693   3.253
13260TIP3    H239738   6.169   0.795   3.145
13261TIP3   OH239739   8.265   3.685   0.514
13261TIP3    H139740   8.217   3.762   0.542
13261TIP3    H239741   8.300   3.708   0.428
13262TIP3   OH239742   2.836   2.170   0.143
13262TIP3    H139743   2.745   2.152   0.119
13262TIP3    H239744   2.886   2.100   0.102
13263TIP3   OH239745   7.254   3.907   5.962
13263TIP3    H139746   7.278   3.995   5.934
13263TIP3    H239747   7.333   3.872   6.003
13264TIP3   OH239748   3.890   1.242   1.196
13264TIP3    H139749   3.862   1.167   1.143
13264TIP3    H239750   3.853   1.225   1.283
13265TIP3   OH239751   5.008   4.202   0.422
13265TIP3    H139752   5.067   4.278   0.427
13265TIP3    H239753   5.061   4.133   0.381
13266TIP3   OH239754   2.488   3.019   2.910
13266TIP3    H139755   2.540   2.980   2.840
13266TIP3    H239756   2.418   2.956   2.926
13267TIP3   OH239757   1.201   4.796   2.099
13267TIP3    H139758   1.208   4.705   2.070
13267TIP3    H239759   1.134   4.794   2.167
13268TIP3   OH239760   7.638   2.081   1.309
13268TIP3    H139761   7.670   2.171   1.321
13268TIP3    H239762   7.657   2.038   1.392
13269TIP3   OH239763   0.650   5.081   2.557
13269TIP3    H139764   0.711   5.134   2.506
13269TIP3    H239765   0.599   5.033   2.492
13270TIP3   OH239766   5.804   6.219   5.722
13270TIP3    H139767   5.760   6.305   5.724
13270TIP3    H239768   5.737   6.159   5.688
13271TIP3   OH239769   5.680   6.432   2.297
13271TIP3    H139770   5.712   6.353   2.252
13271TIP3    H239771   5.758   6.468   2.339
13272TIP3   OH239772   5.376   2.890   2.039
13272TIP3    H139773   5.345   2.817   2.093
13272TIP3    H239774   5.428   2.943   2.100
13273TIP3   OH239775   5.880   4.981   2.306
13273TIP3    H139776   5.806   4.921   2.303
13273TIP3    H239777   5.946   4.940   2.249
13274TIP3   OH239778   1.125   2.011   6.522
13274TIP3    H139779   1.102   1.925   6.559
13274TIP3    H239780   1.082   2.013   6.437
13275TIP3   OH239781   7.600   3.462   1.478
13275TIP3    H139782   7.657   3.434   1.406
13275TIP3    H239783   7.577   3.552   1.457
13276TIP3   OH239784   4.012   6.451   6.172
13276TIP3    H139785   4.028   6.419   6.084
13276TIP3    H239786   4.096   6.486   6.201
13277TIP3   OH239787   1.237   0.153   2.921
13277TIP3    H139788   1.221   0.095   2.847
13277TIP3    H239789   1.172   0.223   2.911
13278TIP3   OH239790   0.317   3.913   3.893
13278TIP3    H139791   0.230   3.879   3.917
13278TIP3    H239792   0.312   3.925   3.799
13279TIP3   OH239793   5.081   1.310   5.328
13279TIP3    H139794   5.149   1.266   5.276
13279TIP3    H239795   5.041   1.373   5.268
13280TIP3   OH239796   7.073   5.773   0.857
13280TIP3    H139797   7.164   5.757   0.880
13280TIP3    H239798   7.076   5.847   0.796
13281TIP3   OH239799   7.482   2.430   0.891
13281TIP3    H139800   7.550   2.482   0.848
13281TIP3    H239801   7.512   2.420   0.981
13282TIP3   OH239802   2.069   6.265   3.612
13282TIP3    H139803   2.114   6.195   3.659
13282TIP3    H239804   2.107   6.264   3.524
13283TIP3   OH239805   4.654   7.356   3.946
13283TIP3    H139806   4.738   7.399   3.933
13283TIP3    H239807   4.625   7.331   3.858
13284TIP3   OH239808   3.035   1.291   5.529
13284TIP3    H139809   3.127   1.286   5.555
13284TIP3    H239810   2.997   1.357   5.587
13285TIP3   OH239811   3.055   7.535   6.708
13285TIP3    H139812   3.007   7.616   6.693
13285TIP3    H239813   3.109   7.524   6.629
13286TIP3   OH239814   1.044   0.293   3.340
13286TIP3    H139815   1.034   0.258   3.429
13286TIP3    H239816   1.104   0.233   3.297
13287TIP3   OH239817   6.855   1.356   2.626
13287TIP3    H139818   6.789   1.409   2.583
13287TIP3    H239819   6.924   1.418   2.650
13288TIP3   OH239820   7.370   6.048   3.623
13288TIP3    H139821   7.354   6.093   3.540
13288TIP3    H239822   7.434   6.103   3.669
13289TIP3   OH239823   6.845   4.113   2.385
13289TIP3    H139824   6.903   4.183   2.356
13289TIP3    H239825   6.877   4.035   2.339
13290TIP3   OH239826   7.397   4.074   2.723
13290TIP3    H139827   7.430   4.027   2.647
13290TIP3    H239828   7.323   4.125   2.689
13291TIP3   OH239829   2.794   0.990   2.945
13291TIP3    H139830   2.700   1.009   2.937
13291TIP3    H239831   2.832   1.023   2.864
13292TIP3   OH239832   7.799   6.792   4.939
13292TIP3    H139833   7.812   6.860   5.004
13292TIP3    H239834   7.766   6.717   4.989
13293TIP3   OH239835   3.117   4.324   4.489
13293TIP3    H139836   3.039   4.281   4.524
13293TIP3    H239837   3.083   4.395   4.434
13294TIP3   OH239838   0.637   6.390   3.887
13294TIP3    H139839   0.701   6.368   3.954
13294TIP3    H239840   0.608   6.479   3.909
13295TIP3   OH239841   1.264   2.657   0.730
13295TIP3    H139842   1.223   2.707   0.659
13295TIP3    H239843   1.351   2.634   0.696
13296TIP3   OH239844   7.696   5.743   2.343
13296TIP3    H139845   7.736   5.663   2.309
13296TIP3    H239846   7.636   5.770   2.273
13297TIP3   OH239847   8.111   6.386   3.281
13297TIP3    H139848   8.113   6.402   3.187
13297TIP3    H239849   8.047   6.316   3.292
13298TIP3   OH239850   2.619   7.352   0.183
13298TIP3    H139851   2.589   7.386   0.099
13298TIP3    H239852   2.552   7.289   0.209
13299TIP3   OH239853   0.168   0.572   4.855
13299TIP3    H139854   0.235   0.505   4.844
13299TIP3    H239855   0.216   0.655   4.850
13300TIP3   OH239856   4.379   5.639   1.359
13300TIP3    H139857   4.466   5.597   1.362
13300TIP3    H239858   4.384   5.708   1.425
13301TIP3   OH239859   6.671   1.160   1.109
13301TIP3    H139860   6.612   1.092   1.078
13301TIP3    H239861   6.621   1.241   1.103
13302TIP3   OH239862   6.617   7.845   3.774
13302TIP3    H139863   6.635   7.752   3.791
13302TIP3    H239864   6.602   7.883   3.861
13303TIP3   OH239865   1.403   3.658   4.573
13303TIP3    H139866   1.447   3.611   4.502
13303TIP3    H239867   1.457   3.642   4.650
13304TIP3   OH239868   0.578   3.371   0.566
13304TIP3    H139869   0.529   3.379   0.648
13304TIP3    H239870   0.512   3.347   0.502
13305TIP3   OH239871   5.898   2.078   4.996
13305TIP3    H139872   5.860   1.991   5.006
13305TIP3    H239873   5.823   2.137   4.992
13306TIP3   OH239874   4.727   5.288   4.783
13306TIP3    H139875   4.654   5.349   4.776
13306TIP3    H239876   4.742   5.257   4.694
13307TIP3   OH239877   5.004   4.266   3.533
13307TIP3    H139878   5.083   4.319   3.540
13307TIP3    H239879   5.035   4.181   3.502
13308TIP3   OH239880   7.805   3.591   2.620
13308TIP3    H139881   7.730   3.638   2.656
13308TIP3    H239882   7.860   3.659   2.582
13309TIP3   OH239883   2.926   4.475   2.389
13309TIP3    H139884   2.902   4.459   2.297
13309TIP3    H239885   2.864   4.422   2.439
13310TIP3   OH239886   4.507   4.181   6.190
13310TIP3    H139887   4.533   4.162   6.099
13310TIP3    H239888   4.431   4.125   6.206
13311TIP3   OH239889   5.880   5.454   1.485
13311TIP3    H139890   5.937   5.511   1.435
13311TIP3    H239891   5.848   5.508   1.557
13312TIP3   OH239892   2.374   7.764   1.426
13312TIP3    H139893   2.289   7.805   1.409
13312TIP3    H239894   2.412   7.752   1.338
13313TIP3   OH239895   7.956   5.448   0.342
13313TIP3    H139896   7.895   5.426   0.412
13313TIP3    H239897   7.956   5.544   0.339
13314TIP3   OH239898   0.596   4.437   6.705
13314TIP3    H139899   0.564   4.356   6.744
13314TIP3    H239900   0.681   4.453   6.746
13315TIP3   OH239901   7.735   4.605   0.147
13315TIP3    H139902   7.721   4.696   0.124
13315TIP3    H239903   7.704   4.555   0.072
13316TIP3   OH239904   7.646   5.965   2.497
13316TIP3    H139905   7.735   5.996   2.513
13316TIP3    H239906   7.657   5.875   2.467
13317TIP3   OH239907   1.633   4.513   4.762
13317TIP3    H139908   1.674   4.579   4.705
13317TIP3    H239909   1.604   4.563   4.838
13318TIP3   OH239910   5.773   0.279   3.015
13318TIP3    H139911   5.697   0.286   2.958
13318TIP3    H239912   5.840   0.237   2.961
13319TIP3   OH239913   3.008   6.052   1.256
13319TIP3    H139914   3.030   5.959   1.248
13319TIP3    H239915   3.057   6.081   1.333
13320TIP3   OH239916   6.545   3.565   5.443
13320TIP3    H139917   6.586   3.615   5.513
13320TIP3    H239918   6.618   3.539   5.387
13321TIP3   OH239919   4.875   0.091   5.380
13321TIP3    H139920   4.913   0.041   5.308
13321TIP3    H239921   4.833   0.166   5.338
13322TIP3   OH239922   5.492   6.006   0.467
13322TIP3    H139923   5.513   6.097   0.489
13322TIP3    H239924   5.396   6.003   0.467
13323TIP3   OH239925   6.450   1.102   5.415
13323TIP3    H139926   6.451   1.016   5.373
13323TIP3    H239927   6.430   1.163   5.344
13324TIP3   OH239928   4.100   5.234   4.928
13324TIP3    H139929   4.017   5.282   4.929
13324TIP3    H239930   4.151   5.276   4.859
13325TIP3   OH239931   2.699   4.488   3.805
13325TIP3    H139932   2.763   4.512   3.738
13325TIP3    H239933   2.711   4.394   3.818
13326TIP3   OH239934   1.504   4.255   3.102
13326TIP3    H139935   1.541   4.323   3.047
13326TIP3    H239936   1.558   4.254   3.181
13327TIP3   OH239937   1.178   4.278   6.435
13327TIP3    H139938   1.113   4.307   6.499
13327TIP3    H239939   1.131   4.218   6.378
13328TIP3   OH239940   5.684   5.331   2.965
13328TIP3    H139941   5.664   5.274   3.039
13328TIP3    H239942   5.777   5.317   2.947
13329TIP3   OH239943   5.647   4.527   4.578
13329TIP3    H139944   5.615   4.568   4.498
13329TIP3    H239945   5.738   4.505   4.560
13330TIP3   OH239946   6.352   7.569   5.102
13330TIP3    H139947   6.320   7.488   5.064
13330TIP3    H239948   6.447   7.561   5.102
13331TIP3   OH239949   0.802   3.443   4.419
13331TIP3    H139950   0.824   3.436   4.512
13331TIP3    H239951   0.809   3.536   4.400
13332TIP3   OH239952   1.963   0.537   2.333
13332TIP3    H139953   2.004   0.604   2.389
13332TIP3    H239954   1.987   0.454   2.373
13333TIP3   OH239955   2.256   4.382   0.794
13333TIP3    H139956   2.252   4.365   0.888
13333TIP3    H239957   2.347   4.364   0.770
13334TIP3   OH239958   3.474   4.336   0.447
13334TIP3    H139959   3.386   4.355   0.414
13334TIP3    H239960   3.463   4.328   0.542
13335TIP3   OH239961   1.247   5.988   3.935
13335TIP3    H139962   1.332   6.014   3.898
13335TIP3    H239963   1.261   5.899   3.966
13336TIP3   OH239964   6.007   0.266   0.799
13336TIP3    H139965   6.090   0.241   0.841
13336TIP3    H239966   5.998   0.204   0.727
13337TIP3   OH239967   2.019   4.418   3.635
13337TIP3    H139968   2.094   4.455   3.589
13337TIP3    H239969   1.974   4.494   3.672
13338TIP3   OH239970   0.676   7.786   2.558
13338TIP3    H139971   0.589   7.779   2.519
13338TIP3    H239972   0.671   7.864   2.613
13339TIP3   OH239973   5.247   0.876   3.971
13339TIP3    H139974   5.280   0.808   4.031
13339TIP3    H239975   5.269   0.843   3.884
13340TIP3   OH239976   6.002   4.175   1.763
13340TIP3    H139977   5.936   4.240   1.738
13340TIP3    H239978   6.063   4.173   1.689
13341TIP3   OH239979   0.769   6.496   6.642
13341TIP3    H139980   0.730   6.428   6.697
13341TIP3    H239981   0.761   6.576   6.693
13342TIP3   OH239982   6.683   5.449   5.181
13342TIP3    H139983   6.700   5.432   5.274
13342TIP3    H239984   6.596   5.488   5.180
13343TIP3   OH239985   4.984   3.360   1.576
13343TIP3    H139986   5.079   3.343   1.579
13343TIP3    H239987   4.945   3.281   1.614
13344TIP3   OH239988   3.728   7.701   3.619
13344TIP3    H139989   3.747   7.757   3.694
13344TIP3    H239990   3.679   7.756   3.559
13345TIP3   OH239991   1.741   2.584   3.342
13345TIP3    H139992   1.821   2.576   3.290
13345TIP3    H239993   1.686   2.511   3.314
13346TIP3   OH239994   2.341   7.675   2.116
13346TIP3    H139995   2.379   7.662   2.028
13346TIP3    H239996   2.317   7.586   2.144
13347TIP3   OH239997   2.383   5.435   2.212
13347TIP3    H139998   2.361   5.527   2.196
13347TIP3    H239999   2.450   5.415   2.147
13348TIP3   OH240000   2.210   1.277   1.968
13348TIP3    H140001   2.124   1.247   1.999
13348TIP3    H240002   2.272   1.234   2.026
13349TIP3   OH240003   0.674   2.356   5.593
13349TIP3    H140004   0.671   2.349   5.498
13349TIP3    H240005   0.645   2.446   5.611
13350TIP3   OH240006   4.469   5.520   0.438
13350TIP3    H140007   4.486   5.594   0.497
13350TIP3    H240008   4.556   5.493   0.407
13351TIP3   OH240009   6.563   3.518   4.317
13351TIP3    H140010   6.656   3.498   4.308
13351TIP3    H240011   6.521   3.468   4.247
13352TIP3   OH240012   2.623   7.144   0.784
13352TIP3    H140013   2.673   7.137   0.703
13352TIP3    H240014   2.587   7.233   0.782
13353TIP3   OH240015   6.138   7.413   0.635
13353TIP3    H140016   6.049   7.444   0.653
13353TIP3    H240017   6.182   7.490   0.598
13354TIP3   OH240018   3.712   5.223   3.978
13354TIP3    H140019   3.769   5.162   4.026
13354TIP3    H240020   3.773   5.281   3.932
13355TIP3   OH240021   2.482   0.214   4.929
13355TIP3    H140022   2.556   0.274   4.919
13355TIP3    H240023   2.506   0.138   4.876
13356TIP3   OH240024   2.242   6.503   0.308
13356TIP3    H140025   2.305   6.565   0.271
13356TIP3    H240026   2.215   6.542   0.391
13357TIP3   OH240027   1.271   3.100   4.974
13357TIP3    H140028   1.267   3.126   4.882
13357TIP3    H240029   1.362   3.072   4.987
13358TIP3   OH240030   7.198   6.601   3.500
13358TIP3    H140031   7.191   6.631   3.410
13358TIP3    H240032   7.134   6.530   3.507
13359TIP3   OH240033   2.752   2.252   0.714
13359TIP3    H140034   2.741   2.220   0.624
13359TIP3    H240035   2.844   2.277   0.719
13360TIP3   OH240036   6.406   2.839   0.452
13360TIP3    H140037   6.381   2.864   0.363
13360TIP3    H240038   6.345   2.768   0.475
13361TIP3   OH240039   2.439   3.929   6.486
13361TIP3    H140040   2.437   3.988   6.561
13361TIP3    H240041   2.530   3.901   6.480
13362TIP3   OH240042   4.994   2.523   4.979
13362TIP3    H140043   4.915   2.482   5.014
13362TIP3    H240044   5.029   2.459   4.916
13363TIP3   OH240045   7.155   3.381   5.452
13363TIP3    H140046   7.116   3.307   5.406
13363TIP3    H240047   7.143   3.455   5.393
13364TIP3   OH240048   5.042   2.151   3.924
13364TIP3    H140049   5.031   2.087   3.995
13364TIP3    H240050   4.966   2.138   3.868
13365TIP3   OH240051   1.071   4.538   2.787
13365TIP3    H140052   1.004   4.506   2.848
13365TIP3    H240053   1.098   4.461   2.738
13366TIP3   OH240054   2.859   6.520   6.630
13366TIP3    H140055   2.801   6.485   6.562
13366TIP3    H240056   2.893   6.442   6.675
13367TIP3   OH240057   3.904   2.620   2.906
13367TIP3    H140058   3.958   2.549   2.941
13367TIP3    H240059   3.903   2.686   2.975
13368TIP3   OH240060   3.438   4.924   2.456
13368TIP3    H140061   3.352   4.909   2.494
13368TIP3    H240062   3.499   4.888   2.520
13369TIP3   OH240063   5.112   1.586   2.058
13369TIP3    H140064   5.039   1.547   2.011
13369TIP3    H240065   5.072   1.635   2.130
13370TIP3   OH240066   1.234   4.575   6.503
13370TIP3    H140067   1.327   4.596   6.510
13370TIP3    H240068   1.230   4.480   6.515
13371TIP3   OH240069   5.361   0.282   0.880
13371TIP3    H140070   5.304   0.262   0.955
13371TIP3    H240071   5.400   0.198   0.856
13372TIP3   OH240072   1.032   0.243   3.600
13372TIP3    H140073   1.032   0.182   3.674
13372TIP3    H240074   0.976   0.315   3.628
13373TIP3   OH240075   1.507   7.169   0.992
13373TIP3    H140076   1.452   7.129   1.059
13373TIP3    H240077   1.596   7.146   1.016
13374TIP3   OH240078   7.801   7.187   0.314
13374TIP3    H140079   7.729   7.240   0.348
13374TIP3    H240080   7.844   7.243   0.249
13375TIP3   OH240081   2.438   1.386   1.554
13375TIP3    H140082   2.500   1.353   1.619
13375TIP3    H240083   2.377   1.440   1.605
13376TIP3   OH240084   5.727   1.984   4.345
13376TIP3    H140085   5.783   2.061   4.352
13376TIP3    H240086   5.671   2.002   4.269
13377TIP3   OH240087   1.881   1.607   0.286
13377TIP3    H140088   1.855   1.572   0.201
13377TIP3    H240089   1.882   1.531   0.344
13378TIP3   OH240090   0.573   6.938   0.636
13378TIP3    H140091   0.518   6.936   0.714
13378TIP3    H240092   0.512   6.942   0.563
13379TIP3   OH240093   5.035   0.647   0.376
13379TIP3    H140094   5.091   0.691   0.312
13379TIP3    H240095   5.088   0.644   0.456
13380TIP3   OH240096   8.126   2.331   3.732
13380TIP3    H140097   8.136   2.266   3.801
13380TIP3    H240098   8.134   2.415   3.777
13381TIP3   OH240099   4.786   4.324   2.629
13381TIP3    H140100   4.695   4.297   2.642
13381TIP3    H240101   4.802   4.309   2.535
13382TIP3   OH240102   7.097   3.789   1.378
13382TIP3    H140103   7.081   3.736   1.456
13382TIP3    H240104   7.114   3.877   1.411
13383TIP3   OH240105   2.324   5.693   1.069
13383TIP3    H140106   2.359   5.769   1.115
13383TIP3    H240107   2.243   5.672   1.117
13384TIP3   OH240108   4.674   1.407   2.553
13384TIP3    H140109   4.617   1.477   2.587
13384TIP3    H240110   4.748   1.405   2.614
13385TIP3   OH240111   1.157   2.916   3.208
13385TIP3    H140112   1.140   2.873   3.124
13385TIP3    H240113   1.244   2.885   3.233
13386TIP3   OH240114   7.317   2.878   3.988
13386TIP3    H140115   7.240   2.845   3.941
13386TIP3    H240116   7.349   2.802   4.037
13387TIP3   OH240117   2.354   6.981   1.042
13387TIP3    H140118   2.434   7.035   1.047
13387TIP3    H240119   2.308   7.000   1.124
13388TIP3   OH240120   6.777   0.979   0.062
13388TIP3    H140121   6.742   0.972   0.151
13388TIP3    H240122   6.795   0.889   0.036
13389TIP3   OH240123   7.410   3.998   3.864
13389TIP3    H140124   7.440   3.979   3.953
13389TIP3    H240125   7.466   4.069   3.834
13390TIP3   OH240126   1.522   2.521   4.835
13390TIP3    H140127   1.466   2.457   4.879
13390TIP3    H240128   1.463   2.573   4.781
13391TIP3   OH240129   4.716   0.360   3.620
13391TIP3    H140130   4.684   0.449   3.606
13391TIP3    H240131   4.692   0.339   3.710
13392TIP3   OH240132   2.569   6.971   3.366
13392TIP3    H140133   2.598   6.907   3.302
13392TIP3    H240134   2.567   6.923   3.449
13393TIP3   OH240135   0.942   2.474   5.090
13393TIP3    H140136   0.900   2.402   5.136
13393TIP3    H240137   0.871   2.537   5.074
13394TIP3   OH240138   7.146   1.931   0.181
13394TIP3    H140139   7.077   1.921   0.116
13394TIP3    H240140   7.159   2.026   0.188
13395TIP3   OH240141   4.609   3.260   5.865
13395TIP3    H140142   4.545   3.190   5.850
13395TIP3    H240143   4.652   3.236   5.947
13396TIP3   OH240144   3.770   4.660   2.869
13396TIP3    H140145   3.857   4.695   2.886
13396TIP3    H240146   3.748   4.614   2.950
13397TIP3   OH240147   6.022   4.495   5.928
13397TIP3    H140148   6.059   4.476   5.842
13397TIP3    H240149   6.031   4.589   5.938
13398TIP3   OH240150   4.206   3.025   1.971
13398TIP3    H140151   4.245   3.062   2.050
13398TIP3    H240152   4.155   2.950   2.002
13399TIP3   OH240153   0.087   2.462   2.206
13399TIP3    H140154   0.168   2.413   2.191
13399TIP3    H240155   0.064   2.442   2.297
13400TIP3   OH240156   3.947   1.015   0.078
13400TIP3    H140157   3.952   0.932   0.031
13400TIP3    H240158   3.939   0.989   0.170
13401TIP3   OH240159   7.284   4.150   1.063
13401TIP3    H140160   7.355   4.120   1.119
13401TIP3    H240161   7.205   4.140   1.116
13402TIP3   OH240162   7.379   6.931   4.607
13402TIP3    H140163   7.367   6.911   4.515
13402TIP3    H240164   7.360   6.849   4.653
13403TIP3   OH240165   6.053   1.240   1.445
13403TIP3    H140166   6.093   1.153   1.440
13403TIP3    H240167   5.976   1.235   1.388
13404TIP3   OH240168   1.694   0.964   1.012
13404TIP3    H140169   1.605   0.983   1.041
13404TIP3    H240170   1.731   0.909   1.081
13405TIP3   OH240171   4.453   3.152   2.483
13405TIP3    H140172   4.377   3.177   2.431
13405TIP3    H240173   4.487   3.235   2.517
13406TIP3   OH240174   7.307   7.535   0.089
13406TIP3    H140175   7.257   7.466   0.133
13406TIP3    H240176   7.393   7.496   0.074
13407TIP3   OH240177   5.203   5.236   0.010
13407TIP3    H140178   5.294   5.262   0.026
13407TIP3    H240179   5.151   5.313   0.031
13408TIP3   OH240180   3.196   2.847   4.206
13408TIP3    H140181   3.107   2.831   4.175
13408TIP3    H240182   3.238   2.894   4.134
13409TIP3   OH240183   7.060   2.236   3.156
13409TIP3    H140184   7.020   2.291   3.224
13409TIP3    H240185   6.987   2.187   3.119
13410TIP3   OH240186   3.063   6.890   2.521
13410TIP3    H140187   3.030   6.819   2.466
13410TIP3    H240188   2.988   6.914   2.576
13411TIP3   OH240189   1.038   6.368   2.248
13411TIP3    H140190   1.003   6.456   2.240
13411TIP3    H240191   0.988   6.329   2.320
13412TIP3   OH240192   5.726   3.611   1.209
13412TIP3    H140193   5.766   3.560   1.279
13412TIP3    H240194   5.698   3.693   1.250
13413TIP3   OH240195   2.887   7.316   4.656
13413TIP3    H140196   2.847   7.285   4.738
13413TIP3    H240197   2.926   7.238   4.618
13414TIP3   OH240198   2.286   3.657   5.957
13414TIP3    H140199   2.238   3.583   5.994
13414TIP3    H240200   2.367   3.618   5.923
13415TIP3   OH240201   6.904   3.928   5.632
13415TIP3    H140202   6.842   3.919   5.560
13415TIP3    H240203   6.916   4.023   5.641
13416TIP3   OH240204   3.478   1.300   4.985
13416TIP3    H140205   3.423   1.277   5.060
13416TIP3    H240206   3.458   1.234   4.919
13417TIP3   OH240207   2.070   4.856   0.442
13417TIP3    H140208   1.982   4.821   0.452
13417TIP3    H240209   2.104   4.812   0.363
13418TIP3   OH240210   8.032   2.763   3.106
13418TIP3    H140211   8.023   2.782   3.013
13418TIP3    H240212   7.945   2.776   3.143
13419TIP3   OH240213   2.918   4.752   0.775
13419TIP3    H140214   2.944   4.709   0.856
13419TIP3    H240215   2.931   4.846   0.793
13420TIP3   OH240216   4.268   1.815   1.767
13420TIP3    H140217   4.261   1.908   1.789
13420TIP3    H240218   4.356   1.806   1.730
13421TIP3   OH240219   0.958   5.069   5.022
13421TIP3    H140220   0.934   4.993   5.074
13421TIP3    H240221   1.036   5.042   4.973
13422TIP3   OH240222   2.190   7.350   1.751
13422TIP3    H140223   2.115   7.357   1.692
13422TIP3    H240224   2.206   7.440   1.781
13423TIP3   OH240225   3.163   6.273   2.113
13423TIP3    H140226   3.198   6.237   2.032
13423TIP3    H240227   3.207   6.224   2.182
13424TIP3   OH240228   0.918   4.845   6.525
13424TIP3    H140229   0.984   4.913   6.538
13424TIP3    H240230   0.920   4.794   6.606
13425TIP3   OH240231   1.170   3.667   0.612
13425TIP3    H140232   1.243   3.627   0.564
13425TIP3    H240233   1.172   3.624   0.698
13426TIP3   OH240234   1.541   6.912   5.269
13426TIP3    H140235   1.451   6.926   5.239
13426TIP3    H240236   1.538   6.827   5.313
13427TIP3   OH240237   4.782   2.241   4.123
13427TIP3    H140238   4.815   2.306   4.061
13427TIP3    H240239   4.733   2.179   4.068
13428TIP3   OH240240   8.240   2.388   4.764
13428TIP3    H140241   8.306   2.329   4.797
13428TIP3    H240242   8.268   2.409   4.675
13429TIP3   OH240243   4.594   4.356   3.145
13429TIP3    H140244   4.590   4.376   3.239
13429TIP3    H240245   4.513   4.391   3.109
13430TIP3   OH240246   0.612   1.163   3.692
13430TIP3    H140247   0.672   1.101   3.732
13430TIP3    H240248   0.570   1.114   3.621
13431TIP3   OH240249   7.338   0.280   5.306
13431TIP3    H140250   7.433   0.286   5.312
13431TIP3    H240251   7.306   0.314   5.389
13432TIP3   OH240252   3.605   3.290   5.066
13432TIP3    H140253   3.632   3.317   4.977
13432TIP3    H240254   3.569   3.370   5.105
13433TIP3   OH240255   7.361   0.007   4.434
13433TIP3    H140256   7.371   0.052   4.350
13433TIP3    H240257   7.287   0.051   4.475
13434TIP3   OH240258   7.739   6.051   1.832
13434TIP3    H140259   7.777   6.134   1.861
13434TIP3    H240260   7.773   6.039   1.743
13435TIP3   OH240261   2.781   1.610   4.727
13435TIP3    H140262   2.858   1.552   4.729
13435TIP3    H240263   2.714   1.559   4.681
13436TIP3   OH240264   2.946   7.801   3.260
13436TIP3    H140265   2.952   7.785   3.166
13436TIP3    H240266   2.920   7.893   3.267
13437TIP3   OH240267   7.498   6.894   6.440
13437TIP3    H140268   7.457   6.811   6.415
13437TIP3    H240269   7.437   6.933   6.503
13438TIP3   OH240270   8.122   2.431   1.626
13438TIP3    H140271   8.137   2.336   1.624
13438TIP3    H240272   8.037   2.444   1.585
13439TIP3   OH240273   5.363   4.820   6.134
13439TIP3    H140274   5.372   4.737   6.087
13439TIP3    H240275   5.344   4.884   6.065
13440TIP3   OH240276   0.547   2.597   1.320
13440TIP3    H140277   0.459   2.626   1.294
13440TIP3    H240278   0.594   2.678   1.339
13441TIP3   OH240279   4.702   4.723   4.950
13441TIP3    H140280   4.748   4.714   4.866
13441TIP3    H240281   4.754   4.786   4.999
13442TIP3   OH240282   5.443   1.859   4.808
13442TIP3    H140283   5.386   1.924   4.766
13442TIP3    H240284   5.480   1.809   4.736
13443TIP3   OH240285   3.670   3.162   3.396
13443TIP3    H140286   3.694   3.244   3.352
13443TIP3    H240287   3.586   3.138   3.358
13444TIP3   OH240288   0.677   4.169   0.293
13444TIP3    H140289   0.613   4.219   0.343
13444TIP3    H240290   0.749   4.154   0.354
13445TIP3   OH240291   0.649   0.461   2.583
13445TIP3    H140292   0.656   0.505   2.668
13445TIP3    H240293   0.565   0.489   2.548
13446TIP3   OH240294   8.029   6.172   6.043
13446TIP3    H140295   8.011   6.237   6.111
13446TIP3    H240296   7.966   6.102   6.060
13447TIP3   OH240297   2.209   4.110   3.880
13447TIP3    H140298   2.155   4.183   3.909
13447TIP3    H240299   2.154   4.063   3.817
13448TIP3   OH240300   5.135   3.638   6.385
13448TIP3    H140301   5.158   3.599   6.469
13448TIP3    H240302   5.195   3.711   6.375
13449TIP3   OH240303   1.092   4.908   6.111
13449TIP3    H140304   1.121   4.831   6.159
13449TIP3    H240305   1.076   4.877   6.022
13450TIP3   OH240306   2.562   5.031  -0.025
13450TIP3    H140307   2.472   5.053   0.001
13450TIP3    H240308   2.584   4.954   0.027
13451TIP3   OH240309   5.992   3.925   6.717
13451TIP3    H140310   5.964   4.016   6.718
13451TIP3    H240311   5.939   3.883   6.650
13452TIP3   OH240312   1.517   0.027   0.520
13452TIP3    H140313   1.577   0.005   0.449
13452TIP3    H240314   1.431  -0.004   0.489
13453TIP3   OH240315   6.713   3.321   1.039
13453TIP3    H140316   6.698   3.415   1.024
13453TIP3    H240317   6.795   3.318   1.089
13454TIP3   OH240318   5.959   0.754   1.523
13454TIP3    H140319   5.890   0.809   1.559
13454TIP3    H240320   5.919   0.710   1.449
13455TIP3   OH240321   7.614   0.712   6.013
13455TIP3    H140322   7.578   0.666   6.088
1