Title
44502
    1GLY      N    1   3.357   5.396   3.752  0.4490 -1.1113  0.0924
    1GLY    HT1    2   3.419   5.476   3.774 -3.5171  2.0177  1.0700
    1GLY    HT2    3   3.384   5.341   3.668 -2.4001 -1.6326 -0.5917
    1GLY    HT3    4   3.347   5.330   3.832 -0.5134  1.2010  2.0081
    1GLY     CA    5   3.230   5.457   3.711  0.5772  0.3485 -0.5864
    1GLY    HA1    6   3.155   5.380   3.701  0.9961  0.0163 -1.1636
    1GLY    HA2    7   3.245   5.522   3.627 -1.3436  0.1694 -1.1281
    1GLY      C    8   3.173   5.545   3.829  0.2431 -0.8984 -0.7753
    1GLY      O    9   3.251   5.586   3.922 -0.2969 -0.0685  0.0173
    2PRO      N   10   3.043   5.579   3.833 -0.4247  0.6314  0.2769
    2PRO     CD   11   2.959   5.545   3.720  0.3362  0.2419  0.8696
    2PRO    HD1   12   2.966   5.437   3.696 -0.1301  0.6915 -1.5200
    2PRO    HD2   13   2.989   5.616   3.640 -0.8604 -0.9107 -0.6748
    2PRO     CA   14   2.966   5.655   3.929  0.0727 -0.0546 -0.1677
    2PRO     HA   15   2.971   5.758   3.896 -0.5085  0.2205  0.5750
    2PRO     CB   16   2.821   5.604   3.913 -0.5182 -0.4568  0.3534
    2PRO    HB1   17   2.748   5.682   3.946 -0.6478  0.1995 -1.3587
    2PRO    HB2   18   2.798   5.511   3.969  1.3376 -1.6321 -0.7405
    2PRO     CG   19   2.812   5.581   3.763 -0.2673 -0.2365 -0.3312
    2PRO    HG1   20   2.743   5.496   3.743 -2.0623  1.2997 -0.9540
    2PRO    HG2   21   2.776   5.668   3.704  1.0724  0.3043 -0.3747
    2PRO      C   22   3.011   5.644   4.072 -0.2882  0.8723 -0.1199
    2PRO      O   23   3.016   5.534   4.127 -0.0618  0.2662  0.0349
    3GLY      N   24   3.042   5.755   4.144 -0.1472 -0.1800  0.1235
    3GLY     HN   25   3.045   5.838   4.088 -0.1681 -0.6762 -0.6238
    3GLY     CA   26   3.093   5.754   4.285  0.0848  0.4033 -0.5210
    3GLY    HA1   27   3.099   5.855   4.323 -1.3035  0.4306 -0.2937
    3GLY    HA2   28   3.188   5.704   4.294 -1.3440 -2.3232  0.9947
    3GLY      C   29   3.000   5.675   4.382 -0.2789  0.4186 -1.3051
    3GLY      O   30   3.041   5.605   4.476 -0.2281 -0.1258  0.2234
    4ASN      N   31   2.868   5.691   4.365 -0.1114 -0.3852 -0.4222
    4ASN     HN   32   2.842   5.758   4.296  0.5544  0.1554 -0.1634
    4ASN     CA   33   2.766   5.623   4.438  0.4434 -0.6444 -0.7600
    4ASN     HA   34   2.806   5.549   4.506  0.0673  1.1675  1.5656
    4ASN     CB   35   2.683   5.727   4.523  0.2326  0.1234  0.0779
    4ASN    HB1   36   2.612   5.673   4.589 -3.7174  1.6683 -2.4775
    4ASN    HB2   37   2.615   5.778   4.451  0.3232 -1.3338 -1.1045
    4ASN     CG   38   2.779   5.809   4.607 -0.5238 -0.1020  0.6847
    4ASN    OD1   39   2.774   5.928   4.590  0.1607 -0.3592  0.0753
    4ASN    ND2   40   2.852   5.754   4.702  0.0617 -0.6781 -0.5215
    4ASN   HD21   41   2.912   5.809   4.760  0.5305 -2.0837  0.3584
    4ASN   HD22   42   2.847   5.655   4.711 -0.3073 -0.4754  2.0472
    4ASN      C   43   2.678   5.557   4.329 -0.2640  0.0152 -0.6990
    4ASN      O   44   2.600   5.624   4.258 -0.2641  0.4440 -0.3425
    5PRO      N   45   2.680   5.428   4.322  0.4190 -0.0719  0.1259
    5PRO     CD   46   2.798   5.339   4.338 -0.1218 -0.8265 -0.5647
    5PRO    HD1   47   2.817   5.322   4.447  2.7030 -1.7030 -1.1083
    5PRO    HD2   48   2.884   5.390   4.290 -0.2277  0.4214  0.4973
    5PRO     CA   49   2.572   5.350   4.264  0.0311 -0.6257 -0.2918
    5PRO     HA   50   2.556   5.376   4.161  2.0124  0.3981 -0.3788
    5PRO     CB   51   2.612   5.210   4.292  0.8907 -0.7851 -0.1449
    5PRO    HB1   52   2.551   5.136   4.237 -0.4210  0.0448  0.1635
    5PRO    HB2   53   2.608   5.180   4.399  1.2664  1.6282  0.6039
    5PRO     CG   54   2.761   5.210   4.266  0.6149  0.2764 -0.1412
    5PRO    HG1   55   2.805   5.126   4.324 -0.9561 -1.0403 -0.7858
    5PRO    HG2   56   2.782   5.190   4.158  2.8414 -1.5566  0.5515
    5PRO      C   57   2.434   5.368   4.326  0.0547 -1.2426 -0.4428
    5PRO      O   58   2.434   5.412   4.443  0.0205 -0.6357 -0.7508
    6GLY      N   59   2.321   5.346   4.253 -0.1945 -0.0981 -0.5066
    6GLY     HN   60   2.326   5.344   4.154  1.2175 -0.9548 -0.4440
    6GLY     CA   61   2.185   5.343   4.321  0.0841 -0.4109  1.0257
    6GLY    HA1   62   2.122   5.327   4.235  0.7902 -1.1284  0.6228
    6GLY    HA2   63   2.171   5.437   4.372 -2.6956  0.7277 -1.5154
    6GLY      C   64   2.159   5.230   4.419  0.3180 -0.2606  0.8722
    6GLY      O   65   2.248   5.164   4.475  0.1386  0.0715  0.5624
    7PRO      N   66   2.031   5.219   4.449 -0.3841  0.4460 -0.0844
    7PRO     CD   67   1.935   5.329   4.428 -0.4716  0.3465 -0.4503
    7PRO    HD1   68   1.922   5.354   4.321  1.8343  2.4514 -0.3317
    7PRO    HD2   69   1.965   5.422   4.480 -1.4238  0.4824 -0.1260
    7PRO     CA   70   1.973   5.111   4.534  0.7722 -0.2295 -0.0548
    7PRO     HA   71   1.987   5.138   4.638 -2.8351  0.4026  0.3964
    7PRO     CB   72   1.822   5.134   4.511 -0.1267  0.3957 -0.1040
    7PRO    HB1   73   1.760   5.100   4.596 -0.7765  1.8823  0.0377
    7PRO    HB2   74   1.782   5.086   4.419  0.0991 -1.1793  0.5943
    7PRO     CG   75   1.802   5.286   4.497 -0.1907 -0.1837 -0.1692
    7PRO    HG1   76   1.712   5.314   4.437  1.4840  1.3466 -2.1049
    7PRO    HG2   77   1.800   5.324   4.602  0.8614  0.1755 -0.2698
    7PRO      C   78   2.027   4.969   4.506 -0.2353 -0.2341  0.0149
    7PRO      O   79   2.045   4.938   4.387  0.0511 -0.3893 -0.1825
    8GLY      N   80   2.049   4.887   4.613  0.1935  0.1071  0.2887
    8GLY     HN   81   2.015   4.919   4.701  0.8337  0.6427  0.3541
    8GLY     CA   82   2.104   4.747   4.597 -0.8664  0.1861 -0.3787
    8GLY    HA1   83   2.060   4.713   4.504  0.3996  0.6464 -1.1710
    8GLY    HA2   84   2.084   4.686   4.684  2.6066  1.4459  1.4744
    8GLY      C   85   2.253   4.745   4.582 -0.0336  0.1140  0.6510
    8GLY      O   86   2.320   4.846   4.605 -0.3593 -0.4236 -0.0140
    9ASN      N   87   2.308   4.623   4.555  0.3513  0.5467  0.3025
    9ASN     HN   88   2.245   4.548   4.538  1.8089 -0.8690  0.8394
    9ASN     CA   89   2.452   4.608   4.545 -0.2632 -0.2524  0.0145
    9ASN     HA   90   2.502   4.651   4.631  0.9680 -2.2481  0.3434
    9ASN     CB   91   2.500   4.466   4.533 -0.5470  0.2950 -0.2113
    9ASN    HB1   92   2.611   4.473   4.542 -0.6390  3.0900 -0.1359
    9ASN    HB2   93   2.479   4.418   4.436 -1.9487 -2.0267  1.1617
    9ASN     CG   94   2.456   4.381   4.648 -0.0560 -0.0091 -0.9759
    9ASN    OD1   95   2.506   4.383   4.763 -0.3720  0.4398  0.1043
    9ASN    ND2   96   2.356   4.295   4.629  0.2104  0.5185 -0.1973
    9ASN   HD21   97   2.318   4.243   4.705  1.7993  3.1243  2.6078
    9ASN   HD22   98   2.324   4.294   4.534  0.6864  1.5573 -0.3891
    9ASN      C   99   2.525   4.685   4.435 -0.3492  0.5923 -0.4100
    9ASN      O  100   2.464   4.701   4.329 -0.3947 -0.5474 -0.2078
   10PRO      N  101   2.653   4.733   4.443 -0.4979  0.4996 -0.1380
   10PRO     CD  102   2.725   4.754   4.567  0.4446 -0.6241 -0.6563
   10PRO    HD1  103   2.765   4.662   4.617  0.4913 -0.0829  0.3277
   10PRO    HD2  104   2.656   4.800   4.641  0.3107 -2.2441  0.2760
   10PRO     CA  105   2.735   4.760   4.324 -0.5495  0.6096  0.0674
   10PRO     HA  106   2.687   4.847   4.280  1.0210 -0.0756 -3.2669
   10PRO     CB  107   2.875   4.785   4.377  0.8376  0.0323 -0.8095
   10PRO    HB1  108   2.930   4.861   4.318  0.7820 -0.5167 -1.5792
   10PRO    HB2  109   2.933   4.692   4.392  0.7028  0.0474 -0.1871
   10PRO     CG  110   2.846   4.832   4.519  0.2437 -0.7557 -0.3025
   10PRO    HG1  111   2.941   4.826   4.577 -0.0569  1.9266  0.5850
   10PRO    HG2  112   2.808   4.936   4.517  1.1032 -0.4390 -1.0879
   10PRO      C  113   2.728   4.651   4.217 -0.1886 -0.6313  0.4610
   10PRO      O  114   2.707   4.533   4.245 -0.6733 -0.1992 -0.7390
   11GLY      N  115   2.740   4.702   4.091 -0.2402 -0.1300 -0.3434
   11GLY     HN  116   2.773   4.795   4.077  1.1001 -0.7947 -1.9060
   11GLY     CA  117   2.729   4.621   3.972 -0.1047  0.2715 -0.1726
   11GLY    HA1  118   2.730   4.692   3.891 -1.2829 -1.0537 -1.4197
   11GLY    HA2  119   2.629   4.584   3.991 -0.9663  2.1574 -0.8185
   11GLY      C  120   2.819   4.504   3.944 -0.2120 -0.1818  0.3547
   11GLY      O  121   2.897   4.474   4.027 -0.7468  0.5444  0.4843
   12PRO      N  122   2.818   4.444   3.823 -0.2470 -0.5277  0.1408
   12PRO     CD  123   2.710   4.466   3.722 -0.0193  0.1298  0.3777
   12PRO    HD1  124   2.715   4.563   3.667 -0.3963 -0.9331 -1.6316
   12PRO    HD2  125   2.611   4.449   3.769  1.2077 -3.3075  2.0776
   12PRO     CA  126   2.914   4.338   3.782 -0.3896  0.4496  0.5117
   12PRO     HA  127   2.890   4.249   3.837 -0.8911 -0.9234 -1.8090
   12PRO     CB  128   2.886   4.325   3.631 -0.0894  0.3477 -0.1689
   12PRO    HB1  129   2.908   4.221   3.596 -0.1665 -0.4598  2.0314
   12PRO    HB2  130   2.947   4.403   3.580 -0.3534 -0.2176 -1.4057
   12PRO     CG  131   2.735   4.345   3.621  0.4156 -0.0439 -0.5748
   12PRO    HG1  132   2.684   4.368   3.525  1.2539  0.4164 -0.9211
   12PRO    HG2  133   2.682   4.259   3.667 -2.4151  2.1018  0.5141
   12PRO      C  134   3.066   4.369   3.808 -0.2104  0.5549  0.7077
   12PRO      O  135   3.100   4.483   3.819 -0.1368 -0.2970 -0.3853
   13GLY      N  136   3.151   4.262   3.827 -0.1503 -0.4716  0.2725
   13GLY     HN  137   3.123   4.170   3.800  1.1340 -1.1864  1.2638
   13GLY     CA  138   3.287   4.286   3.875  0.1240  0.0425 -0.0626
   13GLY    HA1  139   3.337   4.341   3.796  1.4823 -0.0583  0.6832
   13GLY    HA2  140   3.330   4.191   3.904  3.6650  1.2679 -0.7553
   13GLY      C  141   3.315   4.369   4.000  0.0361  0.6375  0.3229
   13GLY      O  142   3.226   4.396   4.077 -0.0522  0.1793 -0.6444
   14ASN      N  143   3.438   4.407   4.019 -0.5094  0.2812 -0.5455
   14ASN     HN  144   3.511   4.394   3.952  0.6149 -0.2557  0.7101
   14ASN     CA  145   3.479   4.477   4.141  0.3066 -0.4961 -1.2497
   14ASN     HA  146   3.449   4.416   4.225 -0.7513  0.2547 -1.0630
   14ASN     CB  147   3.633   4.498   4.141  0.3747 -0.7238  0.2798
   14ASN    HB1  148   3.680   4.530   4.237  0.2956 -0.3822  0.2054
   14ASN    HB2  149   3.667   4.576   4.070 -0.6019  0.2579  0.8579
   14ASN     CG  150   3.693   4.366   4.094 -1.1885 -0.7755 -0.1711
   14ASN    OD1  151   3.768   4.358   3.996 -0.1853 -0.3595 -0.2154
   14ASN    ND2  152   3.666   4.262   4.178  0.1209 -0.1563  0.4934
   14ASN   HD21  153   3.697   4.169   4.160 -1.9152 -0.8811  0.4756
   14ASN   HD22  154   3.609   4.276   4.259  0.7090 -1.3006  1.1247
   14ASN      C  155   3.421   4.618   4.149 -0.4510  0.6633  1.0258
   14ASN      O  156   3.401   4.682   4.044 -0.5198 -0.6302  0.0394
   15PRO      N  157   3.397   4.677   4.258  0.2916  0.0522  0.1350
   15PRO     CD  158   3.393   4.619   4.389 -0.2099  0.2673  0.4047
   15PRO    HD1  159   3.493   4.615   4.436  0.0864 -1.2976 -0.3019
   15PRO    HD2  160   3.354   4.515   4.380  0.3476  0.2239 -2.1792
   15PRO     CA  161   3.335   4.813   4.264  0.0352  0.0676  0.6200
   15PRO     HA  162   3.245   4.811   4.205 -0.9420 -0.7522  2.0685
   15PRO     CB  163   3.284   4.836   4.408  0.0254  0.3956 -0.0594
   15PRO    HB1  164   3.177   4.865   4.417 -0.6708 -2.2960  1.6919
   15PRO    HB2  165   3.348   4.913   4.457 -0.5540 -0.1758  1.6730
   15PRO     CG  166   3.289   4.692   4.468  0.3762 -0.4246  0.4146
   15PRO    HG1  167   3.319   4.697   4.575  0.9644 -0.3899  0.2507
   15PRO    HG2  168   3.183   4.659   4.461 -0.2493  1.0257  2.3628
   15PRO      C  169   3.417   4.929   4.207 -0.1055 -0.0042  0.2343
   15PRO    OT1  170   3.532   4.935   4.250 -0.9857  0.2468  0.0962
   15PRO    OT2  171   3.366   5.003   4.120  0.1169 -0.1849  0.2096
   16SOD    SOD  172   2.881   3.699   2.399 -0.5956  0.0904  0.1186
   17SOD    SOD  173   5.668   1.584   0.864 -0.3237  0.4250  0.1205
   18SOD    SOD  174   2.023   4.146   2.414 -0.4803  0.2063  0.1225
   19SOD    SOD  175   4.111   7.000   5.633  0.0846  0.3190  0.0465
   20SOD    SOD  176   3.276   7.386   0.219  0.4888  0.0888  0.2961
   21SOD    SOD  177   0.105   3.851   6.155 -0.1583  0.1723  0.1261
   22SOD    SOD  178   5.018   6.095   1.896 -0.2869 -0.0829  0.4259
   23SOD    SOD  179   5.340   1.180   5.412  0.0423  0.2344 -0.1221
   24SOD    SOD  180   6.118   5.978   5.738  0.0511  0.6717 -0.1022
   25SOD    SOD  181   5.401   7.023   0.909 -0.0156 -0.2699 -0.8046
   26SOD    SOD  182   1.905   3.738   0.622 -0.3599 -0.0922 -0.2949
   27SOD    SOD  183   7.056   7.419   0.614  0.4509  0.1136  0.4410
   28SOD    SOD  184   4.772   4.745   1.882  0.2823 -0.3811 -0.1694
   29SOD    SOD  185   2.606   6.834   1.900  0.6583 -0.4701 -0.2499
   30SOD    SOD  186   4.887   7.586   1.431  0.0790 -0.5362  0.3809
   31SOD    SOD  187   5.233   1.062   6.232  0.6510 -0.2579  0.6741
   32SOD    SOD  188   0.166   0.800   0.233  0.0568  0.2431 -0.0010
   33SOD    SOD  189   1.334   5.329   2.931 -0.4366 -0.0072  0.0709
   34SOD    SOD  190   0.876   7.060   4.661  0.0824  0.1354 -0.8963
   35SOD    SOD  191   4.523   4.437   3.032 -0.4485  0.0334  0.2688
   36SOD    SOD  192   4.688   1.392   4.391  0.0953  0.3753 -0.1902
   37SOD    SOD  193   3.327   4.132   2.648  0.3358 -0.0699 -0.0984
   38SOD    SOD  194   7.208   3.487   6.105 -0.2844 -0.6167  0.4344
   39SOD    SOD  195   8.018   5.486   3.361  0.7548  0.3951 -0.2676
   40SOD    SOD  196   5.400   7.136   0.246  0.1387  0.2557  0.0462
   41SOD    SOD  197   2.264   6.469   0.307  0.0095  1.0084  0.3448
   42SOD    SOD  198   6.077   4.274   1.007  0.4993 -0.4738 -0.0553
   43SOD    SOD  199   6.587   0.356   3.385 -0.2394 -0.5739  0.1155
   44SOD    SOD  200   4.968   0.309   4.031  0.3620 -0.1208  0.2667
   45SOD    SOD  201   5.678   7.312   6.767  0.3207 -0.5824 -0.0083
   46SOD    SOD  202   1.680   6.468   6.629 -0.4304 -0.3251 -0.0207
   47SOD    SOD  203   3.314   4.538   5.618  0.1741 -0.3239  0.4174
   48SOD    SOD  204   3.743   2.649   3.855 -0.2745 -0.0590 -0.4252
   49SOD    SOD  205   6.862   7.531   1.382  0.3722  0.5457 -0.0521
   50SOD    SOD  206   3.488   6.855   5.246 -0.1123  0.6107 -0.3445
   51SOD    SOD  207   5.188   4.802   4.728  0.0773 -0.9223  0.1271
   52SOD    SOD  208   2.358   4.379   4.946 -0.2047  0.5265 -0.0474
   53SOD    SOD  209   4.428   1.229   3.060  0.0813  0.4721 -0.1259
   54SOD    SOD  210   0.409   6.291   3.087 -0.0211 -0.2193  0.3973
   55SOD    SOD  211   2.639   0.898   0.482  0.1048 -0.3776  0.1450
   56SOD    SOD  212   7.011   3.979   4.513  0.1310  0.6385 -0.3461
   57SOD    SOD  213   1.184   6.054   4.727 -0.0412 -0.0907  0.0396
   58CLA    CLA  214   4.322   3.138   2.000  0.0239  0.0193  0.0877
   59CLA    CLA  215   1.896   4.135   0.727 -0.1087  0.0773 -0.0990
   60CLA    CLA  216   3.562   7.660   0.036  0.4587 -0.1197  0.4053
   61CLA    CLA  217   5.725   3.616   6.607 -0.0554 -0.4200  0.1491
   62CLA    CLA  218   4.227   4.356   3.901  0.3649  0.1546 -0.2976
   63CLA    CLA  219   2.288   1.883   2.485 -0.0243  0.0420  0.3913
   64CLA    CLA  220   0.374   7.119   2.425 -0.0902  0.1135 -0.1294
   65CLA    CLA  221   4.195   0.849   4.634 -0.3988  0.2544  0.3298
   66CLA    CLA  222   2.968   3.059   2.219  0.0538  0.2403 -0.2390
   67CLA    CLA  223   8.124   2.725   0.032  0.0315 -0.1880 -0.2878
   68CLA    CLA  224   1.369   2.638   4.322  0.0802 -0.1127  0.2631
   69CLA    CLA  225   8.185   6.074   5.065 -0.0631 -0.1129  0.6037
   70CLA    CLA  226   5.473   0.482   3.970  0.1076  0.2378  0.0136
   71CLA    CLA  227   4.899   5.587   4.252 -0.1344  0.1142  0.0279
   72CLA    CLA  228   5.851   7.383   6.575 -0.2127 -0.2349  0.0506
   73CLA    CLA  229   4.782   6.547   0.136  0.1320 -0.2321  0.5498
   74CLA    CLA  230   6.939   3.553   5.699 -0.4744  0.2572  0.0078
   75CLA    CLA  231   4.036   5.501   2.828 -0.0414 -0.0560  0.0183
   76CLA    CLA  232   6.725   1.974   1.520  0.4953  0.1857 -0.3921
   77CLA    CLA  233   5.161   5.327   2.265 -0.0907  0.0999  0.0301
   78CLA    CLA  234   2.768   2.776   5.263 -0.0838 -0.0724 -0.0409
   79CLA    CLA  235   0.579   6.682   2.065 -0.1524 -0.0021 -0.2490
   80CLA    CLA  236   3.000   3.905   2.814 -0.2969 -0.0278 -0.2553
   81CLA    CLA  237   0.755   4.327   4.930  0.1170 -0.6342 -0.1004
   82CLA    CLA  238   1.473   4.056   0.513 -0.2913  0.3329  0.2190
   83CLA    CLA  239   3.082   1.444   2.245  0.4013 -0.1910 -0.0724
   84CLA    CLA  240   6.105   2.958   0.218 -0.0277  0.0578 -0.1299
   85CLA    CLA  241   7.753   1.261   4.068 -0.1341  0.1139  0.3195
   86CLA    CLA  242   7.834   3.070   3.926 -0.2079 -0.0298  0.4531
   87CLA    CLA  243   2.628   4.739   2.836  0.1745  0.2411 -0.5762
   88CLA    CLA  244   2.439   4.188   6.490 -0.2381 -0.0598 -0.0165
   89CLA    CLA  245   3.082   7.211   0.269  0.0980 -0.2883 -0.1857
   90CLA    CLA  246   1.827   5.169   2.801  0.1092  0.2976  0.1964
   91CLA    CLA  247   5.374   2.885   3.486  0.3180 -0.5477  0.0950
   92CLA    CLA  248   6.301   3.495   6.723 -0.0511 -0.5825 -0.2074
   93CLA    CLA  249   4.527   6.524   0.682 -0.2651  0.6486 -0.3511
   94CLA    CLA  250   4.357   6.278   5.285  0.1070  0.2157  0.4231
   95CLA    CLA  251   2.827   7.589   3.952  0.3909 -0.4268 -0.1466
   96CLA    CLA  252   1.345   0.087   1.716  0.2592  0.1215 -0.1243
   97CLA    CLA  253   5.396   1.287   5.157  0.1997  0.0573  0.0293
   98CLA    CLA  254   7.125   7.025   5.694 -0.4643 -0.2781  0.1011
   99CLA    CLA  255   5.524   3.483   4.125 -0.0756  0.1919 -0.0381
  100TIP3   OH2  256   5.479   6.788   1.727 -0.4409 -0.4136  0.5583
  100TIP3    H1  257   5.447   6.699   1.736  0.4574 -0.9182 -0.8761
  100TIP3    H2  258   5.523   6.806   1.810 -0.3870 -1.4162  0.7606
  101TIP3   OH2  259   4.966   7.180   4.882 -0.4625 -0.3184  0.2085
  101TIP3    H1  260   4.920   7.237   4.944 -1.6212  1.3925 -2.0939
  101TIP3    H2  261   4.957   7.092   4.919 -0.9951  0.6347  2.4975
  102TIP3   OH2  262   6.439   6.295   5.020  0.6462  0.5051  0.4551
  102TIP3    H1  263   6.518   6.272   5.069  0.7977  1.0304  0.4627
  102TIP3    H2  264   6.447   6.390   5.005  0.8218  0.3015 -0.9385
  103TIP3   OH2  265   3.942   1.745   4.935 -0.0765 -0.1999 -0.0771
  103TIP3    H1  266   3.979   1.796   5.007  1.3714 -1.0628 -0.1720
  103TIP3    H2  267   3.891   1.809   4.885  0.9457  0.9796  0.3109
  104TIP3   OH2  268   0.357   4.209   5.119  0.3392 -0.2396  0.4164
  104TIP3    H1  269   0.309   4.222   5.201 -0.4879  1.5153 -0.2843
  104TIP3    H2  270   0.354   4.115   5.104  0.0087 -0.5282  2.1030
  105TIP3   OH2  271   2.716   2.537   1.217 -0.1976 -0.0027 -0.4029
  105TIP3    H1  272   2.781   2.473   1.246  0.7773  1.6949  1.3824
  105TIP3    H2  273   2.729   2.543   1.122  0.1276 -1.9045 -0.5189
  106TIP3   OH2  274   6.978   2.657   5.866  0.1722 -0.7706 -0.1767
  106TIP3    H1  275   7.010   2.715   5.936 -1.3700  0.2453 -0.2691
  106TIP3    H2  276   6.893   2.693   5.842  0.8117 -0.8107 -2.8894
  107TIP3   OH2  277   5.000   0.217   0.432  0.0591 -0.9301  0.4862
  107TIP3    H1  278   4.917   0.220   0.384  0.5747 -2.8350 -0.6257
  107TIP3    H2  279   5.066   0.234   0.364  0.7234 -2.2197  0.7911
  108TIP3   OH2  280   4.880   1.383   2.833  0.1198  0.6583 -0.4750
  108TIP3    H1  281   4.934   1.362   2.909  0.3415  1.1621 -0.4911
  108TIP3    H2  282   4.866   1.298   2.790 -0.3359  0.3150  0.3350
  109TIP3   OH2  283   0.614   4.421   0.045 -0.2812  0.3601  0.2347
  109TIP3    H1  284   0.675   4.492   0.066 -1.3042  1.7039 -1.0962
  109TIP3    H2  285   0.607   4.371   0.126  2.2240  0.4109  0.5657
  110TIP3   OH2  286   1.283   2.132   1.242  1.0250  0.0174 -0.1128
  110TIP3    H1  287   1.357   2.123   1.183 -0.2465  1.8365 -2.1313
  110TIP3    H2  288   1.268   2.227   1.248 -0.1546 -0.2274  1.5471
  111TIP3   OH2  289   2.811   3.381   5.212 -0.6915 -0.1624 -0.0939
  111TIP3    H1  290   2.895   3.351   5.177 -0.7367 -1.1695  0.6326
  111TIP3    H2  291   2.831   3.467   5.249  0.5233 -1.1941  1.8472
  112TIP3   OH2  292   7.297   4.073   3.134 -0.0148  0.1075  0.5637
  112TIP3    H1  293   7.348   3.993   3.123 -0.2541  0.0598 -0.2571
  112TIP3    H2  294   7.284   4.080   3.229 -2.1010 -2.1839  0.5711
  113TIP3   OH2  295   1.341   4.961   0.309  0.3996  0.6262 -0.3236
  113TIP3    H1  296   1.432   4.989   0.301  0.2700  1.1113 -0.1234
  113TIP3    H2  297   1.331   4.937   0.401 -0.0425  1.9045 -0.0181
  114TIP3   OH2  298   2.194   0.647   1.965  0.4587  0.2346  0.2973
  114TIP3    H1  299   2.225   0.627   1.877  0.7316  0.9781  0.2131
  114TIP3    H2  300   2.194   0.743   1.969  0.6505  0.2074  1.1774
  115TIP3   OH2  301   1.617   4.716   4.503  0.1883  0.0822  0.0429
  115TIP3    H1  302   1.665   4.663   4.440 -1.5362 -1.6710  0.1142
  115TIP3    H2  303   1.683   4.742   4.568  1.6059  0.3429 -1.4378
  116TIP3   OH2  304   7.297   0.429   2.504 -0.1921  0.2543 -0.5502
  116TIP3    H1  305   7.305   0.379   2.423  0.2854  0.8725 -0.8942
  116TIP3    H2  306   7.386   0.455   2.526 -0.0254 -1.5784  1.2758
  117TIP3   OH2  307   2.271   2.168   3.644  0.3635  0.1408  0.2628
  117TIP3    H1  308   2.314   2.121   3.573 -1.6487  1.7848 -2.2532
  117TIP3    H2  309   2.319   2.250   3.651 -0.4365  0.6937 -0.4436
  118TIP3   OH2  310   0.403   1.692   0.654  0.2379  0.1866  0.0257
  118TIP3    H1  311   0.488   1.736   0.641  0.7114 -0.7887 -0.2758
  118TIP3    H2  312   0.384   1.704   0.747  0.5608  0.6658  0.0344
  119TIP3   OH2  313   3.427   7.377   1.579  0.0257 -0.4572 -0.2380
  119TIP3    H1  314   3.377   7.385   1.497  0.1943  1.4558 -0.2127
  119TIP3    H2  315   3.362   7.348   1.643 -0.9264  1.1897 -0.3850
  120TIP3   OH2  316   7.977   1.061   2.122  0.3626  0.5272 -0.0694
  120TIP3    H1  317   7.908   1.127   2.115 -1.4090 -0.9683  1.9428
  120TIP3    H2  318   8.053   1.109   2.154 -0.2952  1.8754 -0.4505
  121TIP3   OH2  319   4.195   5.102   3.352 -0.3740  0.1982 -0.1504
  121TIP3    H1  320   4.203   5.040   3.280 -0.3386  1.6108 -1.4031
  121TIP3    H2  321   4.147   5.177   3.315 -0.1871  1.0442  1.2283
  122TIP3   OH2  322   2.746   2.292   4.008 -0.3779  0.2929 -0.2621
  122TIP3    H1  323   2.658   2.255   4.010 -1.3255  2.1444  3.9260
  122TIP3    H2  324   2.740   2.367   3.948 -1.1905 -0.4233 -1.0995
  123TIP3   OH2  325   7.771   6.871   1.724  0.1549  0.5049  0.3615
  123TIP3    H1  326   7.709   6.909   1.662  1.3657  0.9905 -0.5941
  123TIP3    H2  327   7.767   6.777   1.707 -0.0900  0.5614  0.1049
  124TIP3   OH2  328   3.786   3.063   3.917 -0.6427 -0.5974  0.0383
  124TIP3    H1  329   3.847   3.028   3.982 -2.2141 -2.8670  0.4044
  124TIP3    H2  330   3.731   3.124   3.967 -0.2453 -0.4110  0.2550
  125TIP3   OH2  331   3.058   4.225   3.313  0.0964  0.0969 -0.5495
  125TIP3    H1  332   3.007   4.302   3.287 -1.1492 -0.8697 -1.0886
  125TIP3    H2  333   3.120   4.258   3.378 -0.8638  1.4288 -0.2662
  126TIP3   OH2  334   8.241   1.894   4.806  0.7237 -0.1493  0.0929
  126TIP3    H1  335   8.258   1.827   4.739  2.3358  0.9354 -0.6592
  126TIP3    H2  336   8.164   1.862   4.853  2.0850 -3.1567  0.5643
  127TIP3   OH2  337   2.273   4.844   5.634  0.8730 -0.6277  0.0949
  127TIP3    H1  338   2.245   4.935   5.628  0.2745 -0.8832 -1.7274
  127TIP3    H2  339   2.193   4.795   5.654  0.3265 -1.1058 -2.7826
  128TIP3   OH2  340   3.605   5.025   1.159  0.5551  0.0043 -0.2699
  128TIP3    H1  341   3.536   5.005   1.096 -0.5224 -0.4781  1.0113
  128TIP3    H2  342   3.686   4.996   1.117 -0.2751 -1.4123 -0.9442
  129TIP3   OH2  343   5.679   3.822   0.370  0.3251 -0.3891 -0.0037
  129TIP3    H1  344   5.698   3.778   0.452  0.7737 -0.0886  0.0545
  129TIP3    H2  345   5.625   3.898   0.395  1.9777  0.7592  0.2463
  130TIP3   OH2  346   7.836   0.610   5.101 -0.0337 -0.2745  0.2097
  130TIP3    H1  347   7.810   0.643   5.015 -1.3408 -3.7799 -0.9473
  130TIP3    H2  348   7.912   0.663   5.125  0.6931  0.6055 -3.3435
  131TIP3   OH2  349   0.116   2.520   5.005 -0.2164  0.7137 -0.5267
  131TIP3    H1  350   0.139   2.479   4.922  1.9011 -0.4907  0.5921
  131TIP3    H2  351   0.172   2.597   5.010  0.1982  0.3767  0.0999
  132TIP3   OH2  352   7.298   2.534   5.098 -0.0957  0.2295 -0.9994
  132TIP3    H1  353   7.311   2.456   5.043  1.1942 -1.5963  1.6957
  132TIP3    H2  354   7.225   2.511   5.155 -1.5409  2.1721 -1.9545
  133TIP3   OH2  355   3.306   6.565   4.816  0.2420 -0.7561 -0.0312
  133TIP3    H1  356   3.281   6.524   4.899 -0.8072  0.3597  0.2134
  133TIP3    H2  357   3.378   6.624   4.839 -0.3757 -0.0762  0.1872
  134TIP3   OH2  358   7.799   6.795   1.302  0.3957  0.2600 -0.5240
  134TIP3    H1  359   7.800   6.888   1.323  1.0994  0.2885 -0.6430
  134TIP3    H2  360   7.841   6.789   1.216  0.5720 -0.1856 -0.4116
  135TIP3   OH2  361   5.500   1.740   0.901  0.2889 -0.0848 -0.2896
  135TIP3    H1  362   5.430   1.693   0.945  0.0663  0.0548 -0.4943
  135TIP3    H2  363   5.511   1.820   0.951 -0.6572  0.5481 -1.0792
  136TIP3   OH2  364   0.777   7.384   1.001  0.1096  0.4402  0.6387
  136TIP3    H1  365   0.868   7.411   1.015  0.7790 -1.7695  0.9756
  136TIP3    H2  366   0.748   7.436   0.926  2.5596 -0.6722 -1.2342
  137TIP3   OH2  367   1.825   0.039   6.294  0.8319 -0.2616 -0.3435
  137TIP3    H1  368   1.849   0.038   6.387  0.2688 -1.3235 -0.1933
  137TIP3    H2  369   1.905   0.017   6.248  1.6805  2.3761 -0.2875
  138TIP3   OH2  370   4.140   6.193   6.483 -0.1997  0.5220 -0.2359
  138TIP3    H1  371   4.165   6.107   6.517  0.2083  0.3194 -1.0377
  138TIP3    H2  372   4.093   6.174   6.402 -0.4484  1.0399 -0.2169
  139TIP3   OH2  373   0.149   3.828   4.523  0.5865  0.4613  0.0619
  139TIP3    H1  374   0.113   3.879   4.450 -0.1719  0.9022  0.7305
  139TIP3    H2  375   0.103   3.861   4.600  0.3984 -0.9412  0.5700
  140TIP3   OH2  376   7.167   4.892   0.563  0.1992  0.2319 -0.2748
  140TIP3    H1  377   7.212   4.834   0.501 -0.8803  0.8870 -1.7275
  140TIP3    H2  378   7.193   4.980   0.537 -0.2535  0.5190  0.2311
  141TIP3   OH2  379   5.870   1.730   2.026 -0.3103 -0.4115  0.2165
  141TIP3    H1  380   5.856   1.696   2.115  1.1982 -0.1108  0.5919
  141TIP3    H2  381   5.791   1.705   1.978  0.9637 -5.3129  0.1844
  142TIP3   OH2  382   7.631   0.029   5.822 -0.4296 -0.2387 -0.0857
  142TIP3    H1  383   7.655   0.118   5.796 -1.1335 -0.1013 -0.2791
  142TIP3    H2  384   7.693  -0.027   5.775 -1.2539  0.0457 -1.5574
  143TIP3   OH2  385   7.656   7.434   3.236 -0.2239  0.3068 -0.0472
  143TIP3    H1  386   7.652   7.384   3.317  1.8775  0.5770  0.2937
  143TIP3    H2  387   7.617   7.519   3.258  0.2453  0.3463  0.6684
  144TIP3   OH2  388   5.331   7.485   0.686 -0.5862 -0.0498  0.1389
  144TIP3    H1  389   5.387   7.429   0.740 -1.3007  0.5157  1.5053
  144TIP3    H2  390   5.385   7.561   0.665 -0.9718  0.7758  1.9506
  145TIP3   OH2  391   0.879   3.884   6.359 -0.4003  0.2048 -0.5017
  145TIP3    H1  392   0.833   3.800   6.354  0.3821 -0.2171 -0.6554
  145TIP3    H2  393   0.871   3.910   6.451 -2.9473  1.2955 -0.9325
  146TIP3   OH2  394   2.386   6.507   3.792 -0.3906 -0.0655  0.4414
  146TIP3    H1  395   2.398   6.464   3.877 -0.2240  0.8047  0.8787
  146TIP3    H2  396   2.472   6.499   3.750 -0.3527 -0.1420  0.5312
  147TIP3   OH2  397   4.941   1.030   4.928  0.4062  0.3104 -0.8517
  147TIP3    H1  398   4.948   0.959   4.991 -1.6619 -0.1994 -1.1110
  147TIP3    H2  399   4.918   1.107   4.980  2.8822  0.9113 -0.5417
  148TIP3   OH2  400   5.611   0.115   0.467  0.7243 -0.3684 -0.1555
  148TIP3    H1  401   5.650   0.036   0.430  1.3726  0.0162 -0.3010
  148TIP3    H2  402   5.685   0.164   0.503  0.6574  1.2990 -2.1195
  149TIP3   OH2  403   4.480   7.470   0.497  0.1891  0.5696  0.4295
  149TIP3    H1  404   4.547   7.455   0.565  1.0532 -0.4335 -0.6124
  149TIP3    H2  405   4.530   7.499   0.421 -0.8125  2.0783  0.3026
  150TIP3   OH2  406   2.925   1.741   3.065 -0.0509  0.9625  0.1218
  150TIP3    H1  407   2.899   1.813   3.007 -0.6122  2.3037  1.9062
  150TIP3    H2  408   2.843   1.696   3.085 -0.0873  1.3345  0.8675
  151TIP3   OH2  409   5.422   2.326   4.398 -0.5429  0.0436 -0.0883
  151TIP3    H1  410   5.486   2.301   4.331  1.5253 -1.5251  2.2727
  151TIP3    H2  411   5.355   2.258   4.394  0.4273 -0.9643  0.4797
  152TIP3   OH2  412   1.893   0.714   3.784  0.2160 -0.1593 -0.1182
  152TIP3    H1  413   1.865   0.624   3.800  0.2444 -0.4830 -1.7067
  152TIP3    H2  414   1.974   0.723   3.833  0.3585 -1.1062 -0.1579
  153TIP3   OH2  415   6.625   5.942   5.675  0.3031  0.3305 -0.6810
  153TIP3    H1  416   6.690   5.988   5.728 -0.2367  1.5812 -1.0858
  153TIP3    H2  417   6.646   5.965   5.585  0.1847 -0.4434 -0.9148
  154TIP3   OH2  418   1.910   6.851   3.464 -0.4311 -1.0158  0.5458
  154TIP3    H1  419   2.004   6.841   3.476 -0.1659 -0.4678 -0.8216
  154TIP3    H2  420   1.900   6.941   3.430 -1.0537 -2.1344 -2.5909
  155TIP3   OH2  421   5.982   2.110   1.454 -0.3335 -0.3891  0.3987
  155TIP3    H1  422   6.025   2.026   1.470 -1.4361 -1.2847 -1.1486
  155TIP3    H2  423   5.986   2.121   1.359 -1.8344  0.4100  0.4010
  156TIP3   OH2  424   5.740   1.448   4.574  0.7043  0.4566  0.1503
  156TIP3    H1  425   5.777   1.375   4.624  3.1893  2.1995  1.0495
  156TIP3    H2  426   5.779   1.438   4.487 -0.4611 -0.3037 -0.3108
  157TIP3   OH2  427   2.206   6.562   4.363  0.1819  0.2335  0.2008
  157TIP3    H1  428   2.165   6.512   4.292  0.4084  1.6973 -1.0159
  157TIP3    H2  429   2.139   6.566   4.431 -0.4648 -0.2555 -0.3908
  158TIP3   OH2  430   0.220   6.642   0.480 -0.1280  0.5647 -0.1843
  158TIP3    H1  431   0.253   6.720   0.434  0.0105  0.5690 -0.0777
  158TIP3    H2  432   0.128   6.661   0.496  0.2040  1.2653  1.0029
  159TIP3   OH2  433   3.875   3.972   4.760 -0.1446  0.1840  0.4807
  159TIP3    H1  434   3.910   4.047   4.712  0.9807 -1.8781 -2.2180
  159TIP3    H2  435   3.780   3.982   4.754 -0.0329  1.7352  0.8188
  160TIP3   OH2  436   1.588   0.202   0.932  0.0325  0.0846 -0.0678
  160TIP3    H1  437   1.664   0.155   0.966  0.2244  0.5302  0.1308
  160TIP3    H2  438   1.623   0.288   0.907 -0.2086 -0.0427 -0.8912
  161TIP3   OH2  439   1.465   7.564   0.707  0.1539  0.1276 -0.1638
  161TIP3    H1  440   1.512   7.636   0.664  1.2246 -1.1247 -1.2052
  161TIP3    H2  441   1.534   7.509   0.743 -0.6983  0.3214  1.8566
  162TIP3   OH2  442   3.249   2.340   4.968 -0.1536 -0.6578 -0.8651
  162TIP3    H1  443   3.190   2.389   4.911  1.3337  0.6241 -1.3485
  162TIP3    H2  444   3.304   2.406   5.009  1.1717 -1.8338 -0.6743
  163TIP3   OH2  445   7.431   3.997   0.077 -0.2707 -0.0393  0.2924
  163TIP3    H1  446   7.440   4.006   0.172 -3.5185  1.8014  0.5547
  163TIP3    H2  447   7.344   3.958   0.065  0.5333 -1.2972 -1.9486
  164TIP3   OH2  448   5.626   0.531   2.917  0.7448  0.2436  0.4280
  164TIP3    H1  449   5.666   0.477   2.984 -1.5966  0.1804  1.8927
  164TIP3    H2  450   5.570   0.592   2.965 -1.1926  0.0732 -1.4317
  165TIP3   OH2  451   5.781   7.052   6.596 -0.1414 -0.2895 -0.4690
  165TIP3    H1  452   5.833   7.133   6.592  1.0164 -0.9165  0.8822
  165TIP3    H2  453   5.817   6.997   6.527 -0.3752  0.0296 -0.8491
  166TIP3   OH2  454   2.774   4.355   1.057 -0.1258 -0.1813  0.0298
  166TIP3    H1  455   2.786   4.430   0.999  0.2058  0.0611  0.4094
  166TIP3    H2  456   2.760   4.281   0.998 -1.2717  0.3099 -0.3435
  167TIP3   OH2  457   4.783   0.211   6.631  0.3649  0.3173 -0.3427
  167TIP3    H1  458   4.769   0.139   6.692 -0.8562 -0.7664 -1.8209
  167TIP3    H2  459   4.724   0.279   6.660  0.1225 -0.0163 -0.0531
  168TIP3   OH2  460   4.459   4.729   5.863  0.7523  0.2083 -0.0536
  168TIP3    H1  461   4.411   4.761   5.939  0.3641  0.3845 -0.3677
  168TIP3    H2  462   4.502   4.807   5.827 -0.0128  0.3511 -0.6888
  169TIP3   OH2  463   1.327   2.991   2.006  0.6600  0.0354 -0.2247
  169TIP3    H1  464   1.411   2.980   2.049  0.5768 -1.1620 -0.3357
  169TIP3    H2  465   1.278   2.911   2.027 -1.0905  1.3986  1.2298
  170TIP3   OH2  466   1.951   4.972   3.043 -0.1175  0.5719 -0.0862
  170TIP3    H1  467   1.917   5.038   2.983  1.8448 -0.6359 -2.7019
  170TIP3    H2  468   1.972   5.020   3.123 -0.2820  2.7952 -1.3114
  171TIP3   OH2  469   7.381   3.785   5.679  0.1602  0.3451 -0.1971
  171TIP3    H1  470   7.432   3.713   5.717 -1.2222 -0.4873  0.1571
  171TIP3    H2  471   7.435   3.816   5.606  1.2997 -0.2896  0.3316
  172TIP3   OH2  472   4.016   0.714   0.102 -0.1639  0.2532  0.2334
  172TIP3    H1  473   3.953   0.728   0.173  0.6918 -3.2308  1.8875
  172TIP3    H2  474   4.101   0.734   0.141  0.2198 -0.6055 -0.1422
  173TIP3   OH2  475   4.635   0.683   3.268  0.1074 -0.5665 -0.2300
  173TIP3    H1  476   4.582   0.665   3.190 -1.3054 -1.2995  0.8422
  173TIP3    H2  477   4.583   0.746   3.317  1.8509  1.3422 -0.7017
  174TIP3   OH2  478   1.444   7.468   6.301  0.1286 -0.0971  0.0463
  174TIP3    H1  479   1.351   7.467   6.324 -0.1483 -0.0103 -1.0165
  174TIP3    H2  480   1.483   7.400   6.356 -0.7672 -0.8810 -0.2570
  175TIP3   OH2  481   3.475   1.291   2.130 -0.0268  0.0091  0.5805
  175TIP3    H1  482   3.447   1.348   2.058 -1.6420 -1.0748  0.3081
  175TIP3    H2  483   3.509   1.352   2.196 -1.7741  1.3466  0.3285
  176TIP3   OH2  484   7.288   2.961   3.406  0.1888  0.1682 -0.1889
  176TIP3    H1  485   7.210   2.908   3.388  0.2879 -0.3908  0.9549
  176TIP3    H2  486   7.349   2.938   3.336  0.1668 -1.1348  0.1863
  177TIP3   OH2  487   4.602   1.215   4.782 -0.1485 -0.3916  0.8208
  177TIP3    H1  488   4.647   1.164   4.714 -1.8641 -2.0736  0.8577
  177TIP3    H2  489   4.591   1.302   4.744  0.7134 -0.7316 -0.2379
  178TIP3   OH2  490   6.639   6.445   4.400  0.4283 -0.5604 -0.1771
  178TIP3    H1  491   6.627   6.501   4.477  0.3951  2.7984 -2.3745
  178TIP3    H2  492   6.573   6.377   4.410 -2.8247  2.3895  0.6677
  179TIP3   OH2  493   3.540   2.978   4.180 -0.5955 -0.4753  0.1002
  179TIP3    H1  494   3.592   3.049   4.217 -1.3914 -0.1604  0.6256
  179TIP3    H2  495   3.521   3.007   4.090 -1.8327  0.4929  0.6519
  180TIP3   OH2  496   7.997   2.950   5.383  0.6510  0.7254  0.5679
  180TIP3    H1  497   7.991   2.855   5.372  0.5565  0.3690  3.1248
  180TIP3    H2  498   8.077   2.974   5.336 -0.1041 -0.3237 -1.4092
  181TIP3   OH2  499   3.795   5.531   3.223 -0.0884 -0.2254 -0.0646
  181TIP3    H1  500   3.729   5.579   3.273 -0.4202 -0.2935 -0.4314
  181TIP3    H2  501   3.843   5.599   3.175 -2.2778 -0.3668 -2.6874
  182TIP3   OH2  502   2.992   2.838   3.086  0.2093  0.3003  0.2328
  182TIP3    H1  503   3.010   2.744   3.074 -3.0196 -0.2272 -1.7184
  182TIP3    H2  504   3.013   2.877   3.002 -0.6595  0.9033  0.2869
  183TIP3   OH2  505   2.909   4.042   5.122 -0.2842 -0.5688  0.0519
  183TIP3    H1  506   2.891   3.978   5.190 -0.2738 -0.2044  0.3955
  183TIP3    H2  507   2.836   4.033   5.061  0.4257 -1.9213 -0.6696
  184TIP3   OH2  508   6.908   1.010   4.398 -0.0248 -0.1704 -0.4985
  184TIP3    H1  509   6.980   0.982   4.454  0.5160 -1.3433 -1.7378
  184TIP3    H2  510   6.864   0.930   4.372 -0.8099  0.4140 -1.0343
  185TIP3   OH2  511   1.663   4.409   3.072  0.5392 -0.0321 -0.1338
  185TIP3    H1  512   1.667   4.365   3.156  1.3263  0.8260  0.3004
  185TIP3    H2  513   1.574   4.394   3.040  0.4201 -0.8571  0.5739
  186TIP3   OH2  514   0.626   5.047   1.187  0.6119  0.0695 -0.4767
  186TIP3    H1  515   0.609   5.141   1.183  0.6556  0.1133  0.2739
  186TIP3    H2  516   0.704   5.034   1.133  0.7758  0.5019 -0.3446
  187TIP3   OH2  517   1.813   7.604   2.957 -0.0157 -0.2229 -0.5943
  187TIP3    H1  518   1.748   7.540   2.984  0.8231 -0.4719  0.9278
  187TIP3    H2  519   1.770   7.689   2.969 -0.0440 -0.3799  0.5143
  188TIP3   OH2  520   5.785   4.874   5.819 -0.6783  0.4891  0.0842
  188TIP3    H1  521   5.761   4.897   5.909 -1.5233  0.9035 -0.2303
  188TIP3    H2  522   5.709   4.827   5.785  0.7985 -2.3780  0.5182
  189TIP3   OH2  523   1.856   6.544   5.672 -0.1922 -0.4680  0.0768
  189TIP3    H1  524   1.843   6.591   5.755  0.8858 -1.4661  0.8453
  189TIP3    H2  525   1.776   6.494   5.660 -0.6174  0.1804  0.1737
  190TIP3   OH2  526   6.959   2.100   5.775  0.0359  0.0254 -0.1101
  190TIP3    H1  527   7.024   2.169   5.791 -0.3546  0.0780  1.3086
  190TIP3    H2  528   6.955   2.051   5.857  0.2979 -1.6969 -1.0864
  191TIP3   OH2  529   0.136   4.013   2.502  0.2126  0.1330  0.0391
  191TIP3    H1  530   0.106   3.928   2.470 -0.5395  0.3455  0.1665
  191TIP3    H2  531   0.109   4.075   2.434 -0.4742  0.4470  0.5900
  192TIP3   OH2  532   5.702   1.668   0.554 -0.2245 -0.1787 -0.0541
  192TIP3    H1  533   5.615   1.684   0.589  0.4277 -0.8496  2.0210
  192TIP3    H2  534   5.752   1.746   0.575  0.7276 -1.3854  2.5626
  193TIP3   OH2  535   5.996   1.310   2.830  0.1549  0.4513  0.2231
  193TIP3    H1  536   5.929   1.373   2.857 -0.1945  0.1210  0.1492
  193TIP3    H2  537   5.994   1.312   2.735 -0.3375 -0.1610  0.2155
  194TIP3   OH2  538   2.822   0.208   5.109  0.2287  0.1594  0.4339
  194TIP3    H1  539   2.804   0.174   5.197 -3.0232 -0.5120 -0.3704
  194TIP3    H2  540   2.765   0.157   5.051 -0.5281  3.0478 -1.5985
  195TIP3   OH2  541   7.306   3.748   2.203 -0.5874  0.1198 -0.1793
  195TIP3    H1  542   7.298   3.815   2.135 -0.3844 -0.0857 -0.4071
  195TIP3    H2  543   7.282   3.666   2.160  1.9237 -0.4214 -0.7172
  196TIP3   OH2  544   1.424   0.727   3.590  0.1214 -0.4321 -0.1778
  196TIP3    H1  545   1.422   0.778   3.510  0.5505 -1.0630 -0.6027
  196TIP3    H2  546   1.482   0.775   3.649 -0.0087 -0.0922 -0.3250
  197TIP3   OH2  547   5.925   2.290   4.218  0.2676  0.4740 -0.0765
  197TIP3    H1  548   5.969   2.373   4.235 -0.4705  0.6540  1.0566
  197TIP3    H2  549   5.939   2.274   4.125  1.7457  1.0890  0.0126
  198TIP3   OH2  550   5.952   6.325   2.089  0.4567  0.4951 -0.2705
  198TIP3    H1  551   5.995   6.264   2.030  0.6326  0.1225  0.2309
  198TIP3    H2  552   6.024   6.362   2.141  0.3768  1.3059 -0.7289
  199TIP3   OH2  553   1.481   1.360   3.048  0.4222 -0.7516 -0.1483
  199TIP3    H1  554   1.392   1.352   3.082  0.4035 -1.1182 -0.2719
  199TIP3    H2  555   1.494   1.454   3.035 -0.6738 -0.7976 -2.0352
  200TIP3   OH2  556   3.687   3.038   1.068 -0.6178 -0.3427 -0.2406
  200TIP3    H1  557   3.737   2.989   1.004 -1.6684 -1.3014 -0.3468
  200TIP3    H2  558   3.747   3.050   1.142  0.3037  0.0089 -1.0233
  201TIP3   OH2  559   6.979   4.810   2.536 -0.0820  0.1019 -0.6989
  201TIP3    H1  560   7.072   4.804   2.556  0.3660  0.6459 -2.4774
  201TIP3    H2  561   6.945   4.872   2.600  0.8834  0.2933 -0.3589
  202TIP3   OH2  562   4.085   1.386   0.689 -0.1047  0.0626  0.1917
  202TIP3    H1  563   4.138   1.462   0.661 -1.0375  0.0006 -1.8960
  202TIP3    H2  564   4.140   1.343   0.755  1.6422  1.0355 -0.5343
  203TIP3   OH2  565   2.625   1.261   5.186 -0.4900 -0.3293  0.5417
  203TIP3    H1  566   2.587   1.319   5.119  1.6340  1.4513  0.7465
  203TIP3    H2  567   2.671   1.320   5.245  1.4242 -2.2109  1.0424
  204TIP3   OH2  568   5.201   6.460   6.798  0.5737 -0.2782 -0.8160
  204TIP3    H1  569   5.229   6.426   6.713 -0.7103 -1.4382 -0.8009
  204TIP3    H2  570   5.107   6.476   6.789  0.9973  2.9912 -0.6843
  205TIP3   OH2  571   7.070   6.636   5.591 -0.4683  0.1363  0.0974
  205TIP3    H1  572   7.083   6.672   5.678 -0.1320  0.6979 -0.1828
  205TIP3    H2  573   7.154   6.647   5.546 -1.0360  1.1640 -0.7662
  206TIP3   OH2  574   5.108   3.043   0.966  0.3336  0.1301  0.0823
  206TIP3    H1  575   5.102   3.136   0.987 -0.5863 -0.1611  1.2078
  206TIP3    H2  576   5.019   3.011   0.975  1.0246 -1.3751  2.2950
  207TIP3   OH2  577   7.662   4.425   1.392 -0.5798  0.0309  0.1300
  207TIP3    H1  578   7.687   4.465   1.476  2.6234 -0.2694 -0.5743
  207TIP3    H2  579   7.688   4.490   1.327 -0.6901 -0.8082 -0.7565
  208TIP3   OH2  580   6.558   3.501   2.426 -0.0649  0.4410  0.4522
  208TIP3    H1  581   6.523   3.570   2.482 -0.2874 -1.1470  2.3852
  208TIP3    H2  582   6.480   3.459   2.388 -0.1110 -0.5238  1.5556
  209TIP3   OH2  583   3.248   2.665   6.101 -1.2858 -0.2341  0.6109
  209TIP3    H1  584   3.299   2.745   6.107 -1.9385  0.2514 -0.1561
  209TIP3    H2  585   3.246   2.631   6.191 -0.6740  0.3887  0.8669
  210TIP3   OH2  586   4.460   0.056   2.992 -0.2228  0.0029 -0.2258
  210TIP3    H1  587   4.495   0.097   2.913 -0.7162 -0.3851 -0.6486
  210TIP3    H2  588   4.373   0.026   2.967  0.4393 -2.0584 -0.1742
  211TIP3   OH2  589   7.274   0.542   1.387 -0.2148  0.2449  0.5426
  211TIP3    H1  590   7.209   0.611   1.399  0.6198  0.8940  1.4463
  211TIP3    H2  591   7.290   0.540   1.292 -1.5751  0.0346  0.2983
  212TIP3   OH2  592   1.003   3.908   3.869  0.1021 -0.4498 -0.3478
  212TIP3    H1  593   0.920   3.953   3.853 -0.1381 -1.3174 -1.7657
  212TIP3    H2  594   0.979   3.833   3.924 -0.1140 -0.8140 -0.9214
  213TIP3   OH2  595   2.448   4.214   2.843  0.0309 -0.4054 -0.0763
  213TIP3    H1  596   2.395   4.290   2.820  0.9221 -0.0784 -1.1278
  213TIP3    H2  597   2.389   4.160   2.896 -0.9648  0.4985 -0.2113
  214TIP3   OH2  598   2.509   5.985   1.600 -0.0360 -0.3532  0.7611
  214TIP3    H1  599   2.511   5.895   1.634 -2.9992 -1.3168 -1.2723
  214TIP3    H2  600   2.452   6.032   1.660 -1.1256 -0.7389  0.0662
  215TIP3   OH2  601   2.029   1.592   1.897 -0.1166 -0.5969 -0.4485
  215TIP3    H1  602   1.946   1.630   1.867 -0.1791  0.4810  0.9661
  215TIP3    H2  603   2.094   1.625   1.834 -0.5289 -0.0652 -0.6095
  216TIP3   OH2  604   6.418   7.326   6.399  0.1126 -0.3419  1.0841
  216TIP3    H1  605   6.363   7.367   6.465 -0.0920 -0.4598  0.9867
  216TIP3    H2  606   6.380   7.354   6.315  1.6236  1.5690  0.9685
  217TIP3   OH2  607   1.254   3.130   6.265  0.0763 -0.2373 -0.3068
  217TIP3    H1  608   1.347   3.150   6.249  0.5218 -1.2470  0.8234
  217TIP3    H2  609   1.207   3.202   6.225  1.4071  0.9061  0.1095
  218TIP3   OH2  610   0.358   3.649   0.808 -0.3387 -0.2392  0.4141
  218TIP3    H1  611   0.310   3.638   0.725 -1.4115  0.5614  0.9000
  218TIP3    H2  612   0.357   3.562   0.847 -0.8661 -0.3762  0.1182
  219TIP3   OH2  613   2.580   6.076   2.740 -0.1642 -0.1634 -0.2563
  219TIP3    H1  614   2.636   6.146   2.774 -0.2268 -0.0895 -0.3061
  219TIP3    H2  615   2.626   6.044   2.663 -0.3888  0.1645 -0.5248
  220TIP3   OH2  616   1.879   0.411   5.695  0.3989 -0.2323 -1.0184
  220TIP3    H1  617   1.821   0.336   5.709 -0.6516  0.7303 -0.0285
  220TIP3    H2  618   1.821   0.487   5.695  1.4329  0.6045 -2.0583
  221TIP3   OH2  619   5.975   3.652   1.815 -0.1974  0.3619 -0.4890
  221TIP3    H1  620   5.984   3.746   1.832  0.2987  0.6543 -2.2439
  221TIP3    H2  621   5.946   3.616   1.899 -1.4440  2.2217 -0.0537
  222TIP3   OH2  622   5.556   2.224   1.976 -0.2518  0.0342  0.0532
  222TIP3    H1  623   5.582   2.310   2.008 -2.2781  0.0910  1.7401
  222TIP3    H2  624   5.556   2.232   1.880 -0.2238  1.8367  0.1785
  223TIP3   OH2  625   4.514   7.043   6.652  0.1827  0.0766 -0.3991
  223TIP3    H1  626   4.551   6.959   6.625  0.0333 -0.3103  0.5584
  223TIP3    H2  627   4.421   7.036   6.631 -0.1312 -0.6253  1.0989
  224TIP3   OH2  628   1.218   1.994   1.790 -0.3825  0.3050  0.2975
  224TIP3    H1  629   1.278   1.951   1.849 -1.2166  0.2927  1.1572
  224TIP3    H2  630   1.274   2.041   1.728  0.5208  1.4351  1.9082
  225TIP3   OH2  631   0.204   3.738   3.618 -0.4494 -0.4103  0.1478
  225TIP3    H1  632   0.259   3.771   3.547  0.1335 -0.5408  0.5344
  225TIP3    H2  633   0.175   3.652   3.588 -0.7433 -0.1902 -0.2126
  226TIP3   OH2  634   4.655   6.277   1.188  0.0655  0.1911 -0.1732
  226TIP3    H1  635   4.645   6.308   1.279  1.4765 -1.9512  0.7875
  226TIP3    H2  636   4.748   6.286   1.169  0.1994 -1.5721 -0.5226
  227TIP3   OH2  637   0.603   5.764   1.967 -0.7881 -0.3866  0.0346
  227TIP3    H1  638   0.526   5.791   2.018 -0.4719 -0.2563  0.4456
  227TIP3    H2  639   0.645   5.846   1.942  0.4305 -0.4404  1.6742
  228TIP3   OH2  640   1.732   4.564   2.276  0.1511 -0.1407 -0.3878
  228TIP3    H1  641   1.661   4.619   2.243 -1.6156 -1.3475  1.1739
  228TIP3    H2  642   1.705   4.475   2.253  0.9112 -0.6595  0.6775
  229TIP3   OH2  643   2.156   1.634   3.157 -0.2574 -0.3305  0.0542
  229TIP3    H1  644   2.181   1.664   3.070 -0.2503  0.6754  0.3959
  229TIP3    H2  645   2.065   1.663   3.167 -0.4306 -0.8960  0.1943
  230TIP3   OH2  646   0.298   2.608   6.485 -0.2213  0.6241  0.4408
  230TIP3    H1  647   0.332   2.687   6.443  0.8312 -1.0416 -2.0379
  230TIP3    H2  648   0.342   2.536   6.441 -2.7696 -1.4628  1.0311
  231TIP3   OH2  649   2.099   6.541   3.813  0.1822 -0.5194  0.2593
  231TIP3    H1  650   2.069   6.520   3.725  1.5761 -0.6211 -0.2153
  231TIP3    H2  651   2.194   6.534   3.808  0.2942 -0.3332  1.7261
  232TIP3   OH2  652   0.838   1.187   0.105 -0.5319 -0.4551  0.2348
  232TIP3    H1  653   0.825   1.279   0.082  1.7553 -0.4122 -1.2162
  232TIP3    H2  654   0.862   1.188   0.197  1.2038  0.6484 -0.1803
  233TIP3   OH2  655   7.379   7.611   3.007  0.5465 -0.2689  0.0700
  233TIP3    H1  656   7.309   7.547   3.018  0.1028  0.2999  0.6747
  233TIP3    H2  657   7.444   7.567   2.952  0.1195 -1.1261  0.2331
  234TIP3   OH2  658   3.324   2.514   3.275 -0.1154 -0.4278 -0.2391
  234TIP3    H1  659   3.259   2.568   3.320 -1.8922 -1.5191 -1.3554
  234TIP3    H2  660   3.275   2.436   3.248  1.6719 -1.2792 -1.1822
  235TIP3   OH2  661   2.675   4.903   1.443  0.7823  0.4242 -0.2076
  235TIP3    H1  662   2.641   4.849   1.514  0.8183  1.2665  0.4688
  235TIP3    H2  663   2.718   4.976   1.487 -1.2227  2.2402 -1.0859
  236TIP3   OH2  664   5.010   2.168   0.037 -0.3054  0.1294  0.3293
  236TIP3    H1  665   4.996   2.231   0.107  0.1594  0.2224  0.3439
  236TIP3    H2  666   5.075   2.107   0.073 -0.0953  0.1551 -0.0013
  237TIP3   OH2  667   5.443   4.540   4.995  0.0466 -0.3668  0.3298
  237TIP3    H1  668   5.405   4.562   4.910  0.1678 -1.8937 -0.1627
  237TIP3    H2  669   5.522   4.594   5.002  0.6458 -1.0269 -1.0539
  238TIP3   OH2  670   7.897   5.974   5.031  0.0065 -0.6929 -0.4816
  238TIP3    H1  671   7.851   6.047   4.989 -0.9329 -0.5483  0.7383
  238TIP3    H2  672   7.981   6.010   5.057 -0.2396 -0.1948 -0.3641
  239TIP3   OH2  673   1.366   7.538   5.600  0.0407 -0.3453 -0.4954
  239TIP3    H1  674   1.410   7.606   5.549  1.8751 -0.4781  0.8011
  239TIP3    H2  675   1.396   7.455   5.562  1.7431 -0.4547  0.9313
  240TIP3   OH2  676   6.315   5.974   0.818  0.2042 -0.6179  0.6641
  240TIP3    H1  677   6.251   5.966   0.889 -0.2382  1.3204  0.5394
  240TIP3    H2  678   6.295   6.058   0.777 -0.2554 -2.1260 -2.4904
  241TIP3   OH2  679   1.931   4.696   3.004  0.1198  0.3551  0.4470
  241TIP3    H1  680   1.986   4.708   3.081 -1.7383  0.4735  1.8270
  241TIP3    H2  681   1.926   4.783   2.964 -1.5589  1.0893  2.1238
  242TIP3   OH2  682   6.929   7.787   6.629 -0.1181  0.1136  0.6732
  242TIP3    H1  683   6.894   7.723   6.568 -0.6735  0.7406  0.3135
  242TIP3    H2  684   6.880   7.867   6.611 -2.0462 -0.2627  3.5483
  243TIP3   OH2  685   5.556   5.371   1.857 -0.0917  0.6497  0.0679
  243TIP3    H1  686   5.582   5.456   1.893 -0.8154  0.7874  0.2810
  243TIP3    H2  687   5.630   5.314   1.874 -0.3038  0.7787  1.5448
  244TIP3   OH2  688   7.089   0.978   2.817 -0.3415 -0.5030 -0.2567
  244TIP3    H1  689   7.027   1.046   2.843  0.4125 -0.0413  0.3553
  244TIP3    H2  690   7.175   1.020   2.823 -0.0092 -0.7716 -2.1882
  245TIP3   OH2  691   1.725   6.971   2.579 -0.6339 -0.2219 -0.0894
  245TIP3    H1  692   1.798   6.923   2.618  0.1310 -1.5100 -2.8638
  245TIP3    H2  693   1.766   7.049   2.540 -1.1478  0.2892  0.3632
  246TIP3   OH2  694   0.890   4.225   2.778 -0.2841 -0.1377  0.4422
  246TIP3    H1  695   0.938   4.170   2.839  0.7303 -1.6397 -1.5867
  246TIP3    H2  696   0.812   4.175   2.755 -0.3630  0.1445  0.0716
  247TIP3   OH2  697   5.193   6.367   5.670  0.7275  0.1701  0.4082
  247TIP3    H1  698   5.148   6.288   5.700 -0.6582  1.5175  2.0963
  247TIP3    H2  699   5.149   6.390   5.588 -1.1084  0.9331  1.5539
  248TIP3   OH2  700   4.968   5.713   4.648  0.4925 -0.2795  0.4336
  248TIP3    H1  701   5.005   5.801   4.655 -1.6265  0.7176 -0.2215
  248TIP3    H2  702   4.880   5.726   4.615 -0.2145 -2.6060  1.1809
  249TIP3   OH2  703   2.501   2.524   4.512 -0.2069 -0.1292  0.2411
  249TIP3    H1  704   2.464   2.449   4.557  2.7468 -2.4832 -0.9084
  249TIP3    H2  705   2.466   2.518   4.423  0.8679 -0.8505 -0.1498
  250TIP3   OH2  706   5.824   3.876   3.853  0.9297 -0.2797 -0.4594
  250TIP3    H1  707   5.805   3.855   3.761  1.1093 -0.4707 -0.4551
  250TIP3    H2  708   5.804   3.795   3.900 -0.9782  0.3759 -0.0648
  251TIP3   OH2  709   7.559   0.441  -0.010  0.1166  0.0543 -0.1766
  251TIP3    H1  710   7.477   0.463   0.034  0.4220 -1.1368  1.0665
  251TIP3    H2  711   7.615   0.407   0.059  0.7628 -1.5244 -1.3982
  252TIP3   OH2  712   3.624   2.636   5.816 -0.0642 -0.4625 -0.1267
  252TIP3    H1  713   3.562   2.569   5.786  1.0647 -1.3636 -0.5369
  252TIP3    H2  714   3.689   2.587   5.866  1.2067  0.1948 -1.0770
  253TIP3   OH2  715   0.684   7.117   0.050  0.0126 -0.0209  0.2374
  253TIP3    H1  716   0.604   7.117  -0.001 -0.6958 -0.5247  1.3123
  253TIP3    H2  717   0.711   7.209   0.054  0.7877 -0.0943 -2.0578
  254TIP3   OH2  718   0.486   0.013   3.445 -0.2623  0.0644  0.3353
  254TIP3    H1  719   0.478  -0.057   3.510  1.6762  0.3395  0.9576
  254TIP3    H2  720   0.404   0.061   3.451 -0.2877 -0.1236  2.3891
  255TIP3   OH2  721   0.248   0.609   6.451 -0.2599  0.0603 -0.0625
  255TIP3    H1  722   0.247   0.518   6.420  1.8176 -1.1627  2.9764
  255TIP3    H2  723   0.318   0.650   6.401 -0.0397 -0.5228 -0.2411
  256TIP3   OH2  724   3.952   1.263   3.172  0.2462 -0.1353 -0.1688
  256TIP3    H1  725   3.858   1.272   3.157  0.0574 -0.0765  1.0002
  256TIP3    H2  726   3.988   1.251   3.084 -0.9599 -1.2071 -0.5560
  257TIP3   OH2  727   1.343   5.185   4.338 -0.0420 -0.4028 -0.1321
  257TIP3    H1  728   1.337   5.251   4.269  2.5393 -0.0226 -0.0696
  257TIP3    H2  729   1.406   5.121   4.304  0.8677 -0.4787  1.6229
  258TIP3   OH2  730   0.167   0.626   4.737 -0.2726  0.1466  0.2665
  258TIP3    H1  731   0.106   0.696   4.760  0.3017  0.4828  0.7806
  258TIP3    H2  732   0.166   0.568   4.813 -0.9153 -0.5446 -0.2430
  259TIP3   OH2  733   3.175   6.462   2.996  0.0211 -0.1203 -0.0682
  259TIP3    H1  734   3.190   6.369   2.981  0.2486 -0.4236  1.8680
  259TIP3    H2  735   3.183   6.473   3.090 -2.5115  1.3940  0.0784
  260TIP3   OH2  736   0.414   3.517   0.531 -0.0754 -0.3330 -0.6135
  260TIP3    H1  737   0.470   3.525   0.608 -1.6108  0.4645  0.4687
  260TIP3    H2  738   0.402   3.423   0.519  1.8371 -0.5376 -1.1570
  261TIP3   OH2  739   1.492   6.459   2.554 -0.1917  0.5089 -0.0699
  261TIP3    H1  740   1.528   6.382   2.598 -0.8784  0.8989  1.2182
  261TIP3    H2  741   1.520   6.533   2.607 -0.5609  1.0549 -0.6100
  262TIP3   OH2  742   7.233   6.627   2.718  0.6750  0.0348  0.1322
  262TIP3    H1  743   7.152   6.655   2.760  0.8278 -0.2553  0.6272
  262TIP3    H2  744   7.281   6.708   2.703  1.0800  0.0685  1.4822
  263TIP3   OH2  745   6.682   4.807   4.744 -0.0671  0.2730  0.1578
  263TIP3    H1  746   6.625   4.767   4.679 -0.2722  0.2196  0.3681
  263TIP3    H2  747   6.640   4.788   4.828  0.9501 -0.9103  0.4227
  264TIP3   OH2  748   1.531   0.936   2.376 -0.0167 -0.3478 -0.8311
  264TIP3    H1  749   1.601   0.897   2.428 -1.1778 -0.3565  0.8089
  264TIP3    H2  750   1.452   0.890   2.404 -0.8626  0.5440 -1.6844
  265TIP3   OH2  751   6.687   1.282   3.107  0.1675  0.1135  0.6879
  265TIP3    H1  752   6.632   1.304   3.182 -2.4890  0.8325 -1.3134
  265TIP3    H2  753   6.729   1.364   3.083  0.3528  0.0767  0.8873
  266TIP3   OH2  754   4.499   0.422   0.308  0.2062  0.0967 -0.2255
  266TIP3    H1  755   4.480   0.515   0.298  0.3571  0.2218  0.5547
  266TIP3    H2  756   4.442   0.378   0.245  0.0923  0.7140 -0.5529
  267TIP3   OH2  757   5.426   0.481   4.537 -0.0356  0.3726 -0.8079
  267TIP3    H1  758   5.346   0.508   4.581 -0.5317  0.5426 -1.8035
  267TIP3    H2  759   5.417   0.513   4.447  1.6549  1.4325 -0.6508
  268TIP3   OH2  760   3.238   5.869   0.398  0.0359 -0.3188 -0.7169
  268TIP3    H1  761   3.176   5.797   0.412  0.3463 -0.7160 -1.3294
  268TIP3    H2  762   3.321   5.835   0.429 -0.3086  0.7725  1.5936
  269TIP3   OH2  763   6.967   5.728   5.073  0.0595  0.1283  0.2095
  269TIP3    H1  764   6.945   5.780   5.150 -0.6696  0.3961 -0.1659
  269TIP3    H2  765   6.884   5.715   5.028 -0.0688 -2.7526  1.1186
  270TIP3   OH2  766   4.518   4.342   6.135  0.2828  0.1060  0.1361
  270TIP3    H1  767   4.606   4.310   6.113 -0.5264  0.1604 -4.0215
  270TIP3    H2  768   4.533   4.428   6.175  2.1367 -0.4475  0.7250
  271TIP3   OH2  769   1.513   5.818   0.871  0.1159 -0.2211  0.5000
  271TIP3    H1  770   1.442   5.879   0.890 -0.6936 -0.9569 -0.1104
  271TIP3    H2  771   1.471   5.732   0.867  1.1029 -0.7239  0.5267
  272TIP3   OH2  772   4.055   3.723   1.702  0.4280  0.0704  0.0648
  272TIP3    H1  773   4.007   3.666   1.762  0.9021  0.2533  0.6198
  272TIP3    H2  774   4.104   3.783   1.758  2.1566 -0.7843 -0.4454
  273TIP3   OH2  775   0.213   0.003   2.186  0.1727  0.1201  0.4824
  273TIP3    H1  776   0.264   0.040   2.114  0.3286 -0.0895  0.4833
  273TIP3    H2  777   0.178   0.079   2.232 -1.8177  0.2528 -1.1250
  274TIP3   OH2  778   0.856   1.712   6.491  0.3728  0.3172 -0.2159
  274TIP3    H1  779   0.865   1.779   6.423 -0.1587  2.3483  1.5822
  274TIP3    H2  780   0.932   1.726   6.548  0.9274 -1.4823 -0.4583
  275TIP3   OH2  781   7.159   4.993   1.514  0.3496  0.2861 -0.1630
  275TIP3    H1  782   7.075   4.955   1.542 -0.6704  1.6223 -1.2612
  275TIP3    H2  783   7.222   4.922   1.527 -0.5885 -0.1976  2.3925
  276TIP3   OH2  784   1.165   3.896   3.168 -0.6869  0.0791  0.3901
  276TIP3    H1  785   1.178   3.914   3.075 -0.1433 -0.4489  0.3611
  276TIP3    H2  786   1.072   3.871   3.174 -0.4899 -0.8463 -0.1749
  277TIP3   OH2  787   1.253   0.476   0.912 -0.1115  0.1801 -0.2332
  277TIP3    H1  788   1.245   0.485   1.007  0.1662 -0.6760 -0.1250
  277TIP3    H2  789   1.255   0.382   0.897  0.5639  0.3165 -1.0279
  278TIP3   OH2  790   7.723   0.664   4.158  0.0991 -0.0897 -0.5948
  278TIP3    H1  791   7.743   0.726   4.088  2.5595 -0.8751 -0.7118
  278TIP3    H2  792   7.715   0.580   4.114  0.0110 -0.3408 -0.1118
  279TIP3   OH2  793   3.788   5.348   2.890  0.3378 -0.2220 -0.4699
  279TIP3    H1  794   3.857   5.406   2.922  0.5883 -1.1538  0.7610
  279TIP3    H2  795   3.827   5.302   2.816  0.9730 -0.5997  0.0964
  280TIP3   OH2  796   6.803   2.785   4.781 -0.8878  0.6684 -0.5656
  280TIP3    H1  797   6.803   2.798   4.686  2.2749 -0.7168 -0.8582
  280TIP3    H2  798   6.880   2.831   4.812  0.3496 -2.0742  0.7422
  281TIP3   OH2  799   3.761   6.445   1.605 -0.1529  0.2027  0.0159
  281TIP3    H1  800   3.672   6.466   1.632 -0.2216  0.5143 -0.4377
  281TIP3    H2  801   3.751   6.372   1.544 -0.1119  0.3078 -0.1187
  282TIP3   OH2  802   2.053   1.683   0.777 -0.2129  0.1469  0.1181
  282TIP3    H1  803   2.066   1.672   0.683 -0.9012  0.5218 -0.0270
  282TIP3    H2  804   2.141   1.678   0.814 -0.1781 -4.6149 -0.0062
  283TIP3   OH2  805   3.182   1.452   4.246  0.0982 -0.2489  0.9045
  283TIP3    H1  806   3.168   1.519   4.313  0.2235  1.2190 -0.4832
  283TIP3    H2  807   3.176   1.499   4.163  0.6244 -1.8871 -0.1108
  284TIP3   OH2  808   7.750   2.599   0.424  0.0770  0.9862 -0.0525
  284TIP3    H1  809   7.814   2.655   0.381 -0.5689  2.8191  1.2368
  284TIP3    H2  810   7.799   2.556   0.494  0.6432 -0.3573 -1.2291
  285TIP3   OH2  811   1.426   0.133   4.764 -0.2845  0.1961 -0.5208
  285TIP3    H1  812   1.357   0.081   4.723 -0.4973 -0.2342  0.3691
  285TIP3    H2  813   1.504   0.114   4.713 -1.1410  2.1626 -2.7774
  286TIP3   OH2  814   4.703   0.982   0.314 -0.4397  0.4552  0.6515
  286TIP3    H1  815   4.728   0.890   0.310 -0.8888  0.3743 -1.4242
  286TIP3    H2  816   4.629   0.985   0.374 -0.0345 -0.4193  1.2132
  287TIP3   OH2  817   0.215   4.866   5.257 -0.0130 -0.2814  0.0800
  287TIP3    H1  818   0.282   4.921   5.215 -0.5501  1.2629  1.1217
  287TIP3    H2  819   0.166   4.927   5.312 -1.4220 -1.6320  0.3881
  288TIP3   OH2  820   2.575   5.464   3.532  0.2438 -0.4553 -0.4096
  288TIP3    H1  821   2.552   5.378   3.497 -0.5075 -0.0251 -1.0189
  288TIP3    H2  822   2.642   5.497   3.472  0.9214 -0.8332  0.1349
  289TIP3   OH2  823   8.054   7.659   3.381 -0.2227 -0.7104 -0.0046
  289TIP3    H1  824   8.103   7.580   3.406  0.1301 -0.4671  0.0880
  289TIP3    H2  825   8.111   7.731   3.408 -1.1058 -0.3928  1.0840
  290TIP3   OH2  826   6.776   7.786   6.246 -0.4473 -0.1369 -0.3118
  290TIP3    H1  827   6.857   7.747   6.279 -0.1216 -0.8557 -1.8505
  290TIP3    H2  828   6.725   7.711   6.214 -0.3975  0.5373 -2.0882
  291TIP3   OH2  829   5.250   1.951   5.149 -0.0167  0.0473  0.1638
  291TIP3    H1  830   5.318   1.965   5.215  0.3399 -0.4713 -0.0801
  291TIP3    H2  831   5.297   1.953   5.065 -0.1851 -0.9837  0.0317
  292TIP3   OH2  832   2.021   4.894   5.920 -0.2281 -0.0852  0.2200
  292TIP3    H1  833   1.989   4.974   5.878 -0.7605  0.5017  1.6906
  292TIP3    H2  834   2.023   4.829   5.849  0.1970  1.1982 -1.0027
  293TIP3   OH2  835   0.748   1.352   4.013  0.0277 -0.0233  0.2876
  293TIP3    H1  836   0.780   1.294   3.944  2.1769 -1.4421  2.3122
  293TIP3    H2  837   0.810   1.424   4.015 -1.1930  1.0940 -0.5345
  294TIP3   OH2  838   3.146   1.573   2.903 -0.2491 -0.0044 -0.4035
  294TIP3    H1  839   3.173   1.641   2.964  0.5607  0.4277 -1.2066
  294TIP3    H2  840   3.226   1.552   2.853 -0.8136 -0.5361 -1.1214
  295TIP3   OH2  841   7.276   5.424   1.210 -0.4688  0.2481 -0.4839
  295TIP3    H1  842   7.291   5.345   1.262  2.8853  1.8396  1.3228
  295TIP3    H2  843   7.228   5.393   1.133 -1.1375 -3.1279  1.0875
  296TIP3   OH2  844   3.595   3.092   4.811 -0.0904 -0.3535 -0.2217
  296TIP3    H1  845   3.626   3.094   4.721 -1.7684  2.0886 -0.8369
  296TIP3    H2  846   3.551   3.007   4.819 -0.5927 -0.3022 -1.9638
  297TIP3   OH2  847   0.143   7.806   2.929 -0.1866  0.3570 -0.2604
  297TIP3    H1  848   0.232   7.775   2.916 -0.3493 -0.3093  0.1828
  297TIP3    H2  849   0.095   7.730   2.961 -1.1614  0.4243 -1.4552
  298TIP3   OH2  850   4.668   1.650   0.400 -0.4445 -0.3790  0.2297
  298TIP3    H1  851   4.676   1.726   0.343  0.1234 -0.3886  0.2932
  298TIP3    H2  852   4.601   1.596   0.359 -0.1195 -0.3338 -0.3694
  299TIP3   OH2  853   4.057   5.420   6.336  0.2430 -0.8565  0.2744
  299TIP3    H1  854   4.021   5.495   6.288 -0.0320 -1.0633  0.1572
  299TIP3    H2  855   3.984   5.389   6.389  0.3089 -1.1485  0.1934
  300TIP3   OH2  856   6.944   1.189   5.847 -0.1349 -0.0003 -0.0929
  300TIP3    H1  857   6.914   1.236   5.768 -0.9534  0.5695  0.5352
  300TIP3    H2  858   6.864   1.176   5.898  0.4519 -0.0022  0.8341
  301TIP3   OH2  859   0.208   0.643   3.588 -0.3187 -0.0174 -0.3828
  301TIP3    H1  860   0.149   0.718   3.590  0.2052  0.3872  0.3742
  301TIP3    H2  861   0.233   0.635   3.496  0.1805  1.1940 -0.3777
  302TIP3   OH2  862   0.331   1.962   2.215 -0.1708 -0.9622  0.3613
  302TIP3    H1  863   0.378   2.017   2.151 -1.4170 -0.0011  0.2373
  302TIP3    H2  864   0.303   1.886   2.164 -2.2693  0.3854 -0.6397
  303TIP3   OH2  865   2.784   3.014   1.172 -0.4651 -0.0331  0.0776
  303TIP3    H1  866   2.768   3.057   1.255  0.1764 -0.1351  0.2547
  303TIP3    H2  867   2.795   3.085   1.109 -2.6255  0.0618 -0.2702
  304TIP3   OH2  868   0.485   4.663   0.061 -0.3480 -0.1198  0.0053
  304TIP3    H1  869   0.516   4.574   0.077  0.9292  0.5439  1.3761
  304TIP3    H2  870   0.564   4.716   0.056 -1.1259  1.2108  1.0255
  305TIP3   OH2  871   3.271   0.509   0.886 -0.2804 -0.3963 -0.3462
  305TIP3    H1  872   3.280   0.488   0.979  0.1177 -0.8583 -0.4836
  305TIP3    H2  873   3.319   0.439   0.841 -0.1443  0.0353 -0.8828
  306TIP3   OH2  874   2.747   7.704   3.452  0.1678 -0.1082 -0.0686
  306TIP3    H1  875   2.709   7.703   3.540  0.9383 -1.0217  0.2769
  306TIP3    H2  876   2.837   7.734   3.465  0.3878 -0.5757 -0.4900
  307TIP3   OH2  877   4.874   5.385   1.262  0.0150 -0.1129 -0.0781
  307TIP3    H1  878   4.898   5.477   1.252 -0.5114 -0.1182 -1.7293
  307TIP3    H2  879   4.831   5.362   1.179 -0.3133 -1.7096  0.4902
  308TIP3   OH2  880   1.916   4.728   0.003  0.6897 -0.2177 -0.0213
  308TIP3    H1  881   1.897   4.774   0.085 -0.6531 -0.8109  0.0358
  308TIP3    H2  882   1.846   4.757  -0.056  0.3148 -1.5183 -0.2343
  309TIP3   OH2  883   5.503   1.150   1.000  0.1415 -0.2176 -0.1149
  309TIP3    H1  884   5.531   1.073   0.950 -0.4712 -1.1636  0.9347
  309TIP3    H2  885   5.410   1.133   1.018 -0.7818  2.0663 -2.1633
  310TIP3   OH2  886   1.984   2.175   0.075 -0.1137 -0.2523  0.0683
  310TIP3    H1  887   1.941   2.094   0.102  0.9268 -0.7219  0.3802
  310TIP3    H2  888   1.941   2.244   0.125 -0.8776 -0.6374 -0.0561
  311TIP3   OH2  889   1.543   0.590   4.767 -0.8409  0.1105  0.0355
  311TIP3    H1  890   1.636   0.605   4.784 -0.1999 -2.0578 -1.1491
  311TIP3    H2  891   1.516   0.666   4.715  1.0167 -0.5198 -1.9765
  312TIP3   OH2  892   3.743   0.074   0.013  0.2120 -0.3794 -0.0035
  312TIP3    H1  893   3.665   0.118  -0.020 -0.1739 -0.0040  1.3503
  312TIP3    H2  894   3.716  -0.017   0.026  0.1710 -0.3792 -0.0861
  313TIP3   OH2  895   7.939   1.752   4.205  0.0204  0.1299  0.1773
  313TIP3    H1  896   8.020   1.790   4.240 -0.3879  1.1383  0.0599
  313TIP3    H2  897   7.921   1.801   4.125 -0.1458 -0.8084 -0.3820
  314TIP3   OH2  898   3.170   0.964   4.192 -0.5663 -0.5185  0.1125
  314TIP3    H1  899   3.182   0.887   4.247 -2.6943  0.7013  2.5347
  314TIP3    H2  900   3.167   1.037   4.254 -0.6061  1.2754 -1.8940
  315TIP3   OH2  901   5.540   3.350   1.942  0.1675 -0.8439  0.3258
  315TIP3    H1  902   5.508   3.423   1.994  0.1581  0.0303 -0.8829
  315TIP3    H2  903   5.467   3.327   1.885  0.4008 -1.3506  0.2232
  316TIP3   OH2  904   4.751   5.373   6.389  0.0558  0.3708 -0.0848
  316TIP3    H1  905   4.694   5.450   6.387 -0.5439 -0.0766 -0.5308
  316TIP3    H2  906   4.830   5.401   6.342  1.3312  1.8294  2.7079
  317TIP3   OH2  907   7.452   0.747   4.877 -0.6121  0.6326 -0.4958
  317TIP3    H1  908   7.540   0.775   4.853  0.0955 -1.5476 -0.6447
  317TIP3    H2  909   7.424   0.811   4.942  1.4300  0.8758  0.2260
  318TIP3   OH2  910   7.852   5.279   4.966  0.0774  0.2176  0.2750
  318TIP3    H1  911   7.761   5.304   4.979 -0.6766 -0.6697 -2.4594
  318TIP3    H2  912   7.854   5.185   4.986  0.1631  0.0646 -0.4007
  319TIP3   OH2  913   4.722   7.607   2.805  0.1462 -0.2349 -0.6750
  319TIP3    H1  914   4.807   7.597   2.848  0.3074  2.3477 -0.2486
  319TIP3    H2  915   4.658   7.588   2.874  0.3644 -1.0589 -0.6901
  320TIP3   OH2  916   5.833   2.555   5.063  0.4083 -0.1978 -0.3002
  320TIP3    H1  917   5.814   2.487   4.999 -1.0429 -0.9349  0.8482
  320TIP3    H2  918   5.747   2.582   5.096  1.0977 -0.2166  1.6849
  321TIP3   OH2  919   0.314   3.513   1.150  0.0181  0.5490 -0.1133
  321TIP3    H1  920   0.228   3.471   1.139  0.8151 -1.0446 -0.5123
  321TIP3    H2  921   0.307   3.595   1.100 -0.6876 -0.4107 -1.6567
  322TIP3   OH2  922   7.801   0.869   2.032  0.4754 -0.5971  0.6871
  322TIP3    H1  923   7.880   0.921   2.048  0.4469 -0.2089 -0.3610
  322TIP3    H2  924   7.735   0.933   2.006 -0.1262 -0.9477  1.2972
  323TIP3   OH2  925   4.829   3.173   2.417  0.2339 -0.2977 -0.2321
  323TIP3    H1  926   4.812   3.254   2.370  1.9469  1.3998  1.8579
  323TIP3    H2  927   4.747   3.152   2.461  0.1099  1.0436  0.2058
  324TIP3   OH2  928   5.846   3.333   2.160  0.1970 -0.7232  0.6455
  324TIP3    H1  929   5.763   3.367   2.193  0.9009  0.4080  1.3337
  324TIP3    H2  930   5.831   3.321   2.066 -1.3148 -2.3856  1.0632
  325TIP3   OH2  931   1.469   7.345   0.385  0.3986  0.3820  0.0299
  325TIP3    H1  932   1.548   7.397   0.366  1.5960 -1.5506 -0.5360
  325TIP3    H2  933   1.457   7.355   0.479  0.3103  2.0294 -0.1213
  326TIP3   OH2  934   2.054   0.101   1.742  0.4885  0.5329 -0.4162
  326TIP3    H1  935   1.995   0.095   1.666 -0.0921 -0.1719  0.0703
  326TIP3    H2  936   2.055   0.012   1.778 -0.1066  1.0814  1.0290
  327TIP3   OH2  937   3.467   5.581   0.991 -0.5085  0.2392 -0.1430
  327TIP3    H1  938   3.413   5.658   1.010 -2.0914  0.0009 -3.0424
  327TIP3    H2  939   3.474   5.580   0.895  0.2924 -2.7073 -0.1439
  328TIP3   OH2  940   2.242   5.212   1.390 -0.3038 -0.0451 -0.9164
  328TIP3    H1  941   2.168   5.152   1.385 -2.2890  1.9015  2.0186
  328TIP3    H2  942   2.247   5.251   1.302 -3.4213  0.3857 -1.0256
  329TIP3   OH2  943   3.313   1.688   6.640 -0.0617 -0.1212  0.3358
  329TIP3    H1  944   3.287   1.761   6.696 -1.1609 -0.2987  0.0921
  329TIP3    H2  945   3.345   1.621   6.701 -1.1843 -0.2860  0.7751
  330TIP3   OH2  946   8.230   4.270   3.626 -0.0137 -0.5616  0.2153
  330TIP3    H1  947   8.286   4.208   3.673 -0.8775 -0.9459  0.7805
  330TIP3    H2  948   8.265   4.356   3.648  0.3359 -0.7937  0.5806
  331TIP3   OH2  949   0.020   2.191   0.234 -0.0605 -0.1908 -0.0422
  331TIP3    H1  950  -0.025   2.274   0.216 -0.2001  0.1346  1.6892
  331TIP3    H2  951   0.081   2.181   0.160 -1.6608  0.2555 -1.4843
  332TIP3   OH2  952   1.257   7.356   2.471 -0.2290  0.0548 -0.3398
  332TIP3    H1  953   1.326   7.349   2.405  0.0814 -0.1723  0.0077
  332TIP3    H2  954   1.254   7.450   2.493 -0.4709  0.1627 -0.8194
  333TIP3   OH2  955   5.231   2.380   2.089 -0.0678 -0.6224 -0.6122
  333TIP3    H1  956   5.183   2.317   2.034 -1.1687 -0.4591  0.1361
  333TIP3    H2  957   5.178   2.459   2.088 -0.1329 -0.6280  0.7168
  334TIP3   OH2  958   5.658   7.396   0.776  0.0235  0.7950  0.6455
  334TIP3    H1  959   5.671   7.404   0.870  0.5412  0.3901  0.6171
  334TIP3    H2  960   5.660   7.486   0.743  2.6214  0.8222  0.6834
  335TIP3   OH2  961   5.878   5.108   3.156  0.3541 -0.0467 -0.1319
  335TIP3    H1  962   5.805   5.170   3.160  0.8548  0.6039 -0.9629
  335TIP3    H2  963   5.835   5.023   3.139 -0.1513  0.4993 -1.7106
  336TIP3   OH2  964   3.030   4.933   0.956  0.3680 -0.4698  0.0239
  336TIP3    H1  965   3.049   4.970   1.042 -0.9229  1.5056 -0.4799
  336TIP3    H2  966   2.948   4.885   0.969  0.0717 -0.0086 -0.1514
  337TIP3   OH2  967   4.516   6.787   3.313  0.2290  0.2492 -0.3766
  337TIP3    H1  968   4.484   6.713   3.262  1.2218  0.5312 -1.4601
  337TIP3    H2  969   4.611   6.784   3.302  0.2222  3.2588 -2.8373
  338TIP3   OH2  970   7.877   5.792   6.378  0.1970 -0.0385  0.1038
  338TIP3    H1  971   7.862   5.781   6.284 -0.8888 -1.9705  0.4442
  338TIP3    H2  972   7.825   5.868   6.403 -0.3855 -0.1763 -0.6787
  339TIP3   OH2  973   0.464   3.841   4.041  0.2284  0.1067 -0.0332
  339TIP3    H1  974   0.413   3.768   4.005 -0.0631  0.1369  0.3053
  339TIP3    H2  975   0.438   3.917   3.989  3.1213 -0.5944 -2.7718
  340TIP3   OH2  976   3.892   3.622   4.012 -0.3137 -0.1781  0.1872
  340TIP3    H1  977   3.824   3.688   3.996  1.0120  1.1607 -0.1649
  340TIP3    H2  978   3.948   3.661   4.079  0.8207 -0.6894 -0.4337
  341TIP3   OH2  979   0.633   2.656   6.397 -0.1969 -0.0064  0.2768
  341TIP3    H1  980   0.622   2.723   6.464  0.2811 -0.1178  0.4704
  341TIP3    H2  981   0.694   2.694   6.334 -0.3005 -0.0744  0.1321
  342TIP3   OH2  982   5.946   7.670   4.666  0.6058 -0.0493  0.3980
  342TIP3    H1  983   5.881   7.624   4.613 -1.1021  1.4148  1.1376
  342TIP3    H2  984   5.981   7.737   4.607 -0.2463  0.6401  0.6521
  343TIP3   OH2  985   6.018   7.267   1.138 -0.0181  0.0284  0.4773
  343TIP3    H1  986   5.983   7.309   1.216 -0.5247  0.6751 -0.0800
  343TIP3    H2  987   5.974   7.182   1.135  0.4310 -0.2331  1.1948
  344TIP3   OH2  988   1.344   3.931   4.811 -0.3135  0.1859  0.6563
  344TIP3    H1  989   1.264   3.885   4.837 -0.2256 -0.0022  0.6023
  344TIP3    H2  990   1.373   3.884   4.733 -0.1055  0.1985  0.7256
  345TIP3   OH2  991   0.209   5.419   3.533 -0.1472  0.0155 -0.4342
  345TIP3    H1  992   0.245   5.481   3.471  1.1763 -0.3260 -0.0361
  345TIP3    H2  993   0.285   5.383   3.579 -1.0129 -0.5349  0.6253
  346TIP3   OH2  994   2.935   7.282   4.372 -0.5912  0.0455  0.0947
  346TIP3    H1  995   2.951   7.375   4.354  0.5441 -0.3206 -0.9069
  346TIP3    H2  996   2.929   7.242   4.285  0.7746 -1.1236  0.5128
  347TIP3   OH2  997   1.411   3.060   3.526  0.0214 -0.0805  0.2892
  347TIP3    H1  998   1.467   2.982   3.524  1.5398  0.9402  1.2141
  347TIP3    H2  999   1.372   3.060   3.613 -1.4210 -0.7420 -0.3236
  348TIP3   OH2 1000   7.071   1.731   3.150  0.0571 -0.2622  0.1739
  348TIP3    H1 1001   7.113   1.723   3.235 -0.3066  1.0123  0.4925
  348TIP3    H2 1002   6.981   1.755   3.169 -0.1669 -0.4824 -0.5590
  349TIP3   OH2 1003   6.011   5.567   1.428  0.2156  0.1545  0.6414
  349TIP3    H1 1004   5.953   5.585   1.355  0.4839 -0.7640  0.1859
  349TIP3    H2 1005   6.048   5.653   1.451  0.9622  0.3130 -1.0092
  350TIP3   OH2 1006   3.451   1.361   1.310  0.6342 -0.1578  0.2081
  350TIP3    H1 1007   3.498   1.330   1.387  2.5372 -0.0579 -0.8459
  350TIP3    H2 1008   3.494   1.443   1.287 -0.5034  0.2777 -0.4476
  351TIP3   OH2 1009   2.478   6.028   1.038 -0.0013 -0.0023  0.3758
  351TIP3    H1 1010   2.399   6.027   0.984 -0.8041  2.8977  1.2855
  351TIP3    H2 1011   2.468   5.955   1.099 -1.6142 -0.1302 -0.0056
  352TIP3   OH2 1012   0.641   0.912   2.422 -0.2771  0.5506 -0.3866
  352TIP3    H1 1013   0.674   0.828   2.390  0.2400  1.0230 -1.1294
  352TIP3    H2 1014   0.694   0.978   2.377 -1.0478  1.2943 -0.2455
  353TIP3   OH2 1015   1.335   3.639   6.114  0.0886  0.7545  0.2826
  353TIP3    H1 1016   1.242   3.658   6.122 -0.1518 -0.5015  0.7359
  353TIP3    H2 1017   1.360   3.602   6.199  1.3086  2.2314  0.6088
  354TIP3   OH2 1018   7.228   4.213   4.895 -0.8856  0.0600 -0.0523
  354TIP3    H1 1019   7.276   4.156   4.835 -0.2152  0.2324  0.3039
  354TIP3    H2 1020   7.177   4.153   4.949  0.7832 -0.3295  1.1651
  355TIP3   OH2 1021   3.265   1.452   5.368  0.0440 -0.1212 -0.1397
  355TIP3    H1 1022   3.238   1.427   5.457  0.1041 -1.2496 -0.4240
  355TIP3    H2 1023   3.341   1.396   5.350  0.4518  0.5927 -0.6464
  356TIP3   OH2 1024   1.568   7.589   3.668  0.6594 -0.0696 -0.0705
  356TIP3    H1 1025   1.523   7.615   3.748  0.6526  0.3304 -0.2036
  356TIP3    H2 1026   1.497   7.573   3.605  0.7003  0.5580 -0.2792
  357TIP3   OH2 1027   1.482   1.723   3.858  0.4179 -0.1963 -0.2195
  357TIP3    H1 1028   1.518   1.702   3.772 -1.0825 -0.8959 -0.7110
  357TIP3    H2 1029   1.459   1.638   3.895 -0.2330  0.1994  0.2897
  358TIP3   OH2 1030   6.435   2.287   2.662 -0.5911  0.4555  0.3354
  358TIP3    H1 1031   6.523   2.287   2.698  0.6075 -2.4195 -2.2122
  358TIP3    H2 1032   6.384   2.233   2.723  0.9786 -2.9124 -1.1102
  359TIP3   OH2 1033   4.596   1.194   6.697  0.3625 -0.2135 -0.0975
  359TIP3    H1 1034   4.591   1.139   6.619  0.9510  0.4210 -0.5824
  359TIP3    H2 1035   4.611   1.132   6.768 -2.4445 -1.0721 -0.1144
  360TIP3   OH2 1036   3.732   2.174   0.238  0.0444  0.2880  0.0863
  360TIP3    H1 1037   3.667   2.124   0.288  1.2156 -0.8507  0.5167
  360TIP3    H2 1038   3.708   2.265   0.253  1.6470  0.1855  4.7241
  361TIP3   OH2 1039   1.904   7.616   2.716  0.4265 -0.4029 -0.1492
  361TIP3    H1 1040   1.977   7.555   2.711  1.4034  0.1665  3.7952
  361TIP3    H2 1041   1.879   7.616   2.809 -0.1754  4.3601 -0.0626
  362TIP3   OH2 1042   2.263   0.515   0.792 -0.7464 -0.5316  0.6456
  362TIP3    H1 1043   2.312   0.483   0.868  0.0179 -0.7332  0.0717
  362TIP3    H2 1044   2.172   0.492   0.811 -0.4474 -1.3708  1.0979
  363TIP3   OH2 1045   6.507   1.520   3.887 -0.6865  0.4384 -0.1208
  363TIP3    H1 1046   6.578   1.552   3.942 -1.4079  1.3652  0.3164
  363TIP3    H2 1047   6.530   1.430   3.866  1.4606  1.2304 -1.4083
  364TIP3   OH2 1048   1.005   5.265   5.524  0.0421 -0.3141  0.4515
  364TIP3    H1 1049   1.038   5.193   5.471 -1.0947  0.1664 -1.0030
  364TIP3    H2 1050   0.950   5.223   5.590  0.6876 -0.8752  0.6382
  365TIP3   OH2 1051   2.276   4.946   2.788  0.0081 -0.1794 -0.0567
  365TIP3    H1 1052   2.275   4.865   2.738 -1.1075  0.6303 -1.3841
  365TIP3    H2 1053   2.309   5.012   2.727  0.8563  0.4091  0.9900
  366TIP3   OH2 1054   6.980   2.890   1.873  0.0019 -0.7531 -0.2289
  366TIP3    H1 1055   6.916   2.882   1.943 -0.5565  0.1768 -0.6039
  366TIP3    H2 1056   6.932   2.931   1.801  0.4342 -2.1227 -1.3381
  367TIP3   OH2 1057   4.947   3.012   6.143 -0.0898  0.5060 -0.2862
  367TIP3    H1 1058   4.897   2.992   6.064  3.0459 -0.6524 -2.1827
  367TIP3    H2 1059   5.000   3.089   6.119  0.4700  0.5096  0.8948
  368TIP3   OH2 1060   6.304   2.385   4.754 -0.2544 -0.4217  0.4167
  368TIP3    H1 1061   6.396   2.390   4.731 -0.2187 -3.5904 -0.5890
  368TIP3    H2 1062   6.300   2.327   4.830 -1.4468 -1.0548 -0.0885
  369TIP3   OH2 1063   0.173   1.058   5.018  0.3598 -0.3042  0.1563
  369TIP3    H1 1064   0.172   0.962   5.017 -1.3911 -0.3258  0.2610
  369TIP3    H2 1065   0.177   1.081   5.111 -1.1780 -0.3284  0.2543
  370TIP3   OH2 1066   0.454   2.150   2.820  0.3950 -0.3231  0.1347
  370TIP3    H1 1067   0.467   2.126   2.912 -0.9623 -0.8518  0.2231
  370TIP3    H2 1068   0.403   2.077   2.784 -0.7271  0.7532 -0.5312
  371TIP3   OH2 1069   6.812   2.433   0.130  0.3573  0.3136  0.5033
  371TIP3    H1 1070   6.793   2.499   0.197  1.5643 -0.3795  1.5647
  371TIP3    H2 1071   6.832   2.354   0.179  0.1034 -0.5372 -0.7287
  372TIP3   OH2 1072   7.778   2.139   1.631  0.4735  0.3734 -0.2415
  372TIP3    H1 1073   7.807   2.227   1.657 -1.0846  0.8514  0.0018
  372TIP3    H2 1074   7.753   2.097   1.713 -1.6522  0.8334 -0.5721
  373TIP3   OH2 1075   1.378   3.227   0.014 -0.4673 -0.0638  0.4173
  373TIP3    H1 1076   1.377   3.193   0.104  0.9358 -0.0596  0.4620
  373TIP3    H2 1077   1.295   3.274   0.005  0.0949  1.4368  2.3141
  374TIP3   OH2 1078   7.996   3.662   2.019  0.4459 -0.0572  0.4943
  374TIP3    H1 1079   8.012   3.583   2.072 -1.3865 -0.4491  0.5598
  374TIP3    H2 1080   7.930   3.710   2.069  1.1617  1.2785  0.1862
  375TIP3   OH2 1081   6.722   2.712   5.779 -0.0379  0.0499 -0.0366
  375TIP3    H1 1082   6.686   2.626   5.802 -0.7841  0.3611 -0.0230
  375TIP3    H2 1083   6.645   2.765   5.756  0.2526  1.1968  1.5157
  376TIP3   OH2 1084   1.149   5.642   0.879 -0.5731  0.0353 -0.4080
  376TIP3    H1 1085   1.218   5.584   0.911  0.8046  0.2498 -2.7158
  376TIP3    H2 1086   1.129   5.700   0.952  2.6045  0.7655  0.0324
  377TIP3   OH2 1087   2.214   6.690   2.491 -0.3280  0.0304  0.4429
  377TIP3    H1 1088   2.183   6.749   2.423  1.0524  0.3645  0.0790
  377TIP3    H2 1089   2.232   6.608   2.445 -2.5732 -0.8638  1.0004
  378TIP3   OH2 1090   2.519   7.212   2.819 -0.0647  0.2792 -0.3665
  378TIP3    H1 1091   2.569   7.229   2.899 -1.9020  1.4259  0.6033
  378TIP3    H2 1092   2.579   7.161   2.764  1.4569 -0.0613  1.4906
  379TIP3   OH2 1093   4.229   7.349   0.461  0.2073  0.2653  0.0616
  379TIP3    H1 1094   4.281   7.296   0.521 -1.3505 -0.4743  0.8166
  379TIP3    H2 1095   4.283   7.425   0.443  1.0615  0.1139  1.7791
  380TIP3   OH2 1096   7.959   7.051   5.093  0.2620 -0.4325  0.2506
  380TIP3    H1 1097   7.928   7.136   5.125  2.2336  0.3516  0.2348
  380TIP3    H2 1098   7.897   6.987   5.128 -0.4765  0.8830  1.4264
  381TIP3   OH2 1099   4.702   2.265   3.557  0.7204 -0.0856  0.3520
  381TIP3    H1 1100   4.628   2.218   3.519  0.4632  0.0837  0.6393
  381TIP3    H2 1101   4.685   2.266   3.651  1.3157 -0.4283  0.4640
  382TIP3   OH2 1102   5.094   7.373   0.751 -0.0023  0.0712  0.5945
  382TIP3    H1 1103   5.045   7.366   0.669  0.6474  2.1231 -0.0423
  382TIP3    H2 1104   5.185   7.386   0.724  0.5222 -1.1257  1.6989
  383TIP3   OH2 1105   7.441   2.907   4.059  0.3112 -0.0465  0.0856
  383TIP3    H1 1106   7.348   2.926   4.075 -0.1837 -2.5685  0.6930
  383TIP3    H2 1107   7.481   2.905   4.146  0.3104 -1.6162  0.0777
  384TIP3   OH2 1108   6.896   0.126   4.016 -0.0676  0.1605  0.2570
  384TIP3    H1 1109   6.886   0.101   3.924  0.4409 -0.1548  0.2853
  384TIP3    H2 1110   6.990   0.121   4.032 -0.1960 -0.1793  0.9125
  385TIP3   OH2 1111   0.046   1.852   5.649 -0.0242  0.3248 -0.2339
  385TIP3    H1 1112   0.110   1.783   5.637  0.3100  0.6587 -0.3937
  385TIP3    H2 1113   0.097   1.933   5.651 -0.4539  0.6173 -0.6141
  386TIP3   OH2 1114   7.734   5.418   3.065 -0.1927  0.2339 -0.1899
  386TIP3    H1 1115   7.727   5.501   3.019 -1.4737  0.4821  0.4016
  386TIP3    H2 1116   7.658   5.416   3.124  0.4959 -0.7905  0.7234
  387TIP3   OH2 1117   5.552   3.000   0.541 -0.2221  0.2695 -0.0171
  387TIP3    H1 1118   5.636   2.997   0.494  0.3756  1.2916  0.9400
  387TIP3    H2 1119   5.533   2.908   0.559  0.6670  0.0092 -0.3072
  388TIP3   OH2 1120   8.076   0.800   0.955 -0.3744  0.1297  0.9532
  388TIP3    H1 1121   8.003   0.809   1.016 -1.7762 -3.1098 -0.0471
  388TIP3    H2 1122   8.036   0.775   0.872  1.7872 -0.6573  0.0785
  389TIP3   OH2 1123   1.632   2.436   0.495  0.8329 -0.0773 -0.0673
  389TIP3    H1 1124   1.694   2.401   0.559  1.1731 -0.0457 -0.3796
  389TIP3    H2 1125   1.572   2.363   0.478 -0.8258  0.6488  2.1781
  390TIP3   OH2 1126   1.339   2.364   6.604 -0.1735  0.2847 -0.3583
  390TIP3    H1 1127   1.331   2.270   6.588  0.4503  0.1254  0.2365
  390TIP3    H2 1128   1.433   2.380   6.611 -0.3125  0.7978  0.4447
  391TIP3   OH2 1129   3.479   7.281   0.916  0.0903  0.8547 -0.1233
  391TIP3    H1 1130   3.572   7.279   0.938  0.0435 -3.3281  0.6659
  391TIP3    H2 1131   3.471   7.226   0.838 -1.5869  2.3064 -1.0412
  392TIP3   OH2 1132   1.139   4.088   4.304 -0.0189 -0.0934  0.0876
  392TIP3    H1 1133   1.098   4.050   4.382 -1.4878  1.1147 -0.0337
  392TIP3    H2 1134   1.217   4.133   4.337  0.2022 -0.8448  0.6208
  393TIP3   OH2 1135   5.199   3.512   5.050 -0.4595 -0.5090 -0.0203
  393TIP3    H1 1136   5.156   3.432   5.019  0.5221 -1.2426  0.4541
  393TIP3    H2 1137   5.242   3.486   5.131  3.7072 -0.7743 -2.0457
  394TIP3   OH2 1138   0.356   0.218   0.534 -0.0362 -0.2024  0.3310
  394TIP3    H1 1139   0.350   0.172   0.618 -0.7607 -2.1753 -0.7273
  394TIP3    H2 1140   0.439   0.264   0.538  0.3269 -0.8994  1.8295
  395TIP3   OH2 1141   1.889   2.460   3.287 -0.3198  0.2269  0.3782
  395TIP3    H1 1142   1.969   2.505   3.259  0.6243 -1.5372  0.0101
  395TIP3    H2 1143   1.911   2.423   3.372 -0.8001 -0.1466  0.3450
  396TIP3   OH2 1144   1.234   1.298   4.055  0.1158 -0.5561 -0.0199
  396TIP3    H1 1145   1.142   1.271   4.061 -0.4734  1.2730 -0.1069
  396TIP3    H2 1146   1.269   1.283   4.143 -1.1772  1.6154  0.9599
  397TIP3   OH2 1147   2.370   3.423   0.626 -0.6554 -0.3475 -0.7403
  397TIP3    H1 1148   2.354   3.462   0.540 -1.7541 -1.3057 -0.9902
  397TIP3    H2 1149   2.446   3.366   0.613 -0.6387 -0.2632 -1.0109
  398TIP3   OH2 1150   5.525   7.605   5.637  0.2668  0.0547 -0.4337
  398TIP3    H1 1151   5.478   7.687   5.621  0.5346  1.2426  3.6798
  398TIP3    H2 1152   5.617   7.629   5.632  0.3484  0.1429  1.0470
  399TIP3   OH2 1153   5.660   3.581   2.699 -0.7722 -0.0210  0.2845
  399TIP3    H1 1154   5.652   3.603   2.607  1.2319  1.0713  0.3074
  399TIP3    H2 1155   5.573   3.550   2.725 -1.9568  1.6547 -1.4381
  400TIP3   OH2 1156   1.271   3.160   6.588  0.2345  0.3547 -0.0013
  400TIP3    H1 1157   1.339   3.155   6.655  0.1466 -0.1899  0.0505
  400TIP3    H2 1158   1.265   3.071   6.553 -0.5062  0.3819  0.0435
  401TIP3   OH2 1159   4.289   3.082   6.513  0.1580 -0.2852  0.7190
  401TIP3    H1 1160   4.363   3.075   6.453  0.8726 -2.5133  1.7647
  401TIP3    H2 1161   4.216   3.110   6.458  1.6166  1.5468 -0.4117
  402TIP3   OH2 1162   7.149   6.367   5.828  0.1518 -0.2949  0.6619
  402TIP3    H1 1163   7.178   6.306   5.897  1.4478 -0.3595  0.1011
  402TIP3    H2 1164   7.100   6.434   5.875  0.1565 -0.8678  1.5231
  403TIP3   OH2 1165   4.604   1.370   1.781  0.1940  0.1933 -0.5558
  403TIP3    H1 1166   4.691   1.330   1.782  0.3178  0.4627 -0.2327
  403TIP3    H2 1167   4.552   1.312   1.726  0.5175 -0.1009 -0.5584
  404TIP3   OH2 1168   2.300   0.654   5.396 -0.6216  0.2389 -0.2120
  404TIP3    H1 1169   2.245   0.698   5.461 -0.1926  0.0541  0.2842
  404TIP3    H2 1170   2.363   0.604   5.448 -0.8734 -0.6790 -0.7643
  405TIP3   OH2 1171   7.539   3.071   3.767 -0.3623  0.1004  0.4263
  405TIP3    H1 1172   7.532   2.977   3.751 -2.1127 -0.3412  3.1592
  405TIP3    H2 1173   7.607   3.079   3.833 -0.7559  0.6765  0.7711
  406TIP3   OH2 1174   1.550   0.842   1.518 -0.2092  0.4957 -0.0318
  406TIP3    H1 1175   1.519   0.923   1.477  1.1970  0.8915 -0.3726
  406TIP3    H2 1176   1.610   0.872   1.587  0.3495 -0.2353 -0.1872
  407TIP3   OH2 1177   2.314   3.932   2.245  0.4556  0.5050 -0.1423
  407TIP3    H1 1178   2.355   3.871   2.306 -0.3901 -0.9498 -0.9735
  407TIP3    H2 1179   2.227   3.949   2.283  0.8870  1.6742  0.3744
  408TIP3   OH2 1180   2.337   0.384   4.396  0.3150 -0.1503  0.4072
  408TIP3    H1 1181   2.289   0.452   4.442  1.0664  0.2321  0.6504
  408TIP3    H2 1182   2.423   0.383   4.438  0.4998 -0.8563  0.0266
  409TIP3   OH2 1183   2.965   0.733   5.036 -0.0247 -0.3322 -0.3513
  409TIP3    H1 1184   3.052   0.759   5.067 -0.1340  0.8550 -0.9875
  409TIP3    H2 1185   2.933   0.672   5.103  1.0892 -0.4032  0.1384
  410TIP3   OH2 1186   4.475   7.137   2.789 -0.4535 -0.0618 -0.1387
  410TIP3    H1 1187   4.400   7.158   2.845 -0.6276  0.2939 -0.5044
  410TIP3    H2 1188   4.519   7.065   2.835 -1.6973 -1.1070 -0.5147
  411TIP3   OH2 1189   0.719   6.455   5.799 -0.7641  0.4441 -0.2344
  411TIP3    H1 1190   0.667   6.380   5.772 -1.5391  0.5046  1.0185
  411TIP3    H2 1191   0.784   6.420   5.860 -1.5229  0.8579  0.8359
  412TIP3   OH2 1192   3.031   4.285   0.570 -0.2783 -0.4087 -0.4027
  412TIP3    H1 1193   3.083   4.229   0.512 -1.3466 -0.3929 -1.4089
  412TIP3    H2 1194   3.096   4.339   0.615  0.7312 -1.8659 -0.0096
  413TIP3   OH2 1195   1.518   5.992   2.492  0.7661  0.1177 -0.7139
  413TIP3    H1 1196   1.434   6.006   2.535 -0.1950 -1.9950 -1.7644
  413TIP3    H2 1197   1.581   5.990   2.564 -0.2846  0.1911  0.2432
  414TIP3   OH2 1198   6.775   3.570   3.944 -0.3125  0.1244  0.2694
  414TIP3    H1 1199   6.762   3.493   3.999 -0.7346  0.1916  0.2735
  414TIP3    H2 1200   6.686   3.604   3.930 -0.1487  0.4856  0.0918
  415TIP3   OH2 1201   7.095   1.534   4.428 -0.3391  0.3578  0.4640
  415TIP3    H1 1202   7.146   1.502   4.354 -0.1481  1.8169 -0.0776
  415TIP3    H2 1203   7.014   1.567   4.388 -1.3935 -1.1771  1.2182
  416TIP3   OH2 1204   3.020   3.597   2.555 -0.3304  0.2162 -0.3385
  416TIP3    H1 1205   2.996   3.529   2.619  0.4009  1.2444  1.0965
  416TIP3    H2 1206   3.097   3.639   2.594  0.8995  0.1060 -2.5009
  417TIP3   OH2 1207   1.640   4.990   2.604  0.3123 -0.4273 -0.0454
  417TIP3    H1 1208   1.629   5.067   2.549 -0.3039 -1.6620 -1.7340
  417TIP3    H2 1209   1.696   5.019   2.676 -0.1815  1.6564 -0.4473
  418TIP3   OH2 1210   3.240   6.597   0.108  0.3448  0.3476  0.5108
  418TIP3    H1 1211   3.179   6.547   0.053 -0.9432  1.4349  0.8999
  418TIP3    H2 1212   3.198   6.600   0.194  1.2477  0.6069  0.9549
  419TIP3   OH2 1213   1.155   4.508   6.341  0.4630  0.0714  0.3197
  419TIP3    H1 1214   1.139   4.587   6.393 -1.6972  1.3469 -2.0276
  419TIP3    H2 1215   1.070   4.489   6.300  0.8610 -3.6321  0.8911
  420TIP3   OH2 1216   2.263   1.386   3.116  0.2607 -0.2362  0.5747
  420TIP3    H1 1217   2.201   1.447   3.158  1.2664 -0.7708  3.0142
  420TIP3    H2 1218   2.344   1.436   3.110  0.4416 -0.5576  0.3764
  421TIP3   OH2 1219   7.779   1.341   4.379 -0.2647 -0.0502  0.2348
  421TIP3    H1 1220   7.854   1.399   4.396  0.5868 -0.9844 -0.2294
  421TIP3    H2 1221   7.757   1.356   4.287 -0.8670  0.4545  0.4539
  422TIP3   OH2 1222   2.118   7.386   0.541  0.3895 -0.5283 -0.4814
  422TIP3    H1 1223   2.213   7.380   0.533  0.4061 -0.3398 -0.4337
  422TIP3    H2 1224   2.103   7.403   0.634  0.3685  0.5364 -0.6617
  423TIP3   OH2 1225   6.199   4.243   0.436 -0.0553  0.3343 -0.0965
  423TIP3    H1 1226   6.232   4.161   0.472  1.2564  0.8681 -0.0478
  423TIP3    H2 1227   6.230   4.243   0.345 -1.2397  0.1503 -0.5256
  424TIP3   OH2 1228   1.796   7.121   5.053  0.4151  0.1173  0.2605
  424TIP3    H1 1229   1.793   7.210   5.089  0.3025 -0.8497  2.8152
  424TIP3    H2 1230   1.876   7.083   5.090 -0.5455 -1.4506  0.7989
  425TIP3   OH2 1231   1.737   2.383   3.729 -0.3731  0.1410 -0.1797
  425TIP3    H1 1232   1.795   2.368   3.804  0.3086  0.7081 -0.5767
  425TIP3    H2 1233   1.691   2.301   3.717 -0.1351 -0.1115  0.5615
  426TIP3   OH2 1234   7.102   6.401   4.783  0.1276  0.2852 -0.1776
  426TIP3    H1 1235   7.040   6.433   4.717  0.9220  1.0859 -0.5444
  426TIP3    H2 1236   7.179   6.375   4.733  0.6509  0.6772  0.4135
  427TIP3   OH2 1237   5.397   5.105   3.455  0.0106  0.1928 -0.6031
  427TIP3    H1 1238   5.371   5.052   3.379 -2.2414  0.2819  0.0489
  427TIP3    H2 1239   5.387   5.195   3.426 -0.1195  0.2325 -0.4333
  428TIP3   OH2 1240   3.428   5.102   1.688  0.4267 -0.3734 -0.3618
  428TIP3    H1 1241   3.485   5.074   1.617 -0.7652  1.4045 -2.1003
  428TIP3    H2 1242   3.344   5.061   1.669  0.3565 -0.7017  0.6090
  429TIP3   OH2 1243   1.340   6.810   5.726  0.2820  0.5244 -0.9227
  429TIP3    H1 1244   1.297   6.842   5.806  0.6186 -0.9740 -0.0937
  429TIP3    H2 1245   1.433   6.811   5.747  0.3955  0.4416 -1.4215
  430TIP3   OH2 1246   6.543   4.972   2.708 -0.0806 -0.3454  0.2856
  430TIP3    H1 1247   6.558   5.043   2.770 -0.8284  3.7465 -3.7142
  430TIP3    H2 1248   6.449   4.953   2.716 -0.9476  2.5775 -1.6385
  431TIP3   OH2 1249   5.122   6.449   1.688  0.8323  0.3593 -0.4289
  431TIP3    H1 1250   5.198   6.424   1.634  0.4680  0.1554 -0.8608
  431TIP3    H2 1251   5.097   6.535   1.655  0.5000  0.1582 -0.7206
  432TIP3   OH2 1252   2.462   0.510   0.996 -0.9375  0.3390 -0.1105
  432TIP3    H1 1253   2.437   0.596   1.029  1.0497  0.7244  0.4825
  432TIP3    H2 1254   2.527   0.478   1.058 -1.9524 -1.8135 -0.0658
  433TIP3   OH2 1255   5.899   4.399   1.423  0.0725  0.0311 -0.1377
  433TIP3    H1 1256   5.913   4.435   1.335 -0.2947 -0.6852 -0.5056
  433TIP3    H2 1257   5.884   4.305   1.407  0.5113 -0.1948  0.7369
  434TIP3   OH2 1258   4.448   2.980   5.230  0.3357 -0.6721  0.7627
  434TIP3    H1 1259   4.494   2.919   5.173  0.0967  0.3134 -0.5253
  434TIP3    H2 1260   4.360   2.944   5.237  0.4163 -0.8936  0.6686
  435TIP3   OH2 1261   7.175   1.650   3.648 -0.2609 -0.2534 -0.1107
  435TIP3    H1 1262   7.245   1.701   3.690 -0.3088 -0.5145  0.2885
  435TIP3    H2 1263   7.094   1.691   3.677 -0.2782  0.1920 -0.7561
  436TIP3   OH2 1264   2.270   4.710   0.085  0.3819 -0.6309 -0.1812
  436TIP3    H1 1265   2.338   4.644   0.076  0.2238 -0.6527 -1.3089
  436TIP3    H2 1266   2.192   4.660   0.111  0.0484 -1.0325 -1.8503
  437TIP3   OH2 1267   1.151   7.222   1.728 -0.0738  0.3498  0.7423
  437TIP3    H1 1268   1.231   7.240   1.678 -0.2999  2.0999  0.9478
  437TIP3    H2 1269   1.081   7.254   1.671 -0.3816  1.7898  1.8928
  438TIP3   OH2 1270   8.181   0.707   3.721  0.1812 -0.5010 -1.0231
  438TIP3    H1 1271   8.172   0.778   3.785  0.6293 -0.5267 -0.9302
  438TIP3    H2 1272   8.239   0.644   3.762  0.1081 -0.7340 -1.2722
  439TIP3   OH2 1273   4.696   0.328   2.533 -0.4435 -0.1837  0.1262
  439TIP3    H1 1274   4.765   0.348   2.596  0.0860  0.2535 -0.5708
  439TIP3    H2 1275   4.656   0.413   2.513 -0.8594 -0.3695  0.1539
  440TIP3   OH2 1276   2.841   4.605   2.631 -0.2664  0.2194  0.8936
  440TIP3    H1 1277   2.779   4.657   2.682  0.2611  1.9131 -0.0803
  440TIP3    H2 1278   2.888   4.670   2.578 -0.4161 -1.3869 -1.3463
  441TIP3   OH2 1279   7.247   6.501   0.562 -0.7167  0.3441  0.1437
  441TIP3    H1 1280   7.173   6.442   0.546  0.5044 -1.3011  0.2542
  441TIP3    H2 1281   7.302   6.453   0.625  0.2582  1.6867  0.3513
  442TIP3   OH2 1282   5.038   2.521   0.688 -0.4940 -0.5457 -0.2124
  442TIP3    H1 1283   5.064   2.583   0.756  1.5774 -1.7404  0.1750
  442TIP3    H2 1284   5.059   2.565   0.606  1.2011 -0.7713  0.0669
  443TIP3   OH2 1285   6.091   7.559   6.466 -0.5123  0.0248  0.2522
  443TIP3    H1 1286   6.157   7.560   6.535  0.6302 -1.1942 -0.7679
  443TIP3    H2 1287   6.028   7.493   6.494 -0.6125  0.2837  0.6346
  444TIP3   OH2 1288   7.350   6.018   6.356 -0.6681  0.9472  0.3997
  444TIP3    H1 1289   7.255   6.025   6.370 -0.7236  0.4509  0.3082
  444TIP3    H2 1290   7.377   6.105   6.328 -1.2740  0.8279 -0.6052
  445TIP3   OH2 1291   6.255   4.863   4.813  0.2270  0.2925 -0.2456
  445TIP3    H1 1292   6.298   4.943   4.782  1.5856 -0.4063 -0.2360
  445TIP3    H2 1293   6.302   4.841   4.893 -0.3925 -0.3169 -0.0437
  446TIP3   OH2 1294   5.927   0.464   3.355  0.1710  0.0782  0.0010
  446TIP3    H1 1295   5.911   0.556   3.374  1.1241  0.3649 -0.5038
  446TIP3    H2 1296   6.013   0.463   3.311 -0.4890 -0.8805 -1.3411
  447TIP3   OH2 1297   4.257   7.093   1.333  0.1514 -0.0119  0.4596
  447TIP3    H1 1298   4.218   7.012   1.366 -1.2293  0.9032  1.2078
  447TIP3    H2 1299   4.338   7.103   1.382  0.1708 -0.7718  0.5959
  448TIP3   OH2 1300   5.081   5.509   4.478  0.1925  0.2606  0.1562
  448TIP3    H1 1301   5.046   5.582   4.529 -0.3326 -1.0690  1.8068
  448TIP3    H2 1302   5.033   5.512   4.395 -1.3710  0.5171  1.0346
  449TIP3   OH2 1303   7.765   2.290   5.926 -0.0545 -0.0328  0.2223
  449TIP3    H1 1304   7.764   2.195   5.911 -0.3211 -0.2067  1.2227
  449TIP3    H2 1305   7.813   2.326   5.852 -0.5022 -0.8896 -0.5025
  450TIP3   OH2 1306   7.498   0.242   5.344 -0.1596  0.0291  0.2677
  450TIP3    H1 1307   7.445   0.253   5.266  1.9923 -0.1016 -1.3011
  450TIP3    H2 1308   7.525   0.150   5.343  1.1989  0.3996  0.2143
  451TIP3   OH2 1309   5.588   1.929   2.477  0.2470  0.4095  0.1842
  451TIP3    H1 1310   5.642   1.898   2.549  3.0310  0.6674 -1.6419
  451TIP3    H2 1311   5.504   1.884   2.489  1.5076 -1.6460  2.0365
  452TIP3   OH2 1312   2.145   3.012   2.961 -0.1007 -0.1961  0.5516
  452TIP3    H1 1313   2.078   3.006   3.029 -1.4702  2.1169 -0.4699
  452TIP3    H2 1314   2.222   3.047   3.005  0.1449 -1.8675  1.5258
  453TIP3   OH2 1315   1.619   4.363   3.350 -0.4467  0.2834 -0.3482
  453TIP3    H1 1316   1.571   4.441   3.378  3.0769  2.2333  0.7379
  453TIP3    H2 1317   1.616   4.304   3.425 -0.1317  0.9036  0.1534
  454TIP3   OH2 1318   6.731   7.780   4.743  0.2156  0.0498  0.0130
  454TIP3    H1 1319   6.662   7.840   4.771  1.0456  0.9695  0.1414
  454TIP3    H2 1320   6.699   7.743   4.661 -0.1783  0.9040 -0.2280
  455TIP3   OH2 1321   0.108   7.561   0.577 -0.4997  0.1349  0.6046
  455TIP3    H1 1322   0.160   7.501   0.523 -1.8557  0.6136 -1.3845
  455TIP3    H2 1323   0.145   7.647   0.560 -1.9320  0.5090 -0.9958
  456TIP3   OH2 1324   1.264   3.375   2.831 -0.2501 -0.0271  0.6178
  456TIP3    H1 1325   1.355   3.349   2.847  0.6081  1.3683 -1.5077
  456TIP3    H2 1326   1.264   3.470   2.844 -1.4001  0.0015  0.4751
  457TIP3   OH2 1327   7.378   4.906   5.342 -0.6389 -0.0524  0.0734
  457TIP3    H1 1328   7.411   4.993   5.315 -0.6429  0.0805  0.4989
  457TIP3    H2 1329   7.394   4.851   5.265 -0.9723  0.4067 -0.3383
  458TIP3   OH2 1330   6.569   3.638   6.635 -0.0926 -0.0905  0.2605
  458TIP3    H1 1331   6.596   3.572   6.698  1.0086 -1.1765 -1.2743
  458TIP3    H2 1332   6.491   3.601   6.593  0.2363 -0.2082 -0.2571
  459TIP3   OH2 1333   5.096   0.993   2.938 -0.3421  0.6411 -0.1300
  459TIP3    H1 1334   5.113   1.047   3.016 -0.5699  1.2944 -0.5322
  459TIP3    H2 1335   5.051   0.916   2.972 -0.2115  0.7996  0.4191
  460TIP3   OH2 1336   6.470   4.516   1.542 -0.2578  0.0110  0.2166
  460TIP3    H1 1337   6.492   4.574   1.615  0.3536 -1.7506  1.5084
  460TIP3    H2 1338   6.554   4.478   1.516 -0.4543  0.6691 -1.5047
  461TIP3   OH2 1339   1.250   3.361   1.272  0.9161 -0.1485  0.2087
  461TIP3    H1 1340   1.250   3.325   1.360  0.5497 -0.6399  0.0133
  461TIP3    H2 1341   1.224   3.288   1.216  0.9798  0.2014 -0.2891
  462TIP3   OH2 1342   3.053   5.661   0.473 -0.1319 -0.2075  0.0801
  462TIP3    H1 1343   2.970   5.704   0.455  0.0448  0.2333  0.2943
  462TIP3    H2 1344   3.051   5.643   0.567 -0.0192 -0.2727  0.0708
  463TIP3   OH2 1345   8.015   0.750   5.655 -0.7814 -0.1832  0.5741
  463TIP3    H1 1346   7.927   0.712   5.652 -0.4956 -0.8405 -0.1161
  463TIP3    H2 1347   8.056   0.720   5.573 -0.6122  1.8296 -0.1371
  464TIP3   OH2 1348   5.191   1.895   3.569 -0.0283  0.2065  0.5380
  464TIP3    H1 1349   5.147   1.896   3.484  2.4537  2.4444 -0.8544
  464TIP3    H2 1350   5.248   1.819   3.566 -0.6760 -0.3006  0.6707
  465TIP3   OH2 1351   8.256   1.413   2.509 -0.0165  0.3937  0.0382
  465TIP3    H1 1352   8.279   1.506   2.511 -0.4192  0.5007 -0.1712
  465TIP3    H2 1353   8.217   1.396   2.594  1.6962 -0.0240  0.7833
  466TIP3   OH2 1354   2.067   5.787   4.345  0.1708 -0.2097  0.1333
  466TIP3    H1 1355   2.162   5.798   4.339  0.1607  1.9029  2.5373
  466TIP3    H2 1356   2.055   5.716   4.408  0.0741 -2.2503 -2.0420
  467TIP3   OH2 1357   3.668   4.784   2.100 -0.4894 -0.2564 -0.0547
  467TIP3    H1 1358   3.585   4.796   2.146  0.0641  0.8944  0.7045
  467TIP3    H2 1359   3.679   4.689   2.093 -0.3172 -0.5196  2.7433
  468TIP3   OH2 1360   6.674   1.055   3.413 -0.1569  0.0278 -0.2662
  468TIP3    H1 1361   6.762   1.092   3.411 -0.7146  1.3824 -0.9066
  468TIP3    H2 1362   6.618   1.130   3.433 -1.3073 -0.5398 -1.3078
  469TIP3   OH2 1363   6.543   7.517   1.008 -0.0237  0.4670  0.5556
  469TIP3    H1 1364   6.608   7.580   0.977 -0.5614  0.7625  0.0152
  469TIP3    H2 1365   6.468   7.571   1.034 -1.2479  0.0029 -1.6971
  470TIP3   OH2 1366   5.575   2.249   5.678 -0.3521  0.7154  0.5498
  470TIP3    H1 1367   5.528   2.257   5.761  0.4359 -1.6157  1.3195
  470TIP3    H2 1368   5.506   2.245   5.612 -0.9839  3.0012  0.9736
  471TIP3   OH2 1369   1.488   2.979   5.883  0.1429  0.1139 -0.0188
  471TIP3    H1 1370   1.545   2.906   5.908 -1.6498 -1.5324 -0.4690
  471TIP3    H2 1371   1.528   3.015   5.804  0.6593 -0.9014 -0.2401
  472TIP3   OH2 1372   7.130   5.257   6.184 -0.1982  0.7409  0.3302
  472TIP3    H1 1373   7.180   5.177   6.171 -1.7060 -0.1388 -0.3032
  472TIP3    H2 1374   7.144   5.280   6.276 -1.3040 -1.3743  1.0830
  473TIP3   OH2 1375   5.217   4.637   1.201 -0.6094 -0.8712  0.0175
  473TIP3    H1 1376   5.206   4.623   1.295 -0.2457 -0.8468  0.0656
  473TIP3    H2 1377   5.129   4.625   1.165 -0.8386 -0.4344  0.4146
  474TIP3   OH2 1378   2.820   0.689   5.306  0.1897  0.3985 -0.1306
  474TIP3    H1 1379   2.754   0.636   5.350 -0.4578  0.6251 -0.8052
  474TIP3    H2 1380   2.769   0.754   5.256  0.8629 -0.1936 -1.6547
  475TIP3   OH2 1381   1.222   5.085   3.316  0.4013 -0.1548 -0.1730
  475TIP3    H1 1382   1.193   5.174   3.296  0.3367  0.2653  1.6608
  475TIP3    H2 1383   1.316   5.093   3.332  1.5150 -1.2607 -4.5719
  476TIP3   OH2 1384   1.308   7.672   4.694 -0.0031 -0.4166 -0.3167
  476TIP3    H1 1385   1.390   7.627   4.678 -0.1077 -0.6482 -0.1951
  476TIP3    H2 1386   1.264   7.674   4.609 -0.4359 -1.4048 -0.1224
  477TIP3   OH2 1387   3.815   7.254   6.152 -0.4665  0.0771 -0.2004
  477TIP3    H1 1388   3.762   7.312   6.207 -0.8142  0.3060 -0.7730
  477TIP3    H2 1389   3.901   7.296   6.150 -0.3132 -0.1827  0.5545
  478TIP3   OH2 1390   0.608   7.352   3.134  0.1694 -0.1044 -0.7254
  478TIP3    H1 1391   0.560   7.391   3.062 -4.8251 -0.8292  1.7733
  478TIP3    H2 1392   0.624   7.261   3.107 -1.1892 -0.2346 -1.1502
  479TIP3   OH2 1393   3.318   3.552   6.466 -0.4830  0.1824 -0.7475
  479TIP3    H1 1394   3.240   3.538   6.519 -0.5278  0.6621 -0.6839
  479TIP3    H2 1395   3.300   3.506   6.384 -0.0166 -1.3773 -0.0003
  480TIP3   OH2 1396   0.469   6.656   6.540 -0.0442  0.9351  0.3153
  480TIP3    H1 1397   0.498   6.720   6.476 -1.1854  0.8147 -0.3481
  480TIP3    H2 1398   0.384   6.688   6.570 -0.7268 -0.3311 -0.1632
  481TIP3   OH2 1399   2.527   6.015   4.494  0.0940 -0.0058  1.1876
  481TIP3    H1 1400   2.594   5.989   4.558  0.3953 -1.4633  0.3362
  481TIP3    H2 1401   2.575   6.068   4.430 -0.1055  1.0283  1.8617
  482TIP3   OH2 1402   5.311   6.470   4.240  0.0667  0.1385 -0.3881
  482TIP3    H1 1403   5.373   6.397   4.227 -0.7469 -0.3906 -1.5252
  482TIP3    H2 1404   5.235   6.429   4.281 -0.6126  0.2155 -1.5276
  483TIP3   OH2 1405   4.776   1.859   4.308  0.1758 -0.2238  0.4673
  483TIP3    H1 1406   4.801   1.820   4.224  0.8781  0.2844  0.4371
  483TIP3    H2 1407   4.776   1.953   4.291  0.7349 -0.0951  1.1470
  484TIP3   OH2 1408   3.175   5.672   5.453  0.2510  0.3323 -0.3118
  484TIP3    H1 1409   3.258   5.661   5.499  0.7547  1.1707 -0.9856
  484TIP3    H2 1410   3.111   5.625   5.506  1.3017 -1.0350 -0.2113
  485TIP3   OH2 1411   6.617   6.352   0.732  0.2188 -0.7721 -0.7606
  485TIP3    H1 1412   6.615   6.364   0.637  0.7480 -1.9713 -0.9413
  485TIP3    H2 1413   6.710   6.353   0.754  0.3134 -3.5273 -0.7119
  486TIP3   OH2 1414   3.750   0.722   3.462  0.5007 -0.2620 -0.1054
  486TIP3    H1 1415   3.703   0.686   3.388  0.7804 -0.3267 -0.2529
  486TIP3    H2 1416   3.682   0.758   3.519  0.3615  1.8908 -1.4872
  487TIP3   OH2 1417   3.530   2.523   3.117  0.1887 -0.1686  0.1838
  487TIP3    H1 1418   3.613   2.533   3.164  1.0403 -1.8352 -0.8741
  487TIP3    H2 1419   3.465   2.507   3.185  0.8230  0.5248  0.9831
  488TIP3   OH2 1420   5.570   6.397   2.602 -0.8180 -0.0434 -0.0397
  488TIP3    H1 1421   5.618   6.480   2.603 -1.1270  0.1468 -0.5138
  488TIP3    H2 1422   5.532   6.391   2.690 -0.3106  0.0265  0.1880
  489TIP3   OH2 1423   4.934   2.550   6.300  0.5682 -0.2238  0.5106
  489TIP3    H1 1424   4.974   2.483   6.355 -0.0337 -1.3615 -0.3716
  489TIP3    H2 1425   4.945   2.517   6.210 -0.9778  0.1497  0.1432
  490TIP3   OH2 1426   1.571   6.681   5.793 -0.8673 -0.8301 -0.0083
  490TIP3    H1 1427   1.656   6.716   5.820 -1.9385  0.1802  2.2760
  490TIP3    H2 1428   1.572   6.686   5.697  0.7546  1.2945  0.0692
  491TIP3   OH2 1429   7.481   0.302   3.004  0.5966  0.6588 -0.5996
  491TIP3    H1 1430   7.475   0.354   3.084 -1.6065  0.5822 -0.6599
  491TIP3    H2 1431   7.574   0.304   2.981  1.0490  1.8999  1.1410
  492TIP3   OH2 1432   6.208   3.262   0.908  0.1983  0.3167  1.1700
  492TIP3    H1 1433   6.129   3.303   0.872 -0.8617 -2.5301 -0.1243
  492TIP3    H2 1434   6.267   3.255   0.833  1.1505  1.1786  1.8203
  493TIP3   OH2 1435   1.795   2.391   2.573 -0.1504  0.3615 -0.9641
  493TIP3    H1 1436   1.814   2.338   2.650  0.6966 -0.0649 -1.4433
  493TIP3    H2 1437   1.839   2.344   2.501  2.1240  2.5892 -1.1618
  494TIP3   OH2 1438   0.560   3.422   6.440 -0.1665  0.5255  0.1444
  494TIP3    H1 1439   0.623   3.375   6.495 -1.1550 -1.2436 -0.1553
  494TIP3    H2 1440   0.614   3.457   6.368  0.6688  0.1136  0.5517
  495TIP3   OH2 1441   2.314   4.392   2.179  0.3228  0.0360  0.1601
  495TIP3    H1 1442   2.378   4.454   2.213  1.1829 -0.4585 -0.5201
  495TIP3    H2 1443   2.346   4.306   2.208  0.7632 -0.3479 -1.3713
  496TIP3   OH2 1444   5.639   5.722   5.520 -0.4283  0.1665  0.0986
  496TIP3    H1 1445   5.722   5.712   5.473  0.0274 -0.0828  0.9437
  496TIP3    H2 1446   5.633   5.644   5.576 -1.3984  0.0101 -0.1923
  497TIP3   OH2 1447   7.446   3.135   2.249  0.5097  0.2489 -0.0340
  497TIP3    H1 1448   7.527   3.173   2.283  0.0842  0.5945  0.6270
  497TIP3    H2 1449   7.377   3.194   2.281 -0.0154 -0.1115 -0.4771
  498TIP3   OH2 1450   6.632   0.527   3.246 -0.6744 -0.4271  0.0618
  498TIP3    H1 1451   6.690   0.522   3.170 -1.8905  0.0132 -0.9371
  498TIP3    H2 1452   6.660   0.606   3.292  1.0312 -1.4811  0.9376
  499TIP3   OH2 1453   0.970   0.959   3.417 -0.1101 -0.2724  0.3087
  499TIP3    H1 1454   1.024   0.988   3.491  2.4499  1.4146 -2.0072
  499TIP3    H2 1455   0.996   0.868   3.404  0.7824 -0.0440  0.4022
  500TIP3   OH2 1456   2.776   6.604   3.862  0.7523  0.7624  0.1170
  500TIP3    H1 1457   2.820   6.555   3.932 -0.3325  1.0739  1.0492
  500TIP3    H2 1458   2.728   6.673   3.908 -1.0768  0.1642 -0.8055
  501TIP3   OH2 1459   6.187   6.213   3.254 -0.1565  0.2577 -0.2615
  501TIP3    H1 1460   6.130   6.179   3.324  0.4543 -1.0967 -0.3946
  501TIP3    H2 1461   6.200   6.138   3.195  1.6448  0.5617 -0.3036
  502TIP3   OH2 1462   6.332   7.264   5.070  0.0668  0.0450  0.3040
  502TIP3    H1 1463   6.369   7.351   5.081 -0.1807  0.0503  1.1876
  502TIP3    H2 1464   6.294   7.243   5.155 -2.2489  0.1645 -0.6260
  503TIP3   OH2 1465   0.956   6.061   5.941  0.2372 -0.2633 -0.0319
  503TIP3    H1 1466   0.881   6.107   5.978 -0.5420  0.0151 -1.8409
  503TIP3    H2 1467   1.000   6.023   6.016  0.4716  2.7447  1.5226
  504TIP3   OH2 1468   0.811   0.655   6.268 -0.0914  0.0093 -0.2360
  504TIP3    H1 1469   0.810   0.749   6.285 -0.4042 -0.2594  1.4262
  504TIP3    H2 1470   0.859   0.618   6.342 -2.0078 -1.3313  0.4256
  505TIP3   OH2 1471   5.154   0.203   2.008  0.1540  0.0307  0.0357
  505TIP3    H1 1472   5.201   0.222   2.089  1.6754 -2.0835 -0.2494
  505TIP3    H2 1473   5.196   0.257   1.942  0.5460 -0.0279  0.2358
  506TIP3   OH2 1474   5.785   2.857   6.503 -0.4398  1.0071 -0.1493
  506TIP3    H1 1475   5.775   2.952   6.509 -2.5034  0.7887  0.6585
  506TIP3    H2 1476   5.747   2.834   6.418 -1.3082  0.7826  0.2854
  507TIP3   OH2 1477   4.072   1.510   6.498 -0.0892  0.2011 -0.2539
  507TIP3    H1 1478   4.117   1.563   6.564  2.0547 -0.8511 -0.7791
  507TIP3    H2 1479   4.056   1.571   6.426 -0.5993  0.8764  0.4187
  508TIP3   OH2 1480   0.543   5.320   4.876 -0.2686  0.7123  1.1182
  508TIP3    H1 1481   0.615   5.307   4.938  2.6852  3.2671 -1.4588
  508TIP3    H2 1482   0.561   5.258   4.806 -0.8028  1.1138  0.6253
  509TIP3   OH2 1483   5.156   3.820   4.656 -0.0494 -0.2954  0.3096
  509TIP3    H1 1484   5.190   3.791   4.571 -1.4176 -0.6318 -0.1470
  509TIP3    H2 1485   5.130   3.739   4.699 -0.9006  0.0063  0.3642
  510TIP3   OH2 1486   4.981   5.088   0.084  0.3635  0.6072 -0.0182
  510TIP3    H1 1487   5.006   5.174   0.051 -0.6464  1.3890  1.2077
  510TIP3    H2 1488   4.886   5.091   0.091  0.4783  0.3655  2.5494
  511TIP3   OH2 1489   6.353   1.530   6.139  0.2270 -0.4605  0.3550
  511TIP3    H1 1490   6.312   1.605   6.095  1.7746  1.1405  1.4682
  511TIP3    H2 1491   6.390   1.477   6.068 -1.7283 -0.7202 -0.5097
  512TIP3   OH2 1492   6.946   3.334   4.768 -0.1123 -0.0108  0.4432
  512TIP3    H1 1493   6.994   3.299   4.844  0.7205  0.3603  0.0962
  512TIP3    H2 1494   6.917   3.421   4.796  1.0951  0.5510 -0.0201
  513TIP3   OH2 1495   8.283   1.761   4.585  0.5965  0.2181 -0.0755
  513TIP3    H1 1496   8.343   1.708   4.532  0.9056  1.5111 -1.0668
  513TIP3    H2 1497   8.214   1.786   4.523  0.5464  1.0987  0.3294
  514TIP3   OH2 1498   6.647   4.147   5.545  0.7135 -0.1800  0.2404
  514TIP3    H1 1499   6.690   4.064   5.565  1.3955  0.1667  0.2436
  514TIP3    H2 1500   6.610   4.134   5.458  2.1273  0.0053 -0.4214
  515TIP3   OH2 1501   2.313   5.848   4.586  0.0976  0.4506  0.0601
  515TIP3    H1 1502   2.363   5.893   4.518  0.4825 -0.1238 -0.0484
  515TIP3    H2 1503   2.340   5.889   4.668 -0.0257  0.8364 -0.0923
  516TIP3   OH2 1504   7.236   2.089   3.118  0.6079 -0.1154  0.6673
  516TIP3    H1 1505   7.200   2.020   3.062  1.4395  1.3637 -1.8329
  516TIP3    H2 1506   7.266   2.043   3.196 -0.4016 -2.3218 -0.1563
  517TIP3   OH2 1507   4.596   4.100   3.815 -0.0815  0.7394 -0.7851
  517TIP3    H1 1508   4.670   4.117   3.873  0.3206  0.3774 -1.1943
  517TIP3    H2 1509   4.549   4.184   3.811 -0.8533  0.4415  1.0808
  518TIP3   OH2 1510   6.630   2.197   5.507  0.1145  0.2956  0.7066
  518TIP3    H1 1511   6.594   2.227   5.423  0.0597 -1.1301  0.1922
  518TIP3    H2 1512   6.675   2.115   5.486 -0.1602 -0.2489  2.1239
  519TIP3   OH2 1513   3.842   1.399   6.618 -0.2170 -0.1459 -0.1407
  519TIP3    H1 1514   3.829   1.404   6.713  0.3331 -0.4916 -0.0455
  519TIP3    H2 1515   3.924   1.445   6.602 -0.5165  0.2762 -0.5050
  520TIP3   OH2 1516   7.254   6.744   1.077  0.3844  0.0259 -0.4371
  520TIP3    H1 1517   7.207   6.827   1.088  1.0897  0.3609  0.1005
  520TIP3    H2 1518   7.297   6.730   1.162  1.3918 -0.1838 -0.9700
  521TIP3   OH2 1519   5.081   3.506   6.661 -0.2594 -0.6429  0.1756
  521TIP3    H1 1520   5.144   3.540   6.597 -1.3482 -0.0549 -0.6180
  521TIP3    H2 1521   4.995   3.526   6.623 -0.9315 -1.0937  1.4039
  522TIP3   OH2 1522   7.471   0.707   0.141 -0.4009  0.5035 -0.0276
  522TIP3    H1 1523   7.408   0.635   0.140  1.4752 -1.3692  2.2392
  522TIP3    H2 1524   7.419   0.785   0.126 -2.9295 -1.1168 -0.2607
  523TIP3   OH2 1525   4.600   2.467   1.162  0.0656 -0.6892 -0.0505
  523TIP3    H1 1526   4.621   2.374   1.174 -0.5660 -0.7520  0.6140
  523TIP3    H2 1527   4.648   2.512   1.232  1.4670 -0.3445 -1.1825
  524TIP3   OH2 1528   2.034   5.694   3.740  0.0965  0.0820  0.8575
  524TIP3    H1 1529   2.116   5.711   3.693 -0.7864 -1.8403 -1.6444
  524TIP3    H2 1530   1.971   5.754   3.701 -0.2022 -0.0886  1.0719
  525TIP3   OH2 1531   4.568   3.954   1.053  0.1509 -0.5442  0.4941
  525TIP3    H1 1532   4.529   3.871   1.026 -0.1819 -0.6675  1.3203
  525TIP3    H2 1533   4.527   3.973   1.137 -0.9643  1.2763 -0.4078
  526TIP3   OH2 1534   0.154   7.010   3.160  0.2751  0.0531  0.7696
  526TIP3    H1 1535   0.118   7.024   3.073 -1.6893 -1.7149  1.2158
  526TIP3    H2 1536   0.185   6.919   3.159 -0.4210 -0.2229  2.0895
  527TIP3   OH2 1537   5.968   3.550   6.268 -0.5125 -0.2986 -0.0685
  527TIP3    H1 1538   5.936   3.534   6.179  0.2972  0.4392 -0.5066
  527TIP3    H2 1539   6.062   3.567   6.257 -0.8233  2.3010  0.5910
  528TIP3   OH2 1540   1.644   4.910   6.467 -0.4870  0.6302 -0.8529
  528TIP3    H1 1541   1.662   4.838   6.406 -1.0349  0.3993 -0.7459
  528TIP3    H2 1542   1.580   4.964   6.422 -0.6825  0.6118 -0.5981
  529TIP3   OH2 1543   8.027   4.276   0.837 -0.7243  0.1708  0.1049
  529TIP3    H1 1544   8.058   4.284   0.927 -1.6953 -1.2818  0.5996
  529TIP3    H2 1545   7.932   4.279   0.844 -0.8804 -1.5718 -0.6516
  530TIP3   OH2 1546   6.081   3.365   5.658 -0.5702 -0.2022 -0.6653
  530TIP3    H1 1547   6.046   3.439   5.708 -0.1906  0.9942 -2.1164
  530TIP3    H2 1548   6.139   3.405   5.594 -0.7484 -1.7204 -1.8095
  531TIP3   OH2 1549   3.392   2.854   2.724  0.3741 -0.1194  0.2172
  531TIP3    H1 1550   3.322   2.807   2.678  1.3155 -1.6925  0.3152
  531TIP3    H2 1551   3.429   2.912   2.657  0.8999 -1.4662 -0.7258
  532TIP3   OH2 1552   3.516   0.694   1.805  0.3853  0.2330  0.1859
  532TIP3    H1 1553   3.523   0.604   1.774  1.0264  0.2667  0.2250
  532TIP3    H2 1554   3.422   0.709   1.814  0.1460  0.2690 -1.8825
  533TIP3   OH2 1555   0.410   5.833   6.315 -0.0593 -0.0314  0.8581
  533TIP3    H1 1556   0.382   5.883   6.391 -0.2979 -0.4723  1.0580
  533TIP3    H2 1557   0.354   5.755   6.314  0.4431 -0.3976  0.6621
  534TIP3   OH2 1558   5.564   0.348   1.827 -0.2822 -0.0836 -0.4108
  534TIP3    H1 1559   5.610   0.347   1.911 -0.3716  0.3178 -0.3527
  534TIP3    H2 1560   5.622   0.302   1.767  1.2790  2.3303 -0.8845
  535TIP3   OH2 1561   8.015   4.076   3.318 -0.7565  0.4683  0.2269
  535TIP3    H1 1562   8.062   4.155   3.345 -0.5994 -0.2188  2.0905
  535TIP3    H2 1563   7.978   4.098   3.232  0.3186  2.1177  0.1490
  536TIP3   OH2 1564   3.356   7.674   4.208 -0.0488 -0.5712  0.5036
  536TIP3    H1 1565   3.450   7.685   4.223  0.1340 -0.4815 -0.6414
  536TIP3    H2 1566   3.318   7.757   4.238  0.5898  0.6321 -1.7571
  537TIP3   OH2 1567   1.758   5.868   1.016  0.0364  0.4162  0.1921
  537TIP3    H1 1568   1.682   5.810   1.020  0.1055  0.3219  0.1355
  537TIP3    H2 1569   1.721   5.953   0.991 -0.0726  0.4118  0.3373
  538TIP3   OH2 1570   6.152   6.576   4.846 -0.1305  0.2240 -0.1230
  538TIP3    H1 1571   6.230   6.627   4.867 -0.6183  0.0864  2.2851
  538TIP3    H2 1572   6.180   6.518   4.775  1.6815  0.8032  0.0569
  539TIP3   OH2 1573   6.021   4.546   4.004 -0.0323 -0.0592 -0.0742
  539TIP3    H1 1574   5.941   4.526   3.955 -0.8811 -0.4896  1.4401
  539TIP3    H2 1575   6.092   4.519   3.945 -1.0353 -1.5120 -0.6774
  540TIP3   OH2 1576   2.475   0.522   1.394 -0.1664 -0.4371 -0.3005
  540TIP3    H1 1577   2.401   0.465   1.416 -1.3368  1.0710 -0.1729
  540TIP3    H2 1578   2.551   0.464   1.396 -0.9652 -1.5192  2.1497
  541TIP3   OH2 1579   2.955   6.778   4.116 -0.3994  0.3368 -0.0270
  541TIP3    H1 1580   2.960   6.752   4.208  0.9447  1.1486  0.1499
  541TIP3    H2 1581   3.011   6.855   4.109 -0.8755  0.5946 -1.4330
  542TIP3   OH2 1582   3.374   3.412   0.495 -0.0916  0.0883 -0.0270
  542TIP3    H1 1583   3.409   3.441   0.579 -0.1628 -0.6212  0.2564
  542TIP3    H2 1584   3.382   3.316   0.498 -0.6348  0.0225 -0.5884
  543TIP3   OH2 1585   0.802   5.268   2.349  0.7137 -0.1755  0.5309
  543TIP3    H1 1586   0.850   5.264   2.267 -0.7408  0.9294 -0.4227
  543TIP3    H2 1587   0.732   5.203   2.339  0.6610 -0.1911  0.9839
  544TIP3   OH2 1588   6.997   6.171   3.084  0.5656 -0.0892 -0.1312
  544TIP3    H1 1589   6.913   6.134   3.059 -0.1371 -0.2991  2.3018
  544TIP3    H2 1590   6.998   6.258   3.044 -0.6982 -0.1691 -0.3779
  545TIP3   OH2 1591   5.297   2.964   2.182  0.4309  0.5159 -0.1359
  545TIP3    H1 1592   5.254   3.024   2.121 -0.0685  1.5465  1.1928
  545TIP3    H2 1593   5.230   2.900   2.205 -0.0816  1.4617  1.0650
  546TIP3   OH2 1594   5.296   5.796   3.874 -0.5395  0.0099  0.1867
  546TIP3    H1 1595   5.360   5.866   3.864 -0.2454 -0.3680 -0.7170
  546TIP3    H2 1596   5.346   5.724   3.914 -0.1628 -0.5673 -1.2571
  547TIP3   OH2 1597   1.940   4.291   4.647  0.1758  0.2186 -0.0446
  547TIP3    H1 1598   1.847   4.306   4.663  0.5050  1.3460  1.0075
  547TIP3    H2 1599   1.943   4.209   4.598 -1.3275 -0.2031  0.5003
  548TIP3   OH2 1600   2.446   2.119   2.903 -0.4799  0.3126 -0.1476
  548TIP3    H1 1601   2.406   2.127   2.816 -0.3296  0.4603 -0.2041
  548TIP3    H2 1602   2.473   2.027   2.908 -1.0519  0.1446 -0.0061
  549TIP3   OH2 1603   7.940   5.709   3.332 -0.6398 -0.3785 -0.3679
  549TIP3    H1 1604   8.031   5.739   3.331 -0.1934 -1.6984 -1.0205
  549TIP3    H2 1605   7.891   5.783   3.369  0.6897  0.3390  0.0189
  550TIP3   OH2 1606   3.603   1.822   0.580  0.0327  0.3597  0.1183
  550TIP3    H1 1607   3.613   1.813   0.674 -0.2278  0.3143  0.1437
  550TIP3    H2 1608   3.650   1.748   0.543  0.8578  0.8446  0.1734
  551TIP3   OH2 1609   8.224   3.765   0.749  0.1432  0.3951  0.2000
  551TIP3    H1 1610   8.296   3.706   0.727  0.3395  1.3865 -2.0666
  551TIP3    H2 1611   8.151   3.706   0.769  0.7415 -0.6519 -0.5676
  552TIP3   OH2 1612   0.411   5.134   4.116  0.0066 -0.2438  0.2529
  552TIP3    H1 1613   0.340   5.180   4.161 -0.4526 -0.6474 -0.0551
  552TIP3    H2 1614   0.367   5.071   4.059  0.5807  0.2089 -0.7162
  553TIP3   OH2 1615   3.828   2.862   2.781 -0.1841  0.1185  0.6010
  553TIP3    H1 1616   3.822   2.953   2.750  0.4480  0.4394  1.3859
  553TIP3    H2 1617   3.765   2.857   2.853  0.6996  0.3081  1.4024
  554TIP3   OH2 1618   6.042   1.410   6.076 -0.3511  0.1649  0.3541
  554TIP3    H1 1619   6.110   1.458   6.123  0.0769 -1.2266  1.2383
  554TIP3    H2 1620   6.063   1.318   6.092 -1.8457 -0.3076 -0.2329
  555TIP3   OH2 1621   5.871   5.984   4.814  0.3333 -0.1841 -0.3780
  555TIP3    H1 1622   5.946   5.957   4.761  0.4466 -0.5568 -0.0351
  555TIP3    H2 1623   5.825   5.902   4.832  0.8994 -0.2192  1.0200
  556TIP3   OH2 1624   6.572   0.705   1.379  0.3666  0.1898  0.2077
  556TIP3    H1 1625   6.575   0.781   1.438  0.9963  0.0371  0.3823
  556TIP3    H2 1626   6.539   0.740   1.297  1.2785  0.8067  0.0849
  557TIP3   OH2 1627   1.774   7.254   5.361 -0.0733 -0.3044  0.4491
  557TIP3    H1 1628   1.788   7.160   5.370  0.6242 -0.2449  0.0443
  557TIP3    H2 1629   1.785   7.289   5.449  0.2356 -0.5278  0.4989
  558TIP3   OH2 1630   2.300   3.152   1.675  0.8452  0.0609 -0.0307
  558TIP3    H1 1631   2.342   3.151   1.761 -1.9417 -0.3749  1.4382
  558TIP3    H2 1632   2.266   3.241   1.666  2.3826  0.5718 -1.4374
  559TIP3   OH2 1633   6.392   0.303   3.271 -0.2623  0.2395 -0.7516
  559TIP3    H1 1634   6.427   0.271   3.188 -1.5100  0.1996 -1.2863
  559TIP3    H2 1635   6.326   0.239   3.295  0.6278 -0.1779  0.7067
  560TIP3   OH2 1636   7.164   3.337   1.665 -0.8119 -0.1909  0.7213
  560TIP3    H1 1637   7.094   3.280   1.632  0.6142 -1.4626 -0.2516
  560TIP3    H2 1638   7.197   3.291   1.743 -2.6653  1.6792  2.7593
  561TIP3   OH2 1639   3.680   5.605   6.735 -0.2863  0.2207 -0.2394
  561TIP3    H1 1640   3.769   5.596   6.702 -0.2367  0.9454 -0.3188
  561TIP3    H2 1641   3.625   5.608   6.657 -0.2787  0.7996 -0.2248
  562TIP3   OH2 1642   1.623   7.775   0.619  0.0186 -0.0889  0.4223
  562TIP3    H1 1643   1.712   7.749   0.596  0.1769  1.3533 -0.7189
  562TIP3    H2 1644   1.593   7.828   0.545 -1.7440 -0.4221  0.8543
  563TIP3   OH2 1645   2.338   1.008   6.248 -0.2593  0.5969 -0.1847
  563TIP3    H1 1646   2.349   0.955   6.327 -0.9070 -0.6960 -0.9321
  563TIP3    H2 1647   2.247   0.992   6.221 -0.7006  2.6329 -0.0696
  564TIP3   OH2 1648   8.123   0.056   0.676 -0.2289  0.0177 -0.6307
  564TIP3    H1 1649   8.070   0.081   0.752 -1.2016 -1.1156 -0.9215
  564TIP3    H2 1650   8.062   0.011   0.618  0.9513 -0.8864 -1.1945
  565TIP3   OH2 1651   6.652   1.659   6.232  0.1426  0.4486 -0.7164
  565TIP3    H1 1652   6.675   1.581   6.183  2.6102  0.3815  0.4022
  565TIP3    H2 1653   6.606   1.715   6.169  0.8566 -0.7230 -2.3268
  566TIP3   OH2 1654   0.198   1.456   4.368  0.0029 -0.1065  0.1881
  566TIP3    H1 1655   0.114   1.411   4.378 -0.5963  0.5055 -1.7431
  566TIP3    H2 1656   0.186   1.539   4.414 -0.1077 -0.4115  0.7221
  567TIP3   OH2 1657   6.962   6.473   1.303 -0.0406  0.4880  0.3079
  567TIP3    H1 1658   6.887   6.495   1.249  0.5064 -0.0683 -0.7080
  567TIP3    H2 1659   6.941   6.509   1.389 -1.2433  0.7678 -0.0835
  568TIP3   OH2 1660   2.472   6.131   0.193 -0.0228  0.3002  0.4059
  568TIP3    H1 1661   2.434   6.047   0.217  1.5798 -1.5097 -2.7481
  568TIP3    H2 1662   2.479   6.179   0.276 -3.3149 -1.5952  1.9576
  569TIP3   OH2 1663   6.282   7.763   3.519  0.1241 -0.3037 -0.0933
  569TIP3    H1 1664   6.279   7.752   3.614  0.2922  1.7181  0.2073
  569TIP3    H2 1665   6.192   7.779   3.494  0.2000  0.1356 -0.1049
  570TIP3   OH2 1666   2.558   0.034   1.977 -0.2120 -0.5791 -0.4060
  570TIP3    H1 1667   2.550  -0.060   1.959  2.9475 -0.7495 -1.5776
  570TIP3    H2 1668   2.585   0.039   2.069  0.2017 -0.8854 -0.5059
  571TIP3   OH2 1669   3.031   7.767   3.802 -0.0375  0.8634  0.3845
  571TIP3    H1 1670   2.985   7.702   3.855  0.6752 -0.4195 -0.5208
  571TIP3    H2 1671   3.061   7.832   3.865  0.1066 -0.2097  1.4574
  572TIP3   OH2 1672   5.640   0.205   3.271  0.1751  0.0843  0.0829
  572TIP3    H1 1673   5.722   0.188   3.317  0.7361 -0.3014 -1.0111
  572TIP3    H2 1674   5.581   0.240   3.338  0.5963 -1.4577  1.3337
  573TIP3   OH2 1675   8.015   1.519   2.295  0.5817  0.4980 -0.4033
  573TIP3    H1 1676   7.930   1.531   2.255  0.0960 -0.8306  0.1799
  573TIP3    H2 1677   8.069   1.479   2.227  0.5446  0.7415 -0.5734
  574TIP3   OH2 1678   0.705   1.262   4.274 -0.2150  0.5486  0.3346
  574TIP3    H1 1679   0.702   1.315   4.194 -2.2762  0.2293  0.1482
  574TIP3    H2 1680   0.696   1.324   4.345 -0.8521  0.6175  0.1969
  575TIP3   OH2 1681   3.323   0.834   3.889  0.0553 -0.5202 -0.3258
  575TIP3    H1 1682   3.291   0.751   3.854 -0.8443  0.0166 -0.8225
  575TIP3    H2 1683   3.246   0.891   3.888  0.2765 -0.1393  1.4854
  576TIP3   OH2 1684   1.851   2.380   0.238 -0.0706  0.2208  0.5098
  576TIP3    H1 1685   1.900   2.421   0.309  1.5481 -0.7877  0.0174
  576TIP3    H2 1686   1.802   2.309   0.279 -1.5465  1.4859  1.0718
  577TIP3   OH2 1687   1.758   6.466   2.797  0.7303  0.4899 -0.0246
  577TIP3    H1 1688   1.667   6.435   2.789  0.6627  0.7413 -0.2521
  577TIP3    H2 1689   1.752   6.561   2.787  0.9582  0.5633  0.4994
  578TIP3   OH2 1690   5.945   5.053   4.200  0.0997  0.4187 -0.0596
  578TIP3    H1 1691   5.864   5.091   4.167  0.1654  0.5093 -0.1179
  578TIP3    H2 1692   5.952   4.969   4.155  0.8049  1.0557 -1.2229
  579TIP3   OH2 1693   1.897   3.847   5.756 -0.1991 -0.1491 -0.1815
  579TIP3    H1 1694   1.920   3.880   5.669  0.2001  0.4215  0.1325
  579TIP3    H2 1695   1.980   3.847   5.803 -0.2489 -1.2975 -0.0655
  580TIP3   OH2 1696   1.790   7.204   1.308 -0.2190  0.2262  0.3580
  580TIP3    H1 1697   1.795   7.204   1.404 -2.1774  0.6938  0.5118
  580TIP3    H2 1698   1.818   7.292   1.283 -0.1952  0.2714  0.5391
  581TIP3   OH2 1699   3.963   2.119   6.122  0.4546 -0.1735 -0.0551
  581TIP3    H1 1700   4.025   2.189   6.105 -0.4934  0.7465  0.1853
  581TIP3    H2 1701   3.942   2.084   6.035  0.8833 -0.1316 -0.1792
  582TIP3   OH2 1702   5.716   6.254   4.179 -0.1040  0.0729 -0.1166
  582TIP3    H1 1703   5.653   6.197   4.223 -0.7608 -1.2473 -2.5749
  582TIP3    H2 1704   5.684   6.343   4.196 -0.5760 -0.3838  1.5827
  583TIP3   OH2 1705   0.456   6.533   0.250 -0.2407  0.2877 -0.4824
  583TIP3    H1 1706   0.484   6.587   0.176  1.5795 -0.8806 -0.7288
  583TIP3    H2 1707   0.442   6.595   0.322  0.6736  1.1923 -1.0541
  584TIP3   OH2 1708   2.068   4.315   5.457 -0.2991  0.2778 -0.1297
  584TIP3    H1 1709   2.024   4.234   5.480  0.6384 -0.5432 -1.1325
  584TIP3    H2 1710   1.997   4.376   5.437 -1.0129 -0.8126 -1.0193
  585TIP3   OH2 1711   0.319   2.461   4.685  0.7937  0.2163  0.6209
  585TIP3    H1 1712   0.343   2.373   4.654  0.4442  0.0203  0.8979
  585TIP3    H2 1713   0.402   2.503   4.704  0.9554 -0.1717  0.7886
  586TIP3   OH2 1714   6.403   6.430   0.053 -0.2435 -0.2634  0.1551
  586TIP3    H1 1715   6.338   6.492   0.084 -2.7015 -2.0794 -0.9765
  586TIP3    H2 1716   6.411   6.366   0.124  0.5464  0.0832  0.3910
  587TIP3   OH2 1717   6.739   0.231   1.977 -1.0335  0.1587  0.3061
  587TIP3    H1 1718   6.677   0.194   1.914 -0.6642 -0.2117  0.1620
  587TIP3    H2 1719   6.825   0.217   1.939 -0.8005 -0.1279  0.9211
  588TIP3   OH2 1720   6.645   0.272   4.458  1.2143 -0.5726 -0.1749
  588TIP3    H1 1721   6.583   0.257   4.530 -0.3835 -0.9664 -1.5837
  588TIP3    H2 1722   6.637   0.366   4.439  0.8008 -0.6810 -0.5563
  589TIP3   OH2 1723   1.440   0.519   6.254 -0.4559 -0.1129  0.2256
  589TIP3    H1 1724   1.531   0.543   6.240  0.3712 -3.2420 -0.5626
  589TIP3    H2 1725   1.439   0.474   6.339 -1.0820 -0.7740 -0.1179
  590TIP3   OH2 1726   6.067   3.994   2.288 -0.4067 -0.0202 -0.1683
  590TIP3    H1 1727   5.973   3.988   2.275 -0.4799  0.6950 -0.0083
  590TIP3    H2 1728   6.080   4.076   2.335  0.4282  0.6712 -1.5523
  591TIP3   OH2 1729   4.698   3.319   4.170  0.3972  0.5329 -0.1029
  591TIP3    H1 1730   4.761   3.308   4.241 -0.4561 -0.5972  0.5051
  591TIP3    H2 1731   4.693   3.414   4.156  1.0057  0.7286  0.9395
  592TIP3   OH2 1732   7.466   6.843   5.874 -0.4291 -0.3013  0.8940
  592TIP3    H1 1733   7.525   6.892   5.932 -0.0834  0.3492  0.0193
  592TIP3    H2 1734   7.419   6.910   5.825 -1.0722 -0.8340  0.7662
  593TIP3   OH2 1735   2.185   1.081   2.414 -0.1397 -0.5128 -0.4021
  593TIP3    H1 1736   2.118   1.093   2.346  0.6596 -0.3997 -1.1833
  593TIP3    H2 1737   2.249   1.021   2.375  1.9812  1.9625 -1.0162
  594TIP3   OH2 1738   4.007   3.608   6.669 -0.2493 -0.3196  0.5083
  594TIP3    H1 1739   3.936   3.651   6.718 -1.3918 -0.1312 -1.2245
  594TIP3    H2 1740   4.017   3.523   6.712 -3.1589 -1.3147 -0.5322
  595TIP3   OH2 1741   8.193   0.290   1.007  0.3920 -0.1106 -0.1367
  595TIP3    H1 1742   8.148   0.373   0.988 -2.7824 -1.7280 -0.3350
  595TIP3    H2 1743   8.201   0.289   1.102 -0.7869 -0.1295 -0.0228
  596TIP3   OH2 1744   4.629   2.298   6.045  0.2258  0.6198  0.0857
  596TIP3    H1 1745   4.591   2.214   6.071 -0.4844  1.1420  0.7896
  596TIP3    H2 1746   4.688   2.321   6.117 -0.4077  1.2293  0.4287
  597TIP3   OH2 1747   5.677   1.360   0.955  0.0318  0.1740 -0.3551
  597TIP3    H1 1748   5.724   1.336   1.034  1.2805 -0.3033 -1.2093
  597TIP3    H2 1749   5.597   1.308   0.958 -0.4678  0.9825  1.1117
  598TIP3   OH2 1750   7.267   7.189   4.189 -0.4768  0.1351 -0.0102
  598TIP3    H1 1751   7.324   7.123   4.229 -0.1073  0.1991 -0.4178
  598TIP3    H2 1752   7.208   7.217   4.259 -1.7887 -1.8728 -0.2134
  599TIP3   OH2 1753   1.739   5.613   6.328 -0.6815  0.2822 -0.7642
  599TIP3    H1 1754   1.774   5.622   6.239  0.9434  0.3812 -0.1373
  599TIP3    H2 1755   1.815   5.622   6.385 -1.9799  2.6074  0.7837
  600TIP3   OH2 1756   6.406   1.903   6.470  0.1315  0.0298  0.0372
  600TIP3    H1 1757   6.363   1.875   6.389  0.4542  2.2438 -0.9755
  600TIP3    H2 1758   6.469   1.833   6.488 -1.0699 -1.3061 -0.6747
  601TIP3   OH2 1759   4.688   0.027   3.208  0.0825  0.0053 -0.3586
  601TIP3    H1 1760   4.651   0.033   3.120  0.0972 -1.1058 -0.4659
  601TIP3    H2 1761   4.647  -0.052   3.245  2.1724 -1.1745 -0.4119
  602TIP3   OH2 1762   1.255   0.669   5.275 -0.6782 -0.1515  0.0945
  602TIP3    H1 1763   1.309   0.685   5.198 -1.7426  1.6820 -0.3220
  602TIP3    H2 1764   1.317   0.643   5.343  0.3961 -0.7423 -1.0725
  603TIP3   OH2 1765   0.746   6.587   2.533  0.0190  0.3689  0.8024
  603TIP3    H1 1766   0.650   6.589   2.541 -0.0028 -0.5988  0.9170
  603TIP3    H2 1767   0.762   6.573   2.440 -0.0192 -1.3578  1.0078
  604TIP3   OH2 1768   6.187   6.459   3.501  0.7807 -0.4121 -0.6119
  604TIP3    H1 1769   6.180   6.523   3.430 -2.2517  0.3232  0.2017
  604TIP3    H2 1770   6.237   6.504   3.569 -0.5917  0.8571 -0.3803
  605TIP3   OH2 1771   3.556   4.041   0.185 -0.4234 -0.7948 -0.2136
  605TIP3    H1 1772   3.535   3.948   0.181 -2.0641 -0.4770  0.2294
  605TIP3    H2 1773   3.538   4.066   0.276  0.2100 -0.0876 -0.2693
  606TIP3   OH2 1774   8.258   6.438   1.820 -0.4931  0.5030 -0.1703
  606TIP3    H1 1775   8.230   6.521   1.859  0.2253  0.6874 -0.0383
  606TIP3    H2 1776   8.303   6.463   1.740 -0.1126  0.2484 -0.0377
  607TIP3   OH2 1777   0.741   2.806   5.395  0.0491  0.2292 -0.3292
  607TIP3    H1 1778   0.798   2.737   5.359 -1.2440 -1.3254  0.4675
  607TIP3    H2 1779   0.766   2.885   5.347  0.9253 -0.9847 -1.9781
  608TIP3   OH2 1780   4.876   1.314   0.580 -0.4226 -0.3700 -0.2749
  608TIP3    H1 1781   4.866   1.404   0.551 -1.5579 -1.1594 -2.5574
  608TIP3    H2 1782   4.831   1.312   0.665  0.6461  1.4203  0.3987
  609TIP3   OH2 1783   2.064   0.170   3.560 -0.3552 -0.4400 -0.0240
  609TIP3    H1 1784   2.046   0.081   3.589  0.1317 -0.7232 -0.5912
  609TIP3    H2 1785   1.981   0.201   3.523 -0.9396 -0.1437  1.4504
  610TIP3   OH2 1786   1.526   0.640   1.968 -0.5567 -0.4705  0.6801
  610TIP3    H1 1787   1.577   0.655   2.048  1.6907 -0.0818 -0.7299
  610TIP3    H2 1788   1.509   0.546   1.968 -0.3799 -0.5154  1.5017
  611TIP3   OH2 1789   1.292   1.958   2.960  0.4080 -0.0329  0.0354
  611TIP3    H1 1790   1.214   1.909   2.933 -2.0807  2.6169  1.8033
  611TIP3    H2 1791   1.314   2.011   2.884 -0.0963 -0.1176 -0.1779
  612TIP3   OH2 1792   3.286   1.239   1.028 -0.1042  0.3980 -0.5530
  612TIP3    H1 1793   3.303   1.306   0.961  0.3475 -0.7777 -1.6596
  612TIP3    H2 1794   3.196   1.257   1.056 -0.5227  0.5888 -1.9066
  613TIP3   OH2 1795   4.534   0.152   2.735 -0.4494  0.6176 -0.5578
  613TIP3    H1 1796   4.597   0.199   2.680 -1.0037  1.6888 -0.2916
  613TIP3    H2 1797   4.487   0.095   2.674  1.3688 -0.8998 -0.6324
  614TIP3   OH2 1798   1.247   2.212   4.201 -0.0180  0.2706 -0.0424
  614TIP3    H1 1799   1.335   2.178   4.185 -0.0575  0.5274 -0.8560
  614TIP3    H2 1800   1.251   2.303   4.174 -0.4160  0.4062  0.3464
  615TIP3   OH2 1801   7.276   6.991   1.357 -0.0873 -0.0100  0.5024
  615TIP3    H1 1802   7.237   6.916   1.403 -1.1857 -0.0276 -0.4348
  615TIP3    H2 1803   7.203   7.052   1.344  0.5577  0.7150  0.2249
  616TIP3   OH2 1804   1.566   1.727   2.672  0.6137  0.1059 -0.2760
  616TIP3    H1 1805   1.565   1.660   2.604  2.1843  0.7154 -0.9508
  616TIP3    H2 1806   1.478   1.764   2.670  0.0302 -1.2240 -0.5904
  617TIP3   OH2 1807   6.329   3.320   3.350  0.1726 -1.0252  0.3986
  617TIP3    H1 1808   6.266   3.289   3.286 -1.0246  0.7552  0.6260
  617TIP3    H2 1809   6.292   3.295   3.435  0.7680 -1.6752  0.4713
  618TIP3   OH2 1810   5.546   6.373   4.477 -0.2805 -0.5268  0.1936
  618TIP3    H1 1811   5.552   6.465   4.503 -0.0424 -0.7280  0.8657
  618TIP3    H2 1812   5.570   6.324   4.555 -0.3548 -1.1647 -0.1741
  619TIP3   OH2 1813   2.045   2.190   6.260 -0.6147 -0.1924 -0.6150
  619TIP3    H1 1814   2.092   2.175   6.342  2.2436  0.0669 -2.1070
  619TIP3    H2 1815   2.069   2.279   6.235  0.7739 -1.1461 -3.0098
  620TIP3   OH2 1816   4.636   0.255   4.430  0.7606  0.5742 -0.1818
  620TIP3    H1 1817   4.580   0.233   4.356 -0.0836  1.0255  0.3134
  620TIP3    H2 1818   4.596   0.333   4.469  0.0131 -0.7520  1.9366
  621TIP3   OH2 1819   6.693   2.239   5.781 -0.2809  1.0948 -0.2730
  621TIP3    H1 1820   6.670   2.222   5.690 -0.4212  1.2464 -0.2655
  621TIP3    H2 1821   6.783   2.207   5.789 -0.1770  1.3147 -0.5301
  622TIP3   OH2 1822   2.770   1.111   3.299  0.1461 -0.5007 -0.1284
  622TIP3    H1 1823   2.705   1.165   3.255 -0.1931 -0.3530  0.5498
  622TIP3    H2 1824   2.726   1.028   3.315 -0.3259  0.0180  1.4709
  623TIP3   OH2 1825   1.085   1.928   5.449 -0.2964 -0.2266 -0.2757
  623TIP3    H1 1826   1.154   1.864   5.466 -0.3089 -0.2828 -0.4340
  623TIP3    H2 1827   1.094   1.948   5.356  1.2297  1.7441  0.2230
  624TIP3   OH2 1828   1.891   7.297   0.407  0.4746  0.6723  0.7100
  624TIP3    H1 1829   1.979   7.320   0.436  0.3499  1.7183  0.2745
  624TIP3    H2 1830   1.858   7.376   0.364 -0.7613  0.3675  1.0695
  625TIP3   OH2 1831   5.272   2.978   6.119 -0.7415  0.2450 -0.1019
  625TIP3    H1 1832   5.180   2.954   6.129  0.1631 -3.1199  1.5031
  625TIP3    H2 1833   5.321   2.903   6.152  2.6510  1.3068 -2.1423
  626TIP3   OH2 1834   4.385   4.297   1.765 -0.0334 -0.4045 -0.1176
  626TIP3    H1 1835   4.397   4.280   1.858  0.7840 -0.3155 -0.2059
  626TIP3    H2 1836   4.290   4.310   1.756 -0.5628 -3.3955  0.2056
  627TIP3   OH2 1837   8.087   2.809   0.520  0.5203  0.2376 -0.1912
  627TIP3    H1 1838   8.174   2.797   0.559  0.8839  0.0685 -1.0236
  627TIP3    H2 1839   8.026   2.786   0.590  1.1546 -1.4925 -0.1567
  628TIP3   OH2 1840   8.250   4.602   0.382 -0.0540  0.1195  0.4250
  628TIP3    H1 1841   8.186   4.565   0.442  1.5934 -2.4066  0.7896
  628TIP3    H2 1842   8.220   4.575   0.295  0.1134 -0.4660  0.5423
  629TIP3   OH2 1843   0.717   3.480   4.566  1.3304 -0.6960 -0.0684
  629TIP3    H1 1844   0.789   3.541   4.546  0.4179 -0.3028 -2.6151
  629TIP3    H2 1845   0.759   3.394   4.569  2.6206 -0.1236  3.4325
  630TIP3   OH2 1846   5.041   2.182   3.462 -0.4266  0.1826 -0.4891
  630TIP3    H1 1847   5.011   2.096   3.494  0.7747  0.8970  3.0166
  630TIP3    H2 1848   5.121   2.162   3.412 -0.1908 -0.7841  0.2345
  631TIP3   OH2 1849   6.033   3.851   1.241  0.0427  0.6613  0.4103
  631TIP3    H1 1850   5.962   3.790   1.218 -0.9405  0.7179  2.9319
  631TIP3    H2 1851   6.110   3.796   1.250 -0.6615 -0.1296  1.8688
  632TIP3   OH2 1852   2.550   3.784   0.352 -0.2385 -0.0709  0.4167
  632TIP3    H1 1853   2.570   3.789   0.446 -1.2415 -0.8879  0.6957
  632TIP3    H2 1854   2.614   3.841   0.311 -0.3546  1.0105  1.6782
  633TIP3   OH2 1855   1.143   4.725   0.970  0.1765 -0.0803  0.2419
  633TIP3    H1 1856   1.148   4.741   0.876 -2.2185  1.4313  0.2866
  633TIP3    H2 1857   1.202   4.790   1.009 -1.2106  1.4621 -0.1206
  634TIP3   OH2 1858   0.036   4.770   6.164  0.0398  0.4054  0.2281
  634TIP3    H1 1859   0.000   4.832   6.101  0.0592  0.0466 -0.1376
  634TIP3    H2 1860   0.130   4.768   6.146 -0.0295 -0.0995 -0.0892
  635TIP3   OH2 1861   7.988   5.880   4.786 -0.0845  0.1333 -0.5575
  635TIP3    H1 1862   7.952   5.920   4.865  0.3755  0.6677 -0.6156
  635TIP3    H2 1863   8.002   5.788   4.811 -0.3647  0.1909 -0.1637
  636TIP3   OH2 1864   2.107   3.715   3.267  0.0922 -0.3783  0.3039
  636TIP3    H1 1865   2.200   3.693   3.276 -0.0839 -1.7875 -1.0056
  636TIP3    H2 1866   2.065   3.634   3.238 -2.0635 -0.6577  3.5853
  637TIP3   OH2 1867   3.600   5.753   3.391 -0.6524  0.0525 -0.2996
  637TIP3    H1 1868   3.631   5.826   3.338 -0.3301  0.0100 -0.1733
  637TIP3    H2 1869   3.516   5.729   3.353 -1.0126  0.8321 -0.0195
  638TIP3   OH2 1870   1.573   1.386   6.704 -0.0797 -0.3562 -0.2005
  638TIP3    H1 1871   1.551   1.295   6.722  0.3075 -0.3484  0.3318
  638TIP3    H2 1872   1.591   1.389   6.610 -2.1583 -0.3970 -0.6499
  639TIP3   OH2 1873   3.426   2.046   6.523 -0.1433 -0.2521 -0.1444
  639TIP3    H1 1874   3.495   2.112   6.513  0.1911 -0.0233  2.7756
  639TIP3    H2 1875   3.354   2.078   6.470  0.7805  1.3562 -0.4870
  640TIP3   OH2 1876   7.275   4.074   6.756 -0.3334 -0.1296  0.2967
  640TIP3    H1 1877   7.321   4.153   6.727 -1.1961 -0.0054 -0.8178
  640TIP3    H2 1878   7.224   4.047   6.679 -0.1903 -1.6726  0.7058
  641TIP3   OH2 1879   5.632   4.265   3.596  0.2363 -0.1373  0.6113
  641TIP3    H1 1880   5.652   4.182   3.553  0.1745  0.5944 -0.8962
  641TIP3    H2 1881   5.548   4.251   3.638  0.5594 -1.0538  0.9646
  642TIP3   OH2 1882   0.710   4.237   1.280 -0.1138  0.4321 -0.2814
  642TIP3    H1 1883   0.709   4.176   1.206 -0.4206  2.5197 -2.1007
  642TIP3    H2 1884   0.799   4.272   1.282 -0.5623  1.6804 -0.8422
  643TIP3   OH2 1885   1.627   7.166   5.864 -0.3945  0.3002 -0.0646
  643TIP3    H1 1886   1.631   7.129   5.952  0.7195  2.9479  1.0759
  643TIP3    H2 1887   1.629   7.089   5.807  2.7690 -1.4763  2.1110
  644TIP3   OH2 1888   7.041   6.529   2.488 -0.4972  1.0636  0.6773
  644TIP3    H1 1889   7.120   6.543   2.541 -0.9068 -1.6039  2.2076
  644TIP3    H2 1890   7.074   6.491   2.407 -0.1271  0.0461  1.2747
  645TIP3   OH2 1891   8.050   1.684   5.621  0.5417  0.1656 -0.1152
  645TIP3    H1 1892   8.100   1.615   5.663  0.6317 -0.7591 -1.6475
  645TIP3    H2 1893   8.113   1.728   5.564  0.3296  1.0849  0.3384
  646TIP3   OH2 1894   5.279   7.415   1.039  0.5310 -0.1819  0.3249
  646TIP3    H1 1895   5.184   7.404   1.039  0.5448 -0.4449 -0.8905
  646TIP3    H2 1896   5.292   7.508   1.017  0.5408 -0.8300 -2.9500
  647TIP3   OH2 1897   7.679   7.360   3.794  0.1625  0.0168 -0.2821
  647TIP3    H1 1898   7.716   7.447   3.777  0.3483 -0.1970 -1.0109
  647TIP3    H2 1899   7.585   7.374   3.805  0.2212  0.3335 -0.1854
  648TIP3   OH2 1900   2.800   7.448   4.596  0.1045  0.1381 -0.4551
  648TIP3    H1 1901   2.827   7.357   4.588  0.1225  0.1989 -1.0728
  648TIP3    H2 1902   2.758   7.469   4.513 -1.4178  0.1983  0.2927
  649TIP3   OH2 1903   1.132   5.250   0.695 -0.0716 -0.0245 -0.2630
  649TIP3    H1 1904   1.167   5.312   0.631 -0.1254  0.4331  0.1429
  649TIP3    H2 1905   1.209   5.217   0.741 -0.0626 -0.0878 -0.3223
  650TIP3   OH2 1906   6.194   1.850   2.085 -0.2727  0.3052  0.2743
  650TIP3    H1 1907   6.113   1.867   2.035  0.8518 -1.7155 -2.5441
  650TIP3    H2 1908   6.256   1.914   2.052 -0.0073  0.1537  0.4805
  651TIP3   OH2 1909   4.908   6.832   0.218  0.1265  0.3207  0.1960
  651TIP3    H1 1910   4.844   6.901   0.201  0.4638  0.5308 -0.2856
  651TIP3    H2 1911   4.869   6.753   0.181 -0.9032 -0.0727  2.0357
  652TIP3   OH2 1912   8.167   0.214   2.630 -0.2626  0.3193 -0.0357
  652TIP3    H1 1913   8.203   0.152   2.693  0.0256  0.6704  0.1476
  652TIP3    H2 1914   8.152   0.294   2.681 -0.2461  0.5298 -0.3595
  653TIP3   OH2 1915   3.107   1.250   3.495  0.0298  0.3584  0.3376
  653TIP3    H1 1916   3.121   1.342   3.521  1.0318  0.7471 -1.4254
  653TIP3    H2 1917   3.168   1.236   3.423 -1.6590 -1.0493 -0.8989
  654TIP3   OH2 1918   1.073   2.574   4.382 -0.8512 -0.7858  0.0342
  654TIP3    H1 1919   1.079   2.529   4.466 -0.0449 -1.8338 -0.5633
  654TIP3    H2 1920   1.160   2.567   4.344 -0.4172  2.0449  0.2442
  655TIP3   OH2 1921   6.687   5.432   4.345  0.5218 -0.5726 -0.0946
  655TIP3    H1 1922   6.716   5.462   4.431 -1.6000  0.1252  0.4546
  655TIP3    H2 1923   6.707   5.505   4.286  1.4228 -0.8027 -0.0827
  656TIP3   OH2 1924   5.978   7.649   2.192 -0.5560  0.1862 -0.1951
  656TIP3    H1 1925   6.027   7.663   2.111 -1.2172  0.9112 -0.4863
  656TIP3    H2 1926   5.908   7.714   2.189  0.7273  1.7851  2.0400
  657TIP3   OH2 1927   6.235   4.233   6.371  0.6869  0.3167 -0.1085
  657TIP3    H1 1928   6.177   4.158   6.356  0.5835  0.5516 -0.8983
  657TIP3    H2 1929   6.186   4.289   6.431  0.1868  0.4031 -0.5911
  658TIP3   OH2 1930   3.848   5.212   3.915 -0.0390 -0.1598 -0.1392
  658TIP3    H1 1931   3.790   5.163   3.973 -0.3454  0.9323  0.4924
  658TIP3    H2 1932   3.924   5.234   3.969 -0.2338  0.6870 -0.1954
  659TIP3   OH2 1933   3.402   0.551   5.744 -0.1912  0.9932  0.2275
  659TIP3    H1 1934   3.409   0.632   5.693  2.1438 -0.5410 -2.1678
  659TIP3    H2 1935   3.489   0.540   5.782  0.5585 -1.7873 -1.9704
  660TIP3   OH2 1936   1.479   1.697   5.356 -0.3758  0.1033 -0.0502
  660TIP3    H1 1937   1.461   1.610   5.320 -0.8709  0.4912 -0.7617
  660TIP3    H2 1938   1.574   1.701   5.362 -0.3361 -0.3915 -0.2458
  661TIP3   OH2 1939   6.431   0.789   1.658 -0.3470 -0.4316  0.0486
  661TIP3    H1 1940   6.433   0.724   1.728 -1.2668  0.6227  1.0901
  661TIP3    H2 1941   6.406   0.870   1.701 -0.2897  0.3950 -1.4081
  662TIP3   OH2 1942   6.842   1.038   2.327 -0.2647  0.2379 -0.0272
  662TIP3    H1 1943   6.831   0.972   2.260 -0.6898 -0.6412  0.8896
  662TIP3    H2 1944   6.914   1.093   2.295 -0.9187  0.2624 -1.5081
  663TIP3   OH2 1945   3.515   2.948   0.273  0.0882 -0.3900 -0.4132
  663TIP3    H1 1946   3.472   2.914   0.194  0.1544 -0.7183 -0.3125
  663TIP3    H2 1947   3.529   2.870   0.327  2.5327 -0.6280 -1.2527
  664TIP3   OH2 1948   1.448   4.521   2.520  0.7279  0.3566  0.0082
  664TIP3    H1 1949   1.443   4.459   2.592  0.2105 -0.1294 -0.4415
  664TIP3    H2 1950   1.520   4.580   2.544  1.0178 -0.2256  0.5805
  665TIP3   OH2 1951   5.657   3.007   5.516  0.2785 -0.1090 -0.0156
  665TIP3    H1 1952   5.660   2.924   5.564  0.1511 -0.1031  0.0017
  665TIP3    H2 1953   5.630   2.982   5.428 -0.8595  0.0469  0.2800
  666TIP3   OH2 1954   0.992   2.621   1.719  0.1877 -0.4638  0.1586
  666TIP3    H1 1955   0.923   2.571   1.764  0.6750  0.4862  2.0789
  666TIP3    H2 1956   1.071   2.568   1.731  0.5671  0.3640  1.5966
  667TIP3   OH2 1957   2.022   6.905   2.011  0.5686  0.4242  0.3847
  667TIP3    H1 1958   1.935   6.880   1.980  1.1050  0.1411 -0.9785
  667TIP3    H2 1959   2.014   6.998   2.032  0.3069  0.8011 -1.2476
  668TIP3   OH2 1960   4.244   6.985   6.596 -0.3104  0.0427 -0.5899
  668TIP3    H1 1961   4.210   7.046   6.662  0.0483  0.7495 -1.0411
  668TIP3    H2 1962   4.177   6.917   6.590 -0.4043  0.0341  0.4076
  669TIP3   OH2 1963   3.897   3.464   2.016  0.0666 -0.1649 -0.4710
  669TIP3    H1 1964   3.896   3.529   1.946  0.5337 -0.3620 -0.6653
  669TIP3    H2 1965   3.970   3.406   1.994 -0.6589 -1.0562 -0.5601
  670TIP3   OH2 1966   7.019   7.739   3.543  0.3237  0.3103  0.2619
  670TIP3    H1 1967   7.042   7.646   3.539  1.4886  0.4294  2.5444
  670TIP3    H2 1968   6.928   7.740   3.572 -0.7757 -0.0785 -2.8076
  671TIP3   OH2 1969   7.494   0.127   3.242 -0.2515  0.0627 -0.1736
  671TIP3    H1 1970   7.467   0.147   3.152 -0.9247 -0.5585 -0.1186
  671TIP3    H2 1971   7.411   0.123   3.291  0.1148  0.4865  0.4939
  672TIP3   OH2 1972   0.264   4.281   4.832 -0.0829 -0.5378 -0.0317
  672TIP3    H1 1973   0.357   4.297   4.847 -0.1236  0.1812 -0.5016
  672TIP3    H2 1974   0.222   4.305   4.914 -0.1090  1.5699 -0.6108
  673TIP3   OH2 1975   0.198   4.173   2.173  0.4379  0.5463  0.2436
  673TIP3    H1 1976   0.276   4.203   2.128  0.9542  0.0642  0.7922
  673TIP3    H2 1977   0.206   4.077   2.172 -0.3723  0.4723 -0.0868
  674TIP3   OH2 1978   6.920   7.168   4.199  0.0551 -0.1647 -0.1190
  674TIP3    H1 1979   6.850   7.165   4.264 -0.6435 -0.4650 -0.8753
  674TIP3    H2 1980   6.968   7.086   4.211  0.4095  0.1344  0.5366
  675TIP3   OH2 1981   3.714   1.397   6.371 -0.6748 -0.6314  0.0123
  675TIP3    H1 1982   3.762   1.408   6.453  0.4002  0.5264 -0.7263
  675TIP3    H2 1983   3.698   1.487   6.340 -2.3752 -1.0028 -0.3298
  676TIP3   OH2 1984   5.902   5.379   2.546  0.5924  0.4252 -0.0073
  676TIP3    H1 1985   5.821   5.430   2.555  0.5880  0.4956 -0.4213
  676TIP3    H2 1986   5.958   5.432   2.490 -0.0158 -0.7146 -1.8066
  677TIP3   OH2 1987   7.825   4.748   3.904 -0.0948  0.0571 -0.3348
  677TIP3    H1 1988   7.897   4.711   3.955 -0.8787 -0.0822  0.7108
  677TIP3    H2 1989   7.860   4.756   3.815  0.5004 -2.0680 -0.3514
  678TIP3   OH2 1990   5.815   4.874   4.423  0.1306  0.2093  0.2073
  678TIP3    H1 1991   5.813   4.928   4.502 -2.1708  0.1398  0.2550
  678TIP3    H2 1992   5.852   4.931   4.356  1.0392  0.6485  1.0512
  679TIP3   OH2 1993   1.222   1.327   4.661 -0.6525  0.5789  0.2237
  679TIP3    H1 1994   1.176   1.412   4.663 -1.8842 -0.0761  2.5751
  679TIP3    H2 1995   1.304   1.343   4.706 -0.3174  0.8094 -0.4602
  680TIP3   OH2 1996   1.252   1.530   2.297 -0.5699  0.7079 -0.7823
  680TIP3    H1 1997   1.342   1.499   2.291 -0.3724  1.0094  0.3988
  680TIP3    H2 1998   1.199   1.450   2.295 -0.1595  0.3799  0.5105
  681TIP3   OH2 1999   1.288   4.929   3.071 -0.1977 -0.0919 -0.4618
  681TIP3    H1 2000   1.263   4.960   3.158 -2.2810 -0.0083 -1.0374
  681TIP3    H2 2001   1.254   4.840   3.066  0.2921 -0.2546 -1.0309
  682TIP3   OH2 2002   5.892   3.506   0.055  0.2219  0.4887 -0.0856
  682TIP3    H1 2003   5.952   3.435   0.077  0.6621  0.8920  0.0308
  682TIP3    H2 2004   5.935   3.552  -0.017  0.2273  0.9946  0.2340
  683TIP3   OH2 2005   1.798   3.827   0.236  0.0114  0.0831  0.1662
  683TIP3    H1 2006   1.763   3.817   0.147  0.2130  0.2404  0.0681
  683TIP3    H2 2007   1.738   3.888   0.279 -0.8941 -1.0664  0.5853
  684TIP3   OH2 2008   0.655   4.609   1.216  0.3831  0.1743  0.1168
  684TIP3    H1 2009   0.661   4.583   1.308 -0.0221  0.4632  0.2286
  684TIP3    H2 2010   0.627   4.700   1.219  2.0044  0.7134 -0.2757
  685TIP3   OH2 2011   2.829   0.933   4.856  0.1348  0.3576 -0.2945
  685TIP3    H1 2012   2.893   0.966   4.794  1.5170  1.9698  1.8348
  685TIP3    H2 2013   2.881   0.907   4.933 -1.2642 -3.4324 -0.4101
  686TIP3   OH2 2014   4.130   0.284   2.531 -0.9473  0.4805  0.1798
  686TIP3    H1 2015   4.208   0.337   2.542  0.2856 -1.3940  1.0819
  686TIP3    H2 2016   4.116   0.244   2.617 -0.7610 -1.9764 -0.8530
  687TIP3   OH2 2017   6.444   5.350   5.499  0.0709 -0.0584  0.1363
  687TIP3    H1 2018   6.459   5.350   5.594 -0.6824 -1.0412  0.2740
  687TIP3    H2 2019   6.519   5.303   5.463  0.3434  0.2886  0.2429
  688TIP3   OH2 2020   1.017   0.784   1.708  0.3212 -0.3115  0.2956
  688TIP3    H1 2021   1.111   0.789   1.724  0.1278  1.3499  1.1132
  688TIP3    H2 2022   0.984   0.871   1.733 -1.4543 -0.9312  0.2107
  689TIP3   OH2 2023   1.228   0.640   1.141 -0.6733 -0.3228  0.6556
  689TIP3    H1 2024   1.162   0.707   1.157 -0.2731 -0.0038  0.9990
  689TIP3    H2 2025   1.281   0.639   1.221  0.2003 -0.0409  0.0915
  690TIP3   OH2 2026   7.243   6.233   4.107  0.1132  0.3040 -0.1718
  690TIP3    H1 2027   7.322   6.189   4.138  1.2729  1.2242 -1.6670
  690TIP3    H2 2028   7.272   6.321   4.084 -1.0369  0.2499 -2.0433
  691TIP3   OH2 2029   4.490   7.140   4.640  0.1627 -0.7286  0.1773
  691TIP3    H1 2030   4.466   7.226   4.607 -1.4193 -1.0141  0.4937
  691TIP3    H2 2031   4.443   7.079   4.583  0.0077 -1.3135  0.9105
  692TIP3   OH2 2032   2.496   5.738   3.851 -0.5512 -0.1260  0.5271
  692TIP3    H1 2033   2.567   5.752   3.913  0.2155  0.6807 -0.4792
  692TIP3    H2 2034   2.438   5.814   3.864 -0.3396  0.0943  0.2063
  693TIP3   OH2 2035   3.601   0.321   3.946  0.2373  0.1487  0.2169
  693TIP3    H1 2036   3.647   0.252   3.994 -1.1838  0.1629  1.6877
  693TIP3    H2 2037   3.591   0.392   4.009  1.1659  1.5219 -1.1068
  694TIP3   OH2 2038   3.430   7.515   2.682 -0.5090  0.2989  0.4992
  694TIP3    H1 2039   3.478   7.593   2.709  0.3570 -0.3430  0.8918
  694TIP3    H2 2040   3.338   7.540   2.687 -0.2300  1.5310 -0.1623
  695TIP3   OH2 2041   2.167   2.769   0.453 -0.1220 -0.0903 -0.0431
  695TIP3    H1 2042   2.116   2.729   0.523 -0.7558 -0.8986 -0.9541
  695TIP3    H2 2043   2.104   2.823   0.405  0.2458  0.2301 -0.1703
  696TIP3   OH2 2044   0.768   4.959   3.551  0.0823 -0.1659  0.2883
  696TIP3    H1 2045   0.781   5.045   3.591 -2.6417 -0.6271  2.3690
  696TIP3    H2 2046   0.762   4.977   3.457  2.4756  1.4647  0.3601
  697TIP3   OH2 2047   2.764   2.580   1.912  0.1293 -0.0174  0.5651
  697TIP3    H1 2048   2.756   2.499   1.861  0.1186 -0.6459  1.5327
  697TIP3    H2 2049   2.811   2.554   1.991  1.2406  1.1948  0.3357
  698TIP3   OH2 2050   5.936   1.841   2.427 -0.2893 -0.1301  0.0149
  698TIP3    H1 2051   5.906   1.751   2.442  2.2169 -1.2842 -1.3564
  698TIP3    H2 2052   5.890   1.868   2.347 -1.7954  0.2432  0.9601
  699TIP3   OH2 2053   7.812   6.737   4.518 -0.2647 -0.1914  0.1854
  699TIP3    H1 2054   7.902   6.756   4.492 -0.6282  0.8172 -0.3866
  699TIP3    H2 2055   7.811   6.643   4.538  1.6260  0.2777  3.0685
  700TIP3   OH2 2056   1.891   7.626   4.428  0.6556  0.3019  0.4973
  700TIP3    H1 2057   1.868   7.538   4.401  0.6437  0.1891  0.8724
  700TIP3    H2 2058   1.962   7.615   4.492  0.3066  0.5291  0.9365
  701TIP3   OH2 2059   8.236   7.252   2.280 -0.2322 -0.5861  0.3363
  701TIP3    H1 2060   8.305   7.220   2.221  1.0425  1.7240  0.4791
  701TIP3    H2 2061   8.155   7.237   2.232  0.7433  0.8713 -1.9049
  702TIP3   OH2 2062   1.856   0.637   3.497 -0.0169 -0.5794 -0.2485
  702TIP3    H1 2063   1.878   0.682   3.579  2.7205 -2.4776  0.2106
  702TIP3    H2 2064   1.774   0.592   3.515  0.0703 -0.2315  1.1628
  703TIP3   OH2 2065   4.502   0.230   1.433  0.4329  0.5380 -0.0315
  703TIP3    H1 2066   4.539   0.171   1.499 -1.0062 -1.1023 -0.5997
  703TIP3    H2 2067   4.418   0.190   1.411 -0.3249  2.5191 -0.9078
  704TIP3   OH2 2068   2.728   3.252   6.784  0.1514 -0.0136 -0.0661
  704TIP3    H1 2069   2.823   3.242   6.785  0.4094  2.0947  0.3286
  704TIP3    H2 2070   2.705   3.252   6.691  0.8274  1.5378 -0.2573
  705TIP3   OH2 2071   3.628   6.219   1.815  0.1319 -0.0678 -0.7252
  705TIP3    H1 2072   3.589   6.131   1.818  0.3222 -0.1514 -0.6500
  705TIP3    H2 2073   3.722   6.203   1.828 -0.1836  0.4430  4.4109
  706TIP3   OH2 2074   8.243   3.042   6.217  0.3111 -0.0624 -0.1114
  706TIP3    H1 2075   8.308   3.089   6.166  0.7337 -0.1260  0.3664
  706TIP3    H2 2076   8.268   2.950   6.210  0.4077 -0.0680  0.2485
  707TIP3   OH2 2077   3.764   5.694   0.830 -0.1334  0.0657  0.0427
  707TIP3    H1 2078   3.683   5.648   0.849  1.0607 -2.0756  0.1994
  707TIP3    H2 2079   3.821   5.629   0.790  1.4687  1.5463 -0.2347
  708TIP3   OH2 2080   4.333   1.556   6.191 -0.4207  0.2539 -0.4855
  708TIP3    H1 2081   4.343   1.601   6.107 -0.4737  0.1492 -0.5483
  708TIP3    H2 2082   4.264   1.492   6.176  0.2757 -0.4611 -0.6449
  709TIP3   OH2 2083   2.696   7.669   5.400  0.2599 -0.0491  0.3788
  709TIP3    H1 2084   2.700   7.733   5.329  0.9369  0.4660  0.8594
  709TIP3    H2 2085   2.605   7.640   5.401  0.6505 -1.6564 -2.0346
  710TIP3   OH2 2086   0.243   7.408   2.224 -0.2837  0.0427 -0.2624
  710TIP3    H1 2087   0.275   7.329   2.266  1.2025  0.8403  0.1807
  710TIP3    H2 2088   0.153   7.416   2.253 -0.2501 -1.1239  0.2128
  711TIP3   OH2 2089   1.068   0.780   5.502  0.2342  0.3216 -0.4548
  711TIP3    H1 2090   1.132   0.738   5.445  0.3783 -1.0223  0.6468
  711TIP3    H2 2091   1.111   0.861   5.531  1.1820 -0.2362 -0.2602
  712TIP3   OH2 2092   1.907   1.900   0.847  0.4909  0.4765 -0.0767
  712TIP3    H1 2093   1.941   1.811   0.848  0.4657  0.4641  0.8541
  712TIP3    H2 2094   1.821   1.892   0.806  1.7952  0.6207 -3.0857
  713TIP3   OH2 2095   1.181   3.950   0.448  0.1130  0.4202 -0.0080
  713TIP3    H1 2096   1.131   4.031   0.455 -0.7645 -0.2229  2.1888
  713TIP3    H2 2097   1.273   3.978   0.454 -0.2005  1.2513  1.6828
  714TIP3   OH2 2098   4.718   4.545   2.943  0.0138  0.1019 -0.8171
  714TIP3    H1 2099   4.785   4.499   2.993 -0.8144  0.9574  1.1480
  714TIP3    H2 2100   4.762   4.625   2.912 -0.4748  1.5221  1.9183
  715TIP3   OH2 2101   2.547   2.878   3.500  0.2980  0.1461  0.4032
  715TIP3    H1 2102   2.515   2.807   3.445  1.2792 -1.0809  1.3643
  715TIP3    H2 2103   2.642   2.867   3.500  0.3535  0.4979  1.8473
  716TIP3   OH2 2104   7.138   7.210   3.695 -0.0284 -0.2532  0.2536
  716TIP3    H1 2105   7.227   7.242   3.687 -0.1078  0.8913  2.8964
  716TIP3    H2 2106   7.137   7.162   3.778 -1.4041 -2.0094 -0.7126
  717TIP3   OH2 2107   4.415   0.652   4.079  0.3464  0.2878  0.1963
  717TIP3    H1 2108   4.376   0.638   4.165  0.0842 -1.4204 -0.1547
  717TIP3    H2 2109   4.354   0.711   4.034 -0.0487  0.3668  0.8229
  718TIP3   OH2 2110   6.770   2.193   4.247 -0.4322 -0.1478  0.6135
  718TIP3    H1 2111   6.864   2.183   4.232 -0.4993 -0.1955  0.2193
  718TIP3    H2 2112   6.747   2.274   4.201 -0.1105  1.2910  2.7932
  719TIP3   OH2 2113   3.240   3.328   5.617  0.0221  0.3857  0.2733
  719TIP3    H1 2114   3.191   3.402   5.580  0.2004  1.7588  2.6089
  719TIP3    H2 2115   3.215   3.327   5.709 -0.8337 -3.2178  0.1359
  720TIP3   OH2 2116   4.756   7.756   1.466 -0.0287 -0.3106 -0.1255
  720TIP3    H1 2117   4.667   7.776   1.438 -0.0355  0.4351  0.4047
  720TIP3    H2 2118   4.788   7.837   1.506  0.7168 -0.7134  0.1199
  721TIP3   OH2 2119   4.059   3.913   3.444  0.3369 -0.0022  0.0165
  721TIP3    H1 2120   4.128   3.912   3.377  1.5080 -2.2506  1.1206
  721TIP3    H2 2121   3.983   3.875   3.400 -0.0051  1.7671 -0.9902
  722TIP3   OH2 2122   0.191   7.760   1.002  0.6028 -0.7247  0.3910
  722TIP3    H1 2123   0.179   7.797   0.914 -1.4459 -3.3851 -0.6055
  722TIP3    H2 2124   0.237   7.678   0.987  1.6732 -0.4641  2.0490
  723TIP3   OH2 2125   6.000   1.023   5.146 -0.4305  0.4644  0.2201
  723TIP3    H1 2126   5.950   1.066   5.077 -1.7823 -0.1415  0.7968
  723TIP3    H2 2127   6.083   1.071   5.149 -1.1175  1.7379 -0.4958
  724TIP3   OH2 2128   8.025   4.731   6.610  0.0838  0.2032 -0.3315
  724TIP3    H1 2129   8.074   4.758   6.688 -1.9735  0.3864  0.9801
  724TIP3    H2 2130   7.943   4.694   6.645  0.7224 -3.4379 -2.2473
  725TIP3   OH2 2131   7.368   7.369   0.870 -0.5366  0.1845  0.5299
  725TIP3    H1 2132   7.365   7.465   0.868 -0.2161  0.1874 -0.4452
  725TIP3    H2 2133   7.451   7.347   0.827 -1.3908 -0.5556 -0.8099
  726TIP3   OH2 2134   0.953   3.506   2.732 -0.0428  0.4572 -0.5200
  726TIP3    H1 2135   1.011   3.486   2.659 -1.4332  1.8377 -2.0727
  726TIP3    H2 2136   0.993   3.583   2.773 -0.5244  1.1602 -1.3388
  727TIP3   OH2 2137   1.743   6.337   4.621  0.1936  0.8268  0.2569
  727TIP3    H1 2138   1.674   6.338   4.555  2.0520 -3.6446 -2.1604
  727TIP3    H2 2139   1.774   6.428   4.624 -2.0866  1.8538 -2.6698
  728TIP3   OH2 2140   4.805   4.730   5.784 -0.5866  0.1335  0.0116
  728TIP3    H1 2141   4.781   4.752   5.694  1.4805  0.3884 -0.5276
  728TIP3    H2 2142   4.804   4.634   5.787 -3.2357  0.0952  0.5286
  729TIP3   OH2 2143   2.904   6.742   4.798 -0.5366  0.2392  0.1281
  729TIP3    H1 2144   2.827   6.684   4.798 -0.7313  0.4920 -0.2201
  729TIP3    H2 2145   2.952   6.718   4.719 -1.0800  1.1491 -0.4998
  730TIP3   OH2 2146   5.987   0.021   0.281 -0.0036 -0.7535 -0.1515
  730TIP3    H1 2147   6.053   0.062   0.226 -0.2287 -0.4292 -0.1863
  730TIP3    H2 2148   5.992   0.069   0.364 -0.6855 -0.2358 -0.3974
  731TIP3   OH2 2149   4.298   3.411   1.055  0.2821 -0.2419 -0.1170
  731TIP3    H1 2150   4.367   3.461   1.012 -0.3876  0.5182 -0.3234
  731TIP3    H2 2151   4.217   3.438   1.011 -0.0779 -1.6948 -0.4093
  732TIP3   OH2 2152   0.258   5.669   4.587 -0.2177  0.1567 -0.8311
  732TIP3    H1 2153   0.315   5.641   4.659 -2.7344 -0.8168  0.9592
  732TIP3    H2 2154   0.274   5.606   4.517  3.0997  1.7713 -1.6836
  733TIP3   OH2 2155   1.311   3.254   1.516  0.3535 -0.5657  0.1920
  733TIP3    H1 2156   1.386   3.311   1.534 -0.6615  1.2251 -0.9505
  733TIP3    H2 2157   1.310   3.191   1.589  2.8864 -0.6089  0.2789
  734TIP3   OH2 2158   2.603   0.135   4.960  0.4442  0.0903  0.6795
  734TIP3    H1 2159   2.524   0.133   5.014 -0.1108  0.6149 -0.0755
  734TIP3    H2 2160   2.599   0.221   4.916  0.9906 -0.2229 -0.0047
  735TIP3   OH2 2161   1.385   2.806   5.143 -0.3246  0.6142 -0.3111
  735TIP3    H1 2162   1.419   2.803   5.053  0.3449  0.4316 -0.0565
  735TIP3    H2 2163   1.454   2.851   5.193 -1.9336  3.4148 -0.4199
  736TIP3   OH2 2164   5.519   0.117   0.144  0.3437 -0.0801 -0.2541
  736TIP3    H1 2165   5.569   0.122   0.225  0.2617 -0.8787 -0.1435
  736TIP3    H2 2166   5.573   0.162   0.079  1.1111 -0.7328 -0.0891
  737TIP3   OH2 2167   5.134   2.005   6.297  0.0710  0.6026  0.1943
  737TIP3    H1 2168   5.159   1.944   6.228  0.2150  1.2557 -0.3279
  737TIP3    H2 2169   5.043   1.981   6.318  0.8654 -1.3720  1.6809
  738TIP3   OH2 2170   5.775   7.051   5.238  0.1807  0.1450  0.8110
  738TIP3    H1 2171   5.774   6.961   5.206  0.3644  0.2717  0.4434
  738TIP3    H2 2172   5.860   7.086   5.209 -1.6237  1.8641 -3.0733
  739TIP3   OH2 2173   1.308   4.197   4.771 -0.5555 -0.0441 -0.4642
  739TIP3    H1 2174   1.219   4.218   4.799 -0.4837 -0.5256  0.1431
  739TIP3    H2 2175   1.314   4.101   4.778  0.6767  0.1187  1.6155
  740TIP3   OH2 2176   5.122   6.428   2.135  0.9860  0.2519  0.2904
  740TIP3    H1 2177   5.041   6.453   2.089  0.8044  1.0744  1.0260
  740TIP3    H2 2178   5.127   6.333   2.123  0.3027  0.2826 -0.3871
  741TIP3   OH2 2179   5.838   6.251   6.299 -0.9621  0.0475  0.5627
  741TIP3    H1 2180   5.925   6.235   6.336 -1.2586 -0.1966  1.1668
  741TIP3    H2 2181   5.846   6.335   6.255  0.0971 -0.8358 -1.0086
  742TIP3   OH2 2182   1.449   2.133   4.550 -0.5656 -0.2281 -0.3442
  742TIP3    H1 2183   1.451   2.222   4.585  0.0227 -0.4633  0.2120
  742TIP3    H2 2184   1.517   2.086   4.597 -0.7605 -0.9367 -0.7531
  743TIP3   OH2 2185   3.786   1.953   3.139  0.9063 -0.6454  0.3174
  743TIP3    H1 2186   3.846   1.894   3.093  0.2447 -1.5212  0.5422
  743TIP3    H2 2187   3.788   1.921   3.230 -2.2641 -2.7825 -0.2146
  744TIP3   OH2 2188   4.582   3.792   3.017  0.1292 -0.4319  0.0616
  744TIP3    H1 2189   4.631   3.739   3.079  1.5107 -0.5161 -1.0612
  744TIP3    H2 2190   4.644   3.859   2.988 -0.7669  0.1467 -0.5617
  745TIP3   OH2 2191   5.301   0.997   5.286 -0.2171  0.7169  0.2110
  745TIP3    H1 2192   5.269   1.016   5.198  0.9473  0.7108 -0.2314
  745TIP3    H2 2193   5.256   0.916   5.311 -1.7545  1.5576  0.2860
  746TIP3   OH2 2194   0.986   4.972   4.707  0.3052 -0.0559  0.2222
  746TIP3    H1 2195   1.072   4.963   4.667  0.5703 -0.0126  0.7820
  746TIP3    H2 2196   0.928   4.992   4.633  0.9603  1.1255  0.0017
  747TIP3   OH2 2197   3.219   1.525   3.276 -0.1004 -0.0086 -0.1428
  747TIP3    H1 2198   3.239   1.615   3.249 -0.7556  0.1522 -0.1136
  747TIP3    H2 2199   3.254   1.470   3.205  1.3437  0.1877  0.3958
  748TIP3   OH2 2200   2.943   0.171   3.126  0.1926 -0.0787 -0.0643
  748TIP3    H1 2201   2.925   0.108   3.056 -0.5047 -0.4338  0.4144
  748TIP3    H2 2202   2.860   0.218   3.137 -0.2163 -1.1175  1.5870
  749TIP3   OH2 2203   6.241   3.980   0.427 -0.2643  0.5555 -0.5377
  749TIP3    H1 2204   6.227   3.947   0.338  1.5752  1.3483 -1.1702
  749TIP3    H2 2205   6.294   3.912   0.470  0.2742  0.9253 -0.6072
  750TIP3   OH2 2206   6.878   6.725   5.003  0.3431  0.1882 -0.1949
  750TIP3    H1 2207   6.926   6.686   5.076  0.1447  2.0506  1.0230
  750TIP3    H2 2208   6.941   6.783   4.961 -0.1694  0.8776 -0.0395
  751TIP3   OH2 2209   5.529   1.330   6.037  0.0779 -0.8818 -0.0908
  751TIP3    H1 2210   5.464   1.386   5.994  0.9431  0.6825  0.5508
  751TIP3    H2 2211   5.612   1.377   6.026  0.7046 -1.6652  1.1337
  752TIP3   OH2 2212   5.397   1.208   2.283  0.2207  0.3713  0.3285
  752TIP3    H1 2213   5.460   1.200   2.211  0.5001 -3.1402  0.7522
  752TIP3    H2 2214   5.448   1.244   2.356  1.9893 -2.4962  0.6984
  753TIP3   OH2 2215   3.842   3.277   6.310 -0.4436  0.4200  0.3988
  753TIP3    H1 2216   3.757   3.296   6.271 -1.0035 -0.4542  1.1529
  753TIP3    H2 2217   3.825   3.205   6.371  0.2507  2.0430  2.6595
  754TIP3   OH2 2218   6.428   4.406   0.593  0.4958  0.3334  1.1492
  754TIP3    H1 2219   6.358   4.346   0.566  1.5227 -0.6587  0.6403
  754TIP3    H2 2220   6.414   4.484   0.540 -0.1055  0.0659  0.9032
  755TIP3   OH2 2221   5.761   4.604   2.289  0.2713 -0.1710 -0.4259
  755TIP3    H1 2222   5.785   4.553   2.212 -0.2758 -0.3345 -0.4964
  755TIP3    H2 2223   5.821   4.678   2.290  0.7184 -0.5310 -0.6292
  756TIP3   OH2 2224   3.561   7.439   4.160  0.4383  0.1706  0.1414
  756TIP3    H1 2225   3.490   7.428   4.097  1.3648 -0.2168 -0.8869
  756TIP3    H2 2226   3.620   7.502   4.118  1.1534 -0.2143  0.5463
  757TIP3   OH2 2227   3.303   3.708   5.592  0.5344 -0.6013 -0.3405
  757TIP3    H1 2228   3.278   3.721   5.684  0.3651 -0.2426 -0.4345
  757TIP3    H2 2229   3.398   3.700   5.595  0.5163 -0.7696 -0.1146
  758TIP3   OH2 2230   4.453   3.771   0.877  0.2059 -0.7033  0.5716
  758TIP3    H1 2231   4.470   3.815   0.793  1.9433 -0.9711  0.7627
  758TIP3    H2 2232   4.368   3.805   0.904 -0.3645 -0.5429 -1.2520
  759TIP3   OH2 2233   2.293   2.865   3.851 -0.1786  0.0616  0.1893
  759TIP3    H1 2234   2.334   2.950   3.839  0.8538 -0.4982 -0.3281
  759TIP3    H2 2235   2.202   2.886   3.873  0.3830  1.3396  1.5411
  760TIP3   OH2 2236   4.876   7.811   5.307  0.2748 -0.1529 -0.1780
  760TIP3    H1 2237   4.894   7.720   5.283  0.7463  0.3510 -1.8218
  760TIP3    H2 2238   4.961   7.846   5.335  0.5506  0.3437 -1.5530
  761TIP3   OH2 2239   6.040   3.437   4.287 -0.4590  0.1527 -0.6793
  761TIP3    H1 2240   5.987   3.515   4.303  0.2549  0.6391 -0.6147
  761TIP3    H2 2241   6.094   3.429   4.365 -1.6486 -1.3527  0.0226
  762TIP3   OH2 2242   5.366   6.895   6.316  0.2390  0.3522  0.3536
  762TIP3    H1 2243   5.356   6.976   6.266 -3.1716 -0.6069 -0.7518
  762TIP3    H2 2244   5.400   6.832   6.252 -1.0817 -0.0844  0.0629
  763TIP3   OH2 2245   7.846   0.487   2.627  0.6300  0.1133 -0.5680
  763TIP3    H1 2246   7.867   0.578   2.604  0.9168  0.2840  0.3257
  763TIP3    H2 2247   7.915   0.462   2.689  0.9046 -0.9176 -1.2681
  764TIP3   OH2 2248   5.717   0.738   2.698 -0.2526 -0.5610 -0.0554
  764TIP3    H1 2249   5.777   0.779   2.760 -0.4609 -0.0135 -0.2057
  764TIP3    H2 2250   5.634   0.732   2.745 -0.5038  0.1767 -0.3885
  765TIP3   OH2 2251   5.003   6.478   2.685 -0.0298 -0.1361 -0.4646
  765TIP3    H1 2252   5.049   6.419   2.624  0.0639  1.2842 -1.8492
  765TIP3    H2 2253   5.008   6.563   2.642 -1.7214  0.5403  0.6215
  766TIP3   OH2 2254   1.745   3.689   3.647  0.3884  0.2041 -0.0480
  766TIP3    H1 2255   1.803   3.763   3.669 -0.3499  0.4470  1.1822
  766TIP3    H2 2256   1.742   3.637   3.727  0.4304 -0.8590 -0.7244
  767TIP3   OH2 2257   1.778   6.838   0.031 -0.5634  0.9122 -0.3129
  767TIP3    H1 2258   1.834   6.878   0.097 -0.5761  1.8595 -0.8612
  767TIP3    H2 2259   1.837   6.817  -0.042 -0.2484 -1.6083  0.5810
  768TIP3   OH2 2260   1.065   3.260   1.805  0.0421 -0.2391  0.4895
  768TIP3    H1 2261   0.988   3.236   1.856 -1.3333  0.7868 -1.0279
  768TIP3    H2 2262   1.094   3.178   1.765  0.6364 -0.8964  2.1531
  769TIP3   OH2 2263   2.073   3.963   1.274  0.2349  0.2453  0.4407
  769TIP3    H1 2264   2.099   3.873   1.256  0.7530  0.5189 -0.2213
  769TIP3    H2 2265   2.156   4.008   1.295 -0.1647  0.2689  2.1618
  770TIP3   OH2 2266   6.466   4.297   1.255 -0.3016  0.5729  0.2807
  770TIP3    H1 2267   6.539   4.342   1.211 -1.6229  2.3091 -0.2473
  770TIP3    H2 2268   6.418   4.367   1.300  1.2504 -1.0711  5.1687
  771TIP3   OH2 2269   2.137   6.475   3.554 -0.1633 -0.2465  0.7282
  771TIP3    H1 2270   2.079   6.403   3.529  1.1309 -0.9823 -0.2838
  771TIP3    H2 2271   2.225   6.440   3.544  0.5341  1.6825 -0.5403
  772TIP3   OH2 2272   0.977   6.368   6.216  0.0312  0.4761  0.1157
  772TIP3    H1 2273   0.926   6.340   6.291  0.3744  0.5628  0.3841
  772TIP3    H2 2274   1.016   6.451   6.242 -0.4071  0.8571 -0.4163
  773TIP3   OH2 2275   0.631   1.383   5.894 -0.4790 -0.0985 -0.3731
  773TIP3    H1 2276   0.611   1.299   5.852 -1.7643  0.4681 -0.9479
  773TIP3    H2 2277   0.604   1.449   5.830  2.1262  0.7853 -0.6653
  774TIP3   OH2 2278   5.020   1.371   1.902 -0.1326  0.3258 -0.2306
  774TIP3    H1 2279   5.015   1.383   1.807 -0.8642 -1.7181 -0.4946
  774TIP3    H2 2280   5.067   1.449   1.933  1.3911  0.3778 -2.4148
  775TIP3   OH2 2281   4.207   5.871   3.498 -0.1904  0.1683  0.4915
  775TIP3    H1 2282   4.255   5.831   3.570 -0.1682 -0.1792  0.2841
  775TIP3    H2 2283   4.240   5.828   3.420 -0.0859  0.6743  0.2570
  776TIP3   OH2 2284   5.946   1.658   2.710 -0.4878 -0.3414  0.3430
  776TIP3    H1 2285   5.906   1.602   2.644  0.9838 -2.5172  1.2170
  776TIP3    H2 2286   6.039   1.640   2.706 -0.0886  1.1562  1.5044
  777TIP3   OH2 2287   6.637   1.368   0.216 -0.5944  0.2430 -0.1060
  777TIP3    H1 2288   6.566   1.335   0.161 -1.1252  0.0372  0.6841
  777TIP3    H2 2289   6.717   1.350   0.167 -0.9924 -0.8147 -0.3773
  778TIP3   OH2 2290   3.888   1.700   2.247 -0.1033  0.1512 -0.2699
  778TIP3    H1 2291   3.879   1.632   2.180 -0.5558 -0.1804  0.1194
  778TIP3    H2 2292   3.798   1.724   2.268 -0.1163 -1.5263  2.0037
  779TIP3   OH2 2293   0.131   2.706   2.015  0.8793  0.5100  0.0191
  779TIP3    H1 2294   0.120   2.619   1.977  1.7172 -0.0767  1.0846
  779TIP3    H2 2295   0.169   2.758   1.944 -0.4794  0.2839 -0.9184
  780TIP3   OH2 2296   5.760   4.971   5.002 -0.3583  0.6893  0.0167
  780TIP3    H1 2297   5.849   4.942   4.981  0.1182  1.2522  1.1671
  780TIP3    H2 2298   5.704   4.927   4.938  0.7612  0.4352 -0.8046
  781TIP3   OH2 2299   4.557   6.507   3.512  0.9423 -0.5971  0.0378
  781TIP3    H1 2300   4.650   6.525   3.520  0.7923 -0.3350  1.4450
  781TIP3    H2 2301   4.551   6.412   3.517  0.9293 -0.5310  3.2994
  782TIP3   OH2 2302   5.788   4.411   3.943 -0.0905  0.5298 -0.0095
  782TIP3    H1 2303   5.744   4.384   4.024 -0.4351 -0.2997 -0.4586
  782TIP3    H2 2304   5.835   4.333   3.914 -0.0971  0.7714 -0.6957
  783TIP3   OH2 2305   0.477   5.283   6.649  0.3736  0.6624 -0.0518
  783TIP3    H1 2306   0.443   5.369   6.675 -1.3991 -0.1303  0.4086
  783TIP3    H2 2307   0.403   5.224   6.661  1.1167 -0.6987 -1.7732
  784TIP3   OH2 2308   5.753   2.361   2.871 -0.1823 -0.4042  0.0777
  784TIP3    H1 2309   5.791   2.415   2.940  0.2948 -2.0981  1.2080
  784TIP3    H2 2310   5.781   2.403   2.790  2.0188 -0.1699  0.8922
  785TIP3   OH2 2311   1.171   3.104   4.141 -0.3078 -0.2727 -0.1469
  785TIP3    H1 2312   1.229   3.153   4.200  0.2390  0.4895 -1.2724
  785TIP3    H2 2313   1.187   3.012   4.163  3.4205 -0.3075 -2.1401
  786TIP3   OH2 2314   1.194   5.153   2.921  0.1868 -0.3174  0.5897
  786TIP3    H1 2315   1.223   5.064   2.941 -1.3515 -0.7483  1.0078
  786TIP3    H2 2316   1.102   5.154   2.945  0.3052  1.5578  1.0967
  787TIP3   OH2 2317   1.191   2.863   4.271  0.2281  0.2126 -0.1046
  787TIP3    H1 2318   1.269   2.809   4.261  0.5746  1.0420 -2.3208
  787TIP3    H2 2319   1.135   2.813   4.330  1.1335 -1.8780 -0.9301
  788TIP3   OH2 2320   0.370   0.491   3.770  0.1056  0.7370  0.4373
  788TIP3    H1 2321   0.373   0.529   3.858  0.6956  3.7617 -0.7649
  788TIP3    H2 2322   0.305   0.543   3.723  0.1532 -0.4813 -1.0638
  789TIP3   OH2 2323   6.700   0.827   0.068  0.4790 -0.7478  0.3760
  789TIP3    H1 2324   6.628   0.765   0.073  0.7057 -0.9041  2.0266
  789TIP3    H2 2325   6.767   0.781   0.016 -0.2872 -0.8880 -0.5183
  790TIP3   OH2 2326   6.834   6.526   1.550  0.1546  0.9735 -0.2424
  790TIP3    H1 2327   6.792   6.457   1.600 -2.3576  0.9678 -2.1889
  790TIP3    H2 2328   6.817   6.606   1.600 -0.8246  0.7465 -0.1914
  791TIP3   OH2 2329   0.220   6.968   2.824 -0.3031  0.2638 -0.0927
  791TIP3    H1 2330   0.239   7.061   2.839  0.0838  0.1176  0.3413
  791TIP3    H2 2331   0.124   6.964   2.818 -0.2885  0.7868 -0.7996
  792TIP3   OH2 2332   7.148   4.606   3.688 -0.4696 -0.5099  0.1032
  792TIP3    H1 2333   7.102   4.542   3.633  0.1835 -1.0118  0.1260
  792TIP3    H2 2334   7.091   4.683   3.688 -0.1010 -0.1818 -1.9494
  793TIP3   OH2 2335   4.431   6.587   3.914  0.4567  0.3119 -0.2975
  793TIP3    H1 2336   4.520   6.566   3.887  0.4110  0.3148 -0.4536
  793TIP3    H2 2337   4.388   6.615   3.833 -0.1152 -1.1288 -0.5231
  794TIP3   OH2 2338   0.778   2.391   0.583  0.0906  0.1007 -0.1801
  794TIP3    H1 2339   0.859   2.441   0.597  0.2844  0.6754 -2.7543
  794TIP3    H2 2340   0.728   2.444   0.521 -1.4184 -1.1556 -0.0987
  795TIP3   OH2 2341   5.248   4.163   1.755 -0.4687 -0.1719 -0.7358
  795TIP3    H1 2342   5.320   4.207   1.800 -0.7084  1.0777 -1.5209
  795TIP3    H2 2343   5.192   4.131   1.826  0.4225 -0.4412 -0.1283
  796TIP3   OH2 2344   2.829   4.445   5.646  0.2186 -0.2594  0.7229
  796TIP3    H1 2345   2.735   4.441   5.663  0.7281 -0.0783  4.2160
  796TIP3    H2 2346   2.852   4.357   5.616 -1.2138  0.1245 -1.8228
  797TIP3   OH2 2347   3.030   2.128   6.283 -0.7433  0.0763  0.5517
  797TIP3    H1 2348   3.047   2.136   6.377 -0.1719 -1.8059  0.6553
  797TIP3    H2 2349   2.937   2.106   6.278 -0.9622  0.9551  0.6090
  798TIP3   OH2 2350   2.801   3.849   2.564  0.2486 -0.0680  0.2276
  798TIP3    H1 2351   2.717   3.892   2.577 -0.5904 -1.3401 -0.7769
  798TIP3    H2 2352   2.842   3.849   2.650 -0.4571  1.1977  0.5842
  799TIP3   OH2 2353   5.275   2.410   1.071  0.3108  0.3218 -0.4592
  799TIP3    H1 2354   5.276   2.340   1.136 -0.8899  0.1688 -0.5754
  799TIP3    H2 2355   5.196   2.393   1.019  0.8172  0.8949 -1.4497
  800TIP3   OH2 2356   7.715   3.811   5.670  0.2373 -0.3913  0.1166
  800TIP3    H1 2357   7.662   3.767   5.737  0.8212 -2.0728 -0.4787
  800TIP3    H2 2358   7.653   3.835   5.602 -0.1620  0.1956  0.6695
  801TIP3   OH2 2359   7.649   2.365   0.723  0.4750  0.3130  0.4714
  801TIP3    H1 2360   7.586   2.350   0.653  2.5833  0.3738 -1.5706
  801TIP3    H2 2361   7.651   2.283   0.772 -0.2567 -0.1113 -0.1891
  802TIP3   OH2 2362   7.284   7.632   3.332 -0.1492 -0.2167  0.5472
  802TIP3    H1 2363   7.216   7.670   3.276  0.0550  1.0343  1.1157
  802TIP3    H2 2364   7.255   7.542   3.347 -0.1965 -0.6209 -1.5721
  803TIP3   OH2 2365   3.996   2.774   0.689  0.3222  0.1279  0.4780
  803TIP3    H1 2366   4.076   2.826   0.678 -0.5173  1.9590  2.3804
  803TIP3    H2 2367   4.012   2.724   0.769 -0.4794  0.6260  0.9589
  804TIP3   OH2 2368   1.027   7.495   3.986 -0.7849 -0.3486  0.2017
  804TIP3    H1 2369   0.994   7.577   4.022 -1.7690  0.0569 -1.5117
  804TIP3    H2 2370   0.991   7.427   4.044  0.6138  0.3991  2.0510
  805TIP3   OH2 2371   3.260   2.554   0.502 -0.0395  0.1876 -0.2053
  805TIP3    H1 2372   3.297   2.547   0.590 -0.7294  1.4825  0.2137
  805TIP3    H2 2373   3.334   2.537   0.444  0.4953 -0.3851  0.6095
  806TIP3   OH2 2374   0.252   0.427   1.772 -0.1178 -0.0235  0.5910
  806TIP3    H1 2375   0.282   0.347   1.728 -0.3539  0.6995 -0.9436
  806TIP3    H2 2376   0.333   0.471   1.800  0.0542 -0.2903  0.5201
  807TIP3   OH2 2377   4.789   2.059   2.946  0.2114  0.1385  0.1696
  807TIP3    H1 2378   4.805   2.154   2.940  1.5227 -0.0923 -0.2270
  807TIP3    H2 2379   4.876   2.021   2.952 -0.3407 -1.0046  1.1105
  808TIP3   OH2 2380   1.139   5.984   6.307  0.3889  0.5990  0.3537
  808TIP3    H1 2381   1.070   5.918   6.305  1.2971 -0.3954  1.0108
  808TIP3    H2 2382   1.136   6.020   6.395  2.5082 -1.4845  1.3999
  809TIP3   OH2 2383   4.967   2.475   2.623  0.0973  0.3583  0.5272
  809TIP3    H1 2384   5.053   2.465   2.582  0.3722  1.4097  0.8152
  809TIP3    H2 2385   4.984   2.526   2.702 -0.6068 -0.5781  1.3110
  810TIP3   OH2 2386   0.997   4.624   1.910 -0.2102  0.2834 -0.2698
  810TIP3    H1 2387   1.044   4.644   1.990 -0.9580 -1.0353  0.5408
  810TIP3    H2 2388   1.044   4.549   1.873 -0.0757  0.6656 -0.8900
  811TIP3   OH2 2389   8.167   4.856   6.413  0.3208 -0.0116  0.1790
  811TIP3    H1 2390   8.211   4.789   6.360 -2.9196 -0.7108 -1.8656
  811TIP3    H2 2391   8.114   4.807   6.475  2.2099  0.8265  2.6328
  812TIP3   OH2 2392   5.688   7.281   5.042 -0.1077  0.5734  0.2437
  812TIP3    H1 2393   5.687   7.209   5.105 -1.6484 -0.0853 -0.4821
  812TIP3    H2 2394   5.780   7.285   5.013  0.2320 -0.3795  1.0888
  813TIP3   OH2 2395   3.578   3.480   3.801  0.3062  0.1877  0.4409
  813TIP3    H1 2396   3.652   3.434   3.762 -0.1235 -1.0866  1.0707
  813TIP3    H2 2397   3.602   3.573   3.796  2.2641 -0.2201  1.2616
  814TIP3   OH2 2398   0.843   4.034   5.130 -0.0262 -0.0043 -0.7793
  814TIP3    H1 2399   0.802   4.104   5.079  0.8801  0.4666 -0.8845
  814TIP3    H2 2400   0.921   4.010   5.080  0.1740 -0.4356 -0.2706
  815TIP3   OH2 2401   0.742   0.902   4.659 -0.1904  0.1019 -0.2400
  815TIP3    H1 2402   0.713   0.960   4.588 -0.0680 -1.2413 -1.4378
  815TIP3    H2 2403   0.661   0.867   4.696 -0.2261  0.0346 -0.3818
  816TIP3   OH2 2404   0.686   6.247   3.837  0.1581  0.1761  0.0041
  816TIP3    H1 2405   0.634   6.212   3.910  0.4284  0.4789  0.3443
  816TIP3    H2 2406   0.620   6.276   3.774 -0.0787 -0.1128  0.1110
  817TIP3   OH2 2407   5.407   1.497   1.108  0.6566 -0.6900  0.1439
  817TIP3    H1 2408   5.394   1.435   1.036 -1.0775  0.3218 -0.4703
  817TIP3    H2 2409   5.347   1.468   1.176  1.3951 -0.9145  0.7124
  818TIP3   OH2 2410   4.771   1.201   4.458  0.1270  0.0955 -0.5336
  818TIP3    H1 2411   4.727   1.115   4.460  1.4937 -0.6045  0.9095
  818TIP3    H2 2412   4.864   1.180   4.459  0.4755  1.6201  0.4074
  819TIP3   OH2 2413   4.580   2.381   6.651 -0.3513  0.0945  0.6664
  819TIP3    H1 2414   4.516   2.327   6.696 -0.3641 -0.6693 -0.2255
  819TIP3    H2 2415   4.642   2.407   6.719  1.2058 -3.2951  0.7729
  820TIP3   OH2 2416   0.064   3.354   4.562  0.1644  0.1477 -0.4189
  820TIP3    H1 2417   0.118   3.431   4.544 -0.1447  0.9275  1.6773
  820TIP3    H2 2418   0.126   3.286   4.588  0.3310  0.1444 -0.8230
  821TIP3   OH2 2419   1.905   0.131   4.496  0.8519 -0.2435 -0.0605
  821TIP3    H1 2420   1.857   0.061   4.452 -0.4537  0.9973 -0.6930
  821TIP3    H2 2421   1.960   0.169   4.428 -0.2225  0.8542 -0.3544
  822TIP3   OH2 2422   6.394   2.094   6.658  0.0315 -0.0869  0.1371
  822TIP3    H1 2423   6.355   2.038   6.591 -0.9743 -0.9044  1.3668
  822TIP3    H2 2424   6.400   2.039   6.736 -0.9451  1.4804  1.3823
  823TIP3   OH2 2425   0.844   3.433   1.725 -0.2020  0.9264 -0.0441
  823TIP3    H1 2426   0.844   3.496   1.653  2.2844 -0.2925 -1.2442
  823TIP3    H2 2427   0.931   3.393   1.722 -1.9298 -3.3457 -0.1029
  824TIP3   OH2 2428   3.043   4.434   6.052  0.1613 -0.6223 -0.3023
  824TIP3    H1 2429   3.034   4.346   6.091  2.3730 -0.2688  1.1834
  824TIP3    H2 2430   3.086   4.486   6.120 -0.5869  1.5068 -1.3644
  825TIP3   OH2 2431   1.355   6.254   0.982  0.0033 -0.0998 -0.4351
  825TIP3    H1 2432   1.331   6.319   1.048  1.0947  0.3593 -0.4732
  825TIP3    H2 2433   1.373   6.306   0.904  0.8137 -0.4468 -0.4847
  826TIP3   OH2 2434   2.702   7.347   4.096  0.2530 -0.4011 -0.2401
  826TIP3    H1 2435   2.742   7.415   4.041  1.2652 -3.7036 -4.1082
  826TIP3    H2 2436   2.775   7.289   4.119 -0.9303 -1.6426  0.5691
  827TIP3   OH2 2437   4.501   1.206   1.583  0.4237  0.0299 -0.5464
  827TIP3    H1 2438   4.526   1.114   1.574  1.1475  0.1143  0.4112
  827TIP3    H2 2439   4.479   1.234   1.494 -1.0869 -1.4010 -0.6661
  828TIP3   OH2 2440   4.185   3.175   5.891  0.0526 -0.2034 -0.0214
  828TIP3    H1 2441   4.098   3.187   5.931  0.2781 -2.6052  1.4018
  828TIP3    H2 2442   4.182   3.229   5.812 -2.4526  0.4349  0.4001
  829TIP3   OH2 2443   4.586   3.474   6.736 -0.2424 -0.1946 -0.3826
  829TIP3    H1 2444   4.622   3.411   6.674 -1.1581  0.2517 -1.3926
  829TIP3    H2 2445   4.504   3.503   6.696 -1.8116 -1.2433  1.8670
  830TIP3   OH2 2446   4.975   0.057   2.549 -0.1096 -0.3571 -0.1140
  830TIP3    H1 2447   5.012  -0.030   2.537  2.2003  0.6829 -1.1353
  830TIP3    H2 2448   4.932   0.054   2.634 -1.9717 -3.0722 -1.0136
  831TIP3   OH2 2449   6.854   0.223   3.713  0.1578  0.0156  0.6032
  831TIP3    H1 2450   6.850   0.273   3.631 -0.6856 -2.6141 -1.0979
  831TIP3    H2 2451   6.837   0.132   3.686 -0.0333 -0.9776  3.7127
  832TIP3   OH2 2452   6.759   2.927   0.463 -0.0820 -0.2709  0.0734
  832TIP3    H1 2453   6.668   2.909   0.441  0.1796 -1.7766  0.1099
  832TIP3    H2 2454   6.810   2.869   0.405  0.7582 -1.0188  1.4980
  833TIP3   OH2 2455   6.764   0.376   1.212 -0.0105  0.3491  0.0493
  833TIP3    H1 2456   6.800   0.438   1.275  0.4132  0.7161 -0.5465
  833TIP3    H2 2457   6.731   0.303   1.265 -0.5915  1.1166  0.7688
  834TIP3   OH2 2458   7.915   5.550   3.922 -0.5125  0.3278  0.1145
  834TIP3    H1 2459   7.905   5.466   3.966 -0.3029  0.8468  1.1808
  834TIP3    H2 2460   7.826   5.586   3.920 -0.5299  0.2825  0.0533
  835TIP3   OH2 2461   3.954   4.264   3.774  0.0704 -0.1210  0.7891
  835TIP3    H1 2462   3.886   4.284   3.839 -0.2050 -0.4323  0.6021
  835TIP3    H2 2463   4.036   4.280   3.819 -0.0990 -1.0442  1.4607
  836TIP3   OH2 2464   2.903   4.203   5.554 -0.3658  0.4400  0.1506
  836TIP3    H1 2465   2.865   4.238   5.474 -0.1603 -2.0168 -1.0828
  836TIP3    H2 2466   2.880   4.110   5.555  2.9742 -0.5352  0.8660
  837TIP3   OH2 2467   4.257   4.940   1.543 -0.1227 -0.3689  0.3097
  837TIP3    H1 2468   4.198   5.005   1.581  0.1084 -0.4673  0.8417
  837TIP3    H2 2469   4.200   4.880   1.496 -0.4127 -0.2823  0.5533
  838TIP3   OH2 2470   5.992   0.698   1.009 -0.0573  0.7423  0.1078
  838TIP3    H1 2471   5.970   0.732   0.922  0.7405 -0.5746 -0.6527
  838TIP3    H2 2472   6.087   0.711   1.016  0.3582 -1.6369 -0.4064
  839TIP3   OH2 2473   8.236   2.060   6.505  0.5647  0.6184  0.5682
  839TIP3    H1 2474   8.178   2.100   6.441  0.9340  0.8444  0.3754
  839TIP3    H2 2475   8.213   2.103   6.588  0.7889  1.0476  0.4062
  840TIP3   OH2 2476   4.130   2.332   3.855  0.1986  0.3423  0.0818
  840TIP3    H1 2477   4.151   2.241   3.874 -0.2285  0.2572  0.1497
  840TIP3    H2 2478   4.210   2.380   3.876  1.0727 -0.2292 -1.7210
  841TIP3   OH2 2479   1.808   6.457   0.919  0.0176 -0.2274  0.5140
  841TIP3    H1 2480   1.739   6.523   0.928 -0.1981 -0.6183  1.7725
  841TIP3    H2 2481   1.889   6.508   0.911 -0.1575  0.1923  1.3960
  842TIP3   OH2 2482   3.866   0.925   1.357 -0.4305  0.4748  0.5353
  842TIP3    H1 2483   3.780   0.936   1.316  0.4280 -0.0495 -1.5397
  842TIP3    H2 2484   3.908   1.010   1.347 -0.0599  0.2235 -0.0810
  843TIP3   OH2 2485   6.693   5.950   0.315  0.5744 -0.1822 -0.3217
  843TIP3    H1 2486   6.726   6.037   0.293 -3.1039  1.5623  0.3496
  843TIP3    H2 2487   6.606   5.947   0.276 -0.2769 -2.7333  1.5383
  844TIP3   OH2 2488   3.878   3.949   2.497 -0.3142  0.6026 -0.3764
  844TIP3    H1 2489   3.957   3.964   2.548 -0.4851  1.1253 -0.2535
  844TIP3    H2 2490   3.864   3.855   2.500  0.6564  0.4222 -0.9292
  845TIP3   OH2 2491   5.168   4.262   5.072 -0.4065 -0.3067 -0.3575
  845TIP3    H1 2492   5.110   4.218   5.010 -1.9614 -0.1849  0.9358
  845TIP3    H2 2493   5.137   4.232   5.158  0.4988  0.9320  0.4213
  846TIP3   OH2 2494   5.818   7.192   2.461 -0.2173 -0.1141  0.0070
  846TIP3    H1 2495   5.877   7.119   2.480 -0.5009 -0.2978  0.1975
  846TIP3    H2 2496   5.835   7.214   2.369  1.1378  0.7574  0.4423
  847TIP3   OH2 2497   6.302   7.344   1.684  0.0002  0.1036 -0.4869
  847TIP3    H1 2498   6.285   7.435   1.662  0.2874 -0.1436 -1.8492
  847TIP3    H2 2499   6.287   7.338   1.778 -0.3540  1.4719 -0.4422
  848TIP3   OH2 2500   4.580   6.776   4.095 -0.2623 -0.1486 -0.0325
  848TIP3    H1 2501   4.538   6.695   4.064  0.7885 -0.0159 -1.9494
  848TIP3    H2 2502   4.618   6.815   4.016 -1.7993  2.9068  0.5700
  849TIP3   OH2 2503   4.980   5.886   5.050 -0.1627  0.3072 -0.3785
  849TIP3    H1 2504   4.978   5.978   5.024  1.0213  0.3618 -0.3084
  849TIP3    H2 2505   5.059   5.850   5.009 -1.6717 -1.2288 -2.1524
  850TIP3   OH2 2506   1.033   5.534   2.153 -0.0518 -0.1546  0.5617
  850TIP3    H1 2507   0.959   5.493   2.197 -0.9472  0.0516 -0.6855
  850TIP3    H2 2508   1.067   5.467   2.093  0.8694 -0.2920  1.2183
  851TIP3   OH2 2509   7.378   2.095   4.449 -0.3434  0.0818  0.0672
  851TIP3    H1 2510   7.332   2.140   4.519 -0.7340 -0.0540 -0.1020
  851TIP3    H2 2511   7.431   2.029   4.493 -0.0370  0.4734  0.2887
  852TIP3   OH2 2512   6.964   2.554   2.281  0.1716  0.0428 -0.3848
  852TIP3    H1 2513   6.959   2.462   2.256 -0.2319  0.3360 -1.4416
  852TIP3    H2 2514   6.920   2.559   2.365 -0.7342 -0.5654 -0.8088
  853TIP3   OH2 2515   4.035   0.049   0.728  0.0644 -0.2111  0.2198
  853TIP3    H1 2516   4.041   0.144   0.721 -0.2324  0.0380  2.6255
  853TIP3    H2 2517   3.965   0.025   0.668 -0.2538  1.1562  0.0102
  854TIP3   OH2 2518   2.630   0.875   1.993 -0.0648 -0.4049 -0.4277
  854TIP3    H1 2519   2.689   0.849   2.064 -1.1664 -2.2826 -0.1335
  854TIP3    H2 2520   2.619   0.796   1.941 -1.7000  0.1176 -0.9223
  855TIP3   OH2 2521   6.187   2.212   1.001  0.1989  0.0393 -0.0671
  855TIP3    H1 2522   6.241   2.135   0.982 -0.0745 -0.5260  1.2939
  855TIP3    H2 2523   6.180   2.258   0.918 -0.0420 -1.6730 -1.0357
  856TIP3   OH2 2524   5.953   1.748   0.242 -0.6145 -0.8463 -0.0435
  856TIP3    H1 2525   5.926   1.665   0.282 -1.5820  0.2759  1.7835
  856TIP3    H2 2526   5.984   1.801   0.315  0.2329  0.3358 -1.2061
  857TIP3   OH2 2527   7.810   3.494   1.773 -0.0043  0.3091  0.5296
  857TIP3    H1 2528   7.895   3.526   1.742 -0.3756 -0.3172 -1.2358
  857TIP3    H2 2529   7.748   3.562   1.748 -0.4022 -0.4983 -0.7983
  858TIP3   OH2 2530   4.827   3.134   5.574  0.2192 -0.3705  0.3821
  858TIP3    H1 2531   4.811   3.193   5.648 -1.3543  0.4322 -0.5531
  858TIP3    H2 2532   4.783   3.053   5.599  1.1964 -0.7174  1.0595
  859TIP3   OH2 2533   0.622   4.755   4.295 -0.3752  0.2649 -0.3520
  859TIP3    H1 2534   0.593   4.817   4.228 -2.3975 -0.4661 -0.2228
  859TIP3    H2 2535   0.541   4.720   4.332  0.6591  0.3569  2.2487
  860TIP3   OH2 2536   8.299   6.346   5.810 -0.2152 -0.0655 -0.1350
  860TIP3    H1 2537   8.246   6.321   5.735  1.8294 -1.6632 -1.1493
  860TIP3    H2 2538   8.288   6.275   5.872  1.6062 -1.0627 -0.8745
  861TIP3   OH2 2539   6.898   6.651   2.193  0.5929 -0.2045  0.3382
  861TIP3    H1 2540   6.967   6.718   2.196 -0.4544  0.9928 -0.8052
  861TIP3    H2 2541   6.851   6.661   2.275  0.2602  0.7128  0.0553
  862TIP3   OH2 2542   0.822   0.185   0.307  0.4019  0.1529  0.0815
  862TIP3    H1 2543   0.852   0.275   0.299  0.4774  0.0129 -1.5653
  862TIP3    H2 2544   0.728   0.189   0.289  0.1139  0.0772  1.4578
  863TIP3   OH2 2545   3.601   7.365   6.300 -0.3087  0.2514  0.7113
  863TIP3    H1 2546   3.558   7.364   6.385 -1.2723 -1.6443  0.2490
  863TIP3    H2 2547   3.551   7.427   6.248  0.3702  1.5323  1.5124
  864TIP3   OH2 2548   4.641   4.037   4.133 -0.5691  0.5552 -0.0561
  864TIP3    H1 2549   4.684   3.961   4.172  0.9288  0.9376 -0.8613
  864TIP3    H2 2550   4.553   4.006   4.111 -0.2575 -0.7034  0.3577
  865TIP3   OH2 2551   4.183   2.450   0.115 -0.2005  0.0270 -0.1390
  865TIP3    H1 2552   4.093   2.482   0.106 -0.0408  0.1674 -1.3759
  865TIP3    H2 2553   4.237   2.529   0.105  0.1737 -0.4750 -2.6028
  866TIP3   OH2 2554   6.648   6.802   0.302  0.2587  0.1209  0.3581
  866TIP3    H1 2555   6.718   6.819   0.239  1.3502 -0.1075  1.4715
  866TIP3    H2 2556   6.673   6.719   0.343 -0.7492 -0.0334  0.6737
  867TIP3   OH2 2557   1.588   2.525   3.544 -0.2658 -0.0265  0.1958
  867TIP3    H1 2558   1.640   2.491   3.471 -1.1799 -0.5220 -0.2401
  867TIP3    H2 2559   1.638   2.500   3.622  0.4676  0.0646 -0.2326
  868TIP3   OH2 2560   7.909   1.318   0.175  0.0585  0.9089 -0.0883
  868TIP3    H1 2561   7.867   1.234   0.194  1.2408  0.4485  0.5958
  868TIP3    H2 2562   7.988   1.318   0.229  1.5534  1.2340 -2.1558
  869TIP3   OH2 2563   3.283   5.573   6.583  0.3058  0.0671  0.1733
  869TIP3    H1 2564   3.230   5.494   6.576  2.8800 -2.1571  2.9745
  869TIP3    H2 2565   3.370   5.547   6.554  1.0890  2.0901  0.4916
  870TIP3   OH2 2566   8.248   7.023   5.749  0.3491  0.0989  0.1098
  870TIP3    H1 2567   8.329   7.004   5.701 -0.7452 -1.5838 -1.1500
  870TIP3    H2 2568   8.230   6.944   5.798 -1.6477 -0.4100 -1.3218
  871TIP3   OH2 2569   6.306   4.763   3.643 -0.0617 -0.7677 -0.1457
  871TIP3    H1 2570   6.383   4.715   3.611  1.6670  1.8872 -0.2917
  871TIP3    H2 2571   6.339   4.851   3.661 -2.7505  0.0243  1.4055
  872TIP3   OH2 2572   6.570   4.571   2.661 -0.2406  0.2190  0.4860
  872TIP3    H1 2573   6.544   4.519   2.737  0.0097  1.4616  1.4415
  872TIP3    H2 2574   6.662   4.551   2.648  0.3492  1.7642  1.9982
  873TIP3   OH2 2575   0.289   5.321   2.985 -0.5404  0.3049 -0.1182
  873TIP3    H1 2576   0.209   5.341   2.938 -0.9273 -1.8514 -0.4954
  873TIP3    H2 2577   0.278   5.230   3.014  0.8297  0.6731  1.7882
  874TIP3   OH2 2578   8.034   3.880   4.602 -0.2338 -0.1238  0.2140
  874TIP3    H1 2579   8.101   3.858   4.667 -0.4052 -0.3384  0.3178
  874TIP3    H2 2580   7.998   3.964   4.632  0.2738  0.2028 -0.0690
  875TIP3   OH2 2581   4.364   7.538   1.852 -0.0679 -0.3910 -0.1453
  875TIP3    H1 2582   4.322   7.522   1.936  1.5046 -0.9363  0.5704
  875TIP3    H2 2583   4.315   7.611   1.814 -0.0052  0.7238  1.8052
  876TIP3   OH2 2584   4.744   5.916   6.497  0.0276  0.3406 -0.1087
  876TIP3    H1 2585   4.726   6.000   6.539 -1.2020  0.0495 -0.0207
  876TIP3    H2 2586   4.797   5.939   6.420  1.1424  1.0035  0.8351
  877TIP3   OH2 2587   1.520   5.526   1.678 -0.2442  0.4358 -0.2892
  877TIP3    H1 2588   1.451   5.565   1.625 -0.8199 -1.1820 -0.8033
  877TIP3    H2 2589   1.518   5.433   1.655  1.7418  0.2471  0.1002
  878TIP3   OH2 2590   0.828   7.330   0.258  0.5301 -0.0822  0.6007
  878TIP3    H1 2591   0.873   7.246   0.261 -1.3228 -1.1194  1.6056
  878TIP3    H2 2592   0.802   7.339   0.166  1.9586  0.1092  0.1979
  879TIP3   OH2 2593   3.452   0.432   1.340 -0.4311 -0.2448 -0.1969
  879TIP3    H1 2594   3.465   0.338   1.341 -0.7589 -0.3854  3.4570
  879TIP3    H2 2595   3.538   0.469   1.320 -0.0655 -1.2973 -0.5802
  880TIP3   OH2 2596   4.580   3.592   3.980  0.6147 -0.0461  0.2502
  880TIP3    H1 2597   4.580   3.606   4.075  1.2549  2.1809 -0.0161
  880TIP3    H2 2598   4.672   3.598   3.955  0.2892  1.5964 -0.7357
  881TIP3   OH2 2599   7.173   2.230   0.175 -0.6073 -0.0822  0.1639
  881TIP3    H1 2600   7.129   2.295   0.231 -0.9661 -0.3012  0.1380
  881TIP3    H2 2601   7.200   2.280   0.098 -1.0248  0.0086  0.0717
  882TIP3   OH2 2602   2.666   4.009   1.827  0.5703  0.1578 -0.0304
  882TIP3    H1 2603   2.615   4.041   1.752  0.0399 -1.8099 -0.5744
  882TIP3    H2 2604   2.608   3.944   1.868  0.9366  1.0497  1.9883
  883TIP3   OH2 2605   5.424   2.622   0.948 -0.6068 -0.3599 -0.1228
  883TIP3    H1 2606   5.392   2.554   1.006  0.9210  0.0471  1.2939
  883TIP3    H2 2607   5.359   2.692   0.954 -0.0073  0.0996  1.9931
  884TIP3   OH2 2608   0.708   7.024   4.301  0.4085  0.1597 -0.0588
  884TIP3    H1 2609   0.734   6.936   4.328  0.5839  0.4417  0.7413
  884TIP3    H2 2610   0.654   7.011   4.224 -0.2370 -0.7111  0.5256
  885TIP3   OH2 2611   4.436   1.722   1.365 -0.4973  0.2605 -0.1618
  885TIP3    H1 2612   4.344   1.746   1.360 -0.1243  1.5205 -1.9102
  885TIP3    H2 2613   4.454   1.716   1.459 -2.5421 -0.9132  0.2030
  886TIP3   OH2 2614   5.623   4.301   2.152 -0.5067  0.2194  0.4015
  886TIP3    H1 2615   5.702   4.344   2.121 -0.4141  1.0013  1.6465
  886TIP3    H2 2616   5.616   4.327   2.244 -2.7768  1.0698  0.0661
  887TIP3   OH2 2617   5.249   5.122   3.173  0.7960  0.5087 -1.2963
  887TIP3    H1 2618   5.326   5.166   3.136 -0.1053  2.0558 -1.4219
  887TIP3    H2 2619   5.183   5.191   3.181 -0.3526 -0.6262 -0.5082
  888TIP3   OH2 2620   4.214   5.602   6.523  0.3952  0.0306 -0.2121
  888TIP3    H1 2621   4.281   5.565   6.582 -0.6267 -0.3352  0.7546
  888TIP3    H2 2622   4.187   5.528   6.468 -0.7687 -0.4088  0.8948
  889TIP3   OH2 2623   3.763   1.007   3.240  0.3866 -0.1754 -0.2461
  889TIP3    H1 2624   3.699   0.936   3.247  1.2885 -1.1065 -1.0856
  889TIP3    H2 2625   3.727   1.077   3.294 -0.4593 -1.3195  0.7354
  890TIP3   OH2 2626   0.219   1.435   0.007 -0.0623 -0.1620 -0.0839
  890TIP3    H1 2627   0.284   1.397   0.066 -0.7775 -1.1819  0.0660
  890TIP3    H2 2628   0.220   1.377  -0.069 -0.5476  0.0282 -0.2355
  891TIP3   OH2 2629   1.146   1.824   6.044  0.0817  0.3155 -0.2592
  891TIP3    H1 2630   1.227   1.840   6.091  1.2304 -1.1723 -1.6144
  891TIP3    H2 2631   1.144   1.889   5.974 -1.0473  1.7769  1.0695
  892TIP3   OH2 2632   0.801   2.975   3.092 -0.4967 -0.0767 -0.1171
  892TIP3    H1 2633   0.806   3.067   3.066  0.5229 -0.3103 -0.7771
  892TIP3    H2 2634   0.723   2.970   3.147 -1.3911  0.9064 -1.2388
  893TIP3   OH2 2635   6.774   0.622   6.163  0.1663 -0.3681  0.0984
  893TIP3    H1 2636   6.703   0.574   6.119 -0.2369 -0.0225  0.3609
  893TIP3    H2 2637   6.778   0.706   6.117  0.2245 -0.2825  0.2606
  894TIP3   OH2 2638   1.277   3.121   5.956  0.0795 -0.4322 -0.0027
  894TIP3    H1 2639   1.245   3.047   6.007  0.5925 -2.5584 -2.5204
  894TIP3    H2 2640   1.359   3.090   5.918 -1.4611 -0.1007 -4.0986
  895TIP3   OH2 2641   1.450   3.415   1.702  0.9198  0.5694 -1.0464
  895TIP3    H1 2642   1.505   3.379   1.771  0.2592 -1.8764 -1.6988
  895TIP3    H2 2643   1.367   3.434   1.746  1.0707  0.7491 -0.8305
  896TIP3   OH2 2644   2.559   6.159   5.772  0.4228  0.3135  0.2187
  896TIP3    H1 2645   2.590   6.120   5.690 -0.3500 -0.9874  0.5109
  896TIP3    H2 2646   2.544   6.251   5.750  2.2970  0.4965 -0.5014
  897TIP3   OH2 2647   4.851   3.613   0.346  0.2524 -0.4172  0.4705
  897TIP3    H1 2648   4.764   3.597   0.309 -0.0382  1.0312  0.4593
  897TIP3    H2 2649   4.911   3.567   0.288 -0.3368  0.4421 -0.8647
  898TIP3   OH2 2650   4.523   2.395   0.171 -0.3944  0.1176  0.6378
  898TIP3    H1 2651   4.586   2.323   0.173 -1.4659 -0.8409  0.8522
  898TIP3    H2 2652   4.465   2.374   0.098 -1.1359  0.3983  1.1393
  899TIP3   OH2 2653   4.730   0.969   4.627 -0.0603  0.1747 -0.0587
  899TIP3    H1 2654   4.772   0.898   4.675 -0.9180 -0.3940 -0.1288
  899TIP3    H2 2655   4.648   0.932   4.596 -0.2956  1.0509 -0.5216
  900TIP3   OH2 2656   2.262   5.223   6.467 -0.3012 -0.0461  0.4438
  900TIP3    H1 2657   2.217   5.294   6.420  0.3571  0.0520 -0.0537
  900TIP3    H2 2658   2.339   5.265   6.505  0.8600 -0.7456 -1.0273
  901TIP3   OH2 2659   7.596   0.456   5.467 -0.0517  0.1468 -0.4357
  901TIP3    H1 2660   7.586   0.385   5.403 -1.0799  0.1268 -0.2674
  901TIP3    H2 2661   7.509   0.496   5.471  0.2247  0.6777  0.3332
  902TIP3   OH2 2662   3.716   0.640   2.653  0.3226  0.2103 -0.1286
  902TIP3    H1 2663   3.791   0.626   2.710  0.5572  1.3015 -0.1376
  902TIP3    H2 2664   3.751   0.635   2.564  0.0959 -0.7414 -0.1776
  903TIP3   OH2 2665   7.475   6.507   5.353  0.1631 -0.5974 -0.7768
  903TIP3    H1 2666   7.508   6.434   5.405 -1.0158  0.4216  1.5586
  903TIP3    H2 2667   7.539   6.576   5.364 -0.6519  0.0046  0.3210
  904TIP3   OH2 2668   4.141   7.563   3.806  0.1341  0.0486  0.3652
  904TIP3    H1 2669   4.199   7.496   3.841  0.1229  0.0995  0.4820
  904TIP3    H2 2670   4.070   7.570   3.870  0.1320  0.1679  0.3517
  905TIP3   OH2 2671   7.274   4.871   1.114  0.7585  0.6995  0.0567
  905TIP3    H1 2672   7.328   4.945   1.143 -2.6268  3.3305  0.3478
  905TIP3    H2 2673   7.242   4.897   1.028 -2.3694  0.8218  1.1250
  906TIP3   OH2 2674   2.720   3.523   2.480  0.0717 -0.6428  0.1716
  906TIP3    H1 2675   2.689   3.488   2.396  1.2015 -1.0582 -0.0836
  906TIP3    H2 2676   2.777   3.454   2.514  1.9164  0.7031 -0.0773
  907TIP3   OH2 2677   7.522   5.698   3.587  0.0295 -0.1169 -0.3307
  907TIP3    H1 2678   7.483   5.613   3.605  1.5847 -0.8975 -0.5085
  907TIP3    H2 2679   7.500   5.715   3.495 -1.7595  0.5259  0.1653
  908TIP3   OH2 2680   7.080   1.432   5.672  0.0054 -1.0006 -0.1366
  908TIP3    H1 2681   7.143   1.487   5.626 -0.2035 -0.0383  0.6980
  908TIP3    H2 2682   7.030   1.390   5.602  1.8213 -2.1468 -0.8456
  909TIP3   OH2 2683   6.893   0.460   4.587 -0.2361  0.3084 -0.4198
  909TIP3    H1 2684   6.828   0.511   4.539  0.5430  0.3134 -1.5133
  909TIP3    H2 2685   6.842   0.400   4.641 -1.1501 -0.0356 -1.6328
  910TIP3   OH2 2686   0.559   5.921   3.657  0.2143  0.5235 -0.4976
  910TIP3    H1 2687   0.575   5.864   3.732  0.0128 -0.9111 -1.5039
  910TIP3    H2 2688   0.640   5.916   3.606  0.0968  0.9412 -0.7226
  911TIP3   OH2 2689   6.876   6.821   1.308  0.2488 -0.1400  0.3838
  911TIP3    H1 2690   6.857   6.866   1.390 -0.7629 -1.7957  1.1064
  911TIP3    H2 2691   6.791   6.808   1.267  0.2958 -2.5852  0.8928
  912TIP3   OH2 2692   5.539   3.698   4.582 -0.1975  0.0368  0.3649
  912TIP3    H1 2693   5.533   3.740   4.668  1.6020 -0.6279  0.8644
  912TIP3    H2 2694   5.605   3.630   4.593 -1.4969 -1.5127 -1.0030
  913TIP3   OH2 2695   1.374   6.759   3.060 -0.3850 -0.2142  0.1228
  913TIP3    H1 2696   1.302   6.734   3.002 -0.2219  1.4017 -0.8359
  913TIP3    H2 2697   1.448   6.773   3.001 -0.5175  2.6169  0.4797
  914TIP3   OH2 2698   3.661   4.411   4.556  0.5369 -0.0585  0.0127
  914TIP3    H1 2699   3.641   4.340   4.495  1.0102 -0.1458 -0.0430
  914TIP3    H2 2700   3.733   4.459   4.515 -1.8013  2.4212 -1.5380
  915TIP3   OH2 2701   1.978   4.343   1.428  0.6675 -0.2532  0.2643
  915TIP3    H1 2702   2.044   4.410   1.447 -1.2048  1.3472  1.4282
  915TIP3    H2 2703   1.933   4.375   1.350 -0.4693  0.0224  1.0294
  916TIP3   OH2 2704   2.666   2.325   2.928 -0.1111 -0.1610  0.5197
  916TIP3    H1 2705   2.573   2.303   2.935 -0.3413 -0.8093 -2.8233
  916TIP3    H2 2706   2.707   2.243   2.898  1.0412  0.8000 -0.6333
  917TIP3   OH2 2707   4.997   2.807   0.249  0.2511 -0.1047 -0.0727
  917TIP3    H1 2708   5.050   2.813   0.169 -1.0729  0.3981 -0.9526
  917TIP3    H2 2709   4.912   2.843   0.224 -0.1982  0.0713  1.5843
  918TIP3   OH2 2710   1.325   7.628   2.441  0.2545 -0.4402 -0.3253
  918TIP3    H1 2711   1.351   7.720   2.441  1.1141 -0.6166  1.8662
  918TIP3    H2 2712   1.335   7.600   2.350  1.5832  1.2130 -0.7355
  919TIP3   OH2 2713   1.615   1.724   2.350 -0.4971 -0.1915 -0.2472
  919TIP3    H1 2714   1.703   1.754   2.329 -0.7571  0.5939 -0.2350
  919TIP3    H2 2715   1.623   1.629   2.358  0.3531 -0.1175 -0.2012
  920TIP3   OH2 2716   3.611   2.918   2.245  0.2056 -0.2783  0.1823
  920TIP3    H1 2717   3.666   2.889   2.172  0.7066  0.6068  0.2052
  920TIP3    H2 2718   3.670   2.967   2.302 -0.2402 -0.7377  1.0603
  921TIP3   OH2 2719   6.546   0.154   5.543  0.0376  0.2482  0.4091
  921TIP3    H1 2720   6.532   0.061   5.528 -1.5472  0.2178  1.7892
  921TIP3    H2 2721   6.634   0.159   5.580 -0.1686 -0.8193  1.0874
  922TIP3   OH2 2722   2.927   4.755   3.490 -0.5357  0.3927 -0.0682
  922TIP3    H1 2723   2.982   4.682   3.516 -0.4522  0.9480  1.3980
  922TIP3    H2 2724   2.880   4.724   3.412 -2.2761 -2.1085  1.8335
  923TIP3   OH2 2725   4.725   6.668   4.316  0.0828  0.7249  0.8679
  923TIP3    H1 2726   4.799   6.727   4.299  0.3889 -0.2592 -1.7113
  923TIP3    H2 2727   4.652   6.707   4.267 -0.0964 -0.2403  0.3540
  924TIP3   OH2 2728   5.109   2.557   5.167 -0.1518  0.6243  0.2294
  924TIP3    H1 2729   5.157   2.635   5.195  1.2913 -0.1528  0.0449
  924TIP3    H2 2730   5.065   2.583   5.087 -0.1699  1.4124  0.4819
  925TIP3   OH2 2731   7.335   6.720   4.727  0.0619  0.1236  0.6457
  925TIP3    H1 2732   7.259   6.738   4.672  2.2312  0.4030 -2.5157
  925TIP3    H2 2733   7.381   6.804   4.731  2.0252 -0.8317 -0.6081
  926TIP3   OH2 2734   3.328   3.849   5.198 -0.3164  0.3416 -0.3052
  926TIP3    H1 2735   3.417   3.861   5.231 -0.7004  0.3577  0.7682
  926TIP3    H2 2736   3.294   3.938   5.188 -0.7242  0.3053  0.7420
  927TIP3   OH2 2737   5.468   1.929   4.316 -0.2798 -0.2655 -0.5921
  927TIP3    H1 2738   5.497   1.844   4.348 -1.4185 -0.7407 -0.7603
  927TIP3    H2 2739   5.542   1.964   4.268  0.7350 -0.4880  0.7500
  928TIP3   OH2 2740   3.092   7.406   1.768  0.0536  0.1639 -0.0652
  928TIP3    H1 2741   3.054   7.456   1.840  1.3953 -1.6464  2.0199
  928TIP3    H2 2742   3.130   7.328   1.809  1.1389 -0.8423 -2.7025
  929TIP3   OH2 2743   7.683   1.313   4.642 -0.4643  0.0262  0.8904
  929TIP3    H1 2744   7.687   1.313   4.547  1.0739  0.0603  0.9335
  929TIP3    H2 2745   7.662   1.222   4.665 -0.9327  0.0383  0.5339
  930TIP3   OH2 2746   4.707   5.043   4.560  0.4282 -0.2015 -0.3668
  930TIP3    H1 2747   4.750   5.116   4.605  0.5063 -0.7071  0.3966
  930TIP3    H2 2748   4.743   4.965   4.601 -0.2723 -0.6588 -0.6046
  931TIP3   OH2 2749   7.883   3.854   2.202 -0.5350  0.7900 -0.5270
  931TIP3    H1 2750   7.970   3.891   2.194  0.3378 -1.2669 -1.3253
  931TIP3    H2 2751   7.882   3.813   2.288 -1.3428  2.1986  0.1742
  932TIP3   OH2 2752   2.652   4.922   5.651  0.1535 -0.3640 -0.1589
  932TIP3    H1 2753   2.592   4.914   5.726  0.0676 -0.0145 -0.1876
  932TIP3    H2 2754   2.670   5.016   5.645 -1.3035 -0.1333 -1.7141
  933TIP3   OH2 2755   3.159   4.145   4.684  0.1363  0.0808 -0.3844
  933TIP3    H1 2756   3.182   4.106   4.600  0.2924  0.0419 -0.3226
  933TIP3    H2 2757   3.173   4.239   4.672  2.0537 -0.1020  0.2079
  934TIP3   OH2 2758   8.040   3.671   6.466 -0.8075  0.0600  0.2097
  934TIP3    H1 2759   7.951   3.660   6.431 -0.7309 -1.0131  0.3198
  934TIP3    H2 2760   8.027   3.714   6.550 -1.4019 -1.7092  1.0759
  935TIP3   OH2 2761   2.365   3.985   0.684  0.5824  0.2877 -0.3898
  935TIP3    H1 2762   2.319   3.997   0.601 -0.4142 -1.2320 -0.0854
  935TIP3    H2 2763   2.298   3.952   0.744  1.3048  1.2562  1.0097
  936TIP3   OH2 2764   5.278  -0.016   0.273  0.2384 -0.7396  0.1230
  936TIP3    H1 2765   5.371  -0.020   0.253  0.3875  1.5959  0.0779
  936TIP3    H2 2766   5.258   0.078   0.275 -1.9441 -1.1645  0.9029
  937TIP3   OH2 2767   7.978   1.212   4.590  0.0659  0.1137 -0.4306
  937TIP3    H1 2768   8.043   1.273   4.623  1.1339 -1.6953  0.9796
  937TIP3    H2 2769   7.897   1.264   4.585  0.5531  1.3018  2.1833
  938TIP3   OH2 2770   6.832   7.378   0.638  0.1283 -0.1957 -0.1517
  938TIP3    H1 2771   6.795   7.350   0.554 -0.5582 -1.0165  0.4035
  938TIP3    H2 2772   6.766   7.351   0.703  1.6853 -1.7332  0.8723
  939TIP3   OH2 2773   0.315   1.611   4.985 -0.4968 -0.2302 -0.4601
  939TIP3    H1 2774   0.378   1.606   4.914 -0.3771  0.8439 -0.4349
  939TIP3    H2 2775   0.282   1.521   4.994 -1.4673 -0.1633 -2.7195
  940TIP3   OH2 2776   7.050   1.421   1.496  0.6054  0.1594 -0.2121
  940TIP3    H1 2777   7.004   1.455   1.419 -0.7578  0.5676  0.7605
  940TIP3    H2 2778   7.126   1.375   1.459  0.0899  0.4970 -1.7885
  941TIP3   OH2 2779   2.931   2.081   0.391  0.4071 -0.2015 -0.0088
  941TIP3    H1 2780   2.923   2.122   0.477 -1.2509 -0.7477  0.1358
  941TIP3    H2 2781   3.023   2.057   0.384  0.5153 -0.4502  1.7575
  942TIP3   OH2 2782   4.897   5.695   5.921  0.2268 -0.0456  0.3305
  942TIP3    H1 2783   4.928   5.666   5.835  1.4064  0.0730  0.7005
  942TIP3    H2 2784   4.928   5.628   5.982 -0.2375  0.0881  0.7218
  943TIP3   OH2 2785   5.022   5.584   0.145 -0.1550  0.3111 -0.5352
  943TIP3    H1 2786   4.973   5.536   0.212  1.3169 -2.3063 -1.1836
  943TIP3    H2 2787   4.963   5.583   0.069 -0.3081 -0.1861 -0.4200
  944TIP3   OH2 2788   7.694   2.337   3.374  0.2325  0.3724 -0.3923
  944TIP3    H1 2789   7.748   2.416   3.385 -0.0800  0.6220 -0.6750
  944TIP3    H2 2790   7.754   2.272   3.337  0.0456  1.0147 -1.8801
  945TIP3   OH2 2791   3.727   5.476   6.295 -0.2871 -0.2568 -0.6185
  945TIP3    H1 2792   3.767   5.418   6.359 -1.2726  2.1788  2.4814
  945TIP3    H2 2793   3.801   5.506   6.241  1.0010 -0.8422  0.7294
  946TIP3   OH2 2794   5.351   1.527   6.265 -0.2673  0.3879 -0.1307
  946TIP3    H1 2795   5.407   1.563   6.197 -0.0815 -1.7581 -1.1790
  946TIP3    H2 2796   5.386   1.440   6.283 -0.8681  0.5339  2.0909
  947TIP3   OH2 2797   6.389   7.627   5.538 -0.1423  1.1279 -0.1649
  947TIP3    H1 2798   6.459   7.587   5.486 -0.2181 -0.6002  0.9782
  947TIP3    H2 2799   6.370   7.710   5.493  2.0189  1.2357 -1.0018
  948TIP3   OH2 2800   4.140   5.152   3.614 -0.1219 -0.4234  0.4012
  948TIP3    H1 2801   4.147   5.113   3.526 -3.3549 -2.0377  0.7132
  948TIP3    H2 2802   4.189   5.093   3.670 -1.3600 -1.6741  0.2112
  949TIP3   OH2 2803   1.960   6.293   2.728 -0.2358 -0.1703 -0.0867
  949TIP3    H1 2804   1.892   6.357   2.749  0.1218 -0.0866  0.8250
  949TIP3    H2 2805   2.042   6.342   2.732 -0.0196 -0.5266 -0.0716
  950TIP3   OH2 2806   5.303   5.232   1.877 -0.3339  0.3907 -0.0244
  950TIP3    H1 2807   5.306   5.211   1.970 -0.5644 -0.7361 -0.2597
  950TIP3    H2 2808   5.389   5.272   1.859  0.1884 -0.4947  0.4199
  951TIP3   OH2 2809   1.389   1.214   1.024 -0.2064  0.5794 -0.2792
  951TIP3    H1 2810   1.433   1.291   1.060  0.0128  1.0195 -1.4433
  951TIP3    H2 2811   1.300   1.219   1.060  0.5839 -0.2444  1.9822
  952TIP3   OH2 2812   6.479   6.406   3.163  0.2560  0.1869  0.0250
  952TIP3    H1 2813   6.486   6.311   3.154  2.2245  0.3568 -0.8912
  952TIP3    H2 2814   6.389   6.426   3.137 -0.4886 -1.4826  1.1393
  953TIP3   OH2 2815   1.241   1.575   4.951 -0.0154 -0.0641  0.1722
  953TIP3    H1 2816   1.280   1.533   4.875  1.2417  0.1064  0.7072
  953TIP3    H2 2817   1.183   1.509   4.988  0.3673 -0.5988 -0.1742
  954TIP3   OH2 2818   6.996   3.474   0.412 -0.3506  0.6783  0.5171
  954TIP3    H1 2819   7.041   3.417   0.349  2.0793  1.3977  1.4604
  954TIP3    H2 2820   6.958   3.415   0.476  2.1354  0.0088  1.4905
  955TIP3   OH2 2821   0.375   7.049   2.114  0.0262 -0.1184  0.2173
  955TIP3    H1 2822   0.368   7.075   2.206  2.9705  2.5026 -0.1340
  955TIP3    H2 2823   0.354   6.956   2.114  2.5310 -0.9166  4.0368
  956TIP3   OH2 2824   1.299   2.657   3.882 -0.3939  0.7665  0.3330
  956TIP3    H1 2825   1.219   2.606   3.866  0.6911 -1.7438  2.3399
  956TIP3    H2 2826   1.316   2.701   3.798 -1.4352 -2.1789 -1.5958
  957TIP3   OH2 2827   6.734   7.743   3.637 -0.6985  0.0695 -0.1815
  957TIP3    H1 2828   6.762   7.768   3.725  0.2491 -1.4603 -0.0101
  957TIP3    H2 2829   6.661   7.801   3.618 -0.7164  0.6519  1.4848
  958TIP3   OH2 2830   1.649   5.349   6.215 -0.1140  0.0106 -0.4154
  958TIP3    H1 2831   1.563   5.343   6.173 -1.2671 -1.0873  1.8873
  958TIP3    H2 2832   1.663   5.443   6.228 -1.2226  0.1836 -0.3761
  959TIP3   OH2 2833   6.239   7.621   1.686 -0.4913 -0.1179 -0.1637
  959TIP3    H1 2834   6.221   7.709   1.719  0.7252  0.4464 -0.9281
  959TIP3    H2 2835   6.331   7.624   1.660 -0.8063 -1.1908 -1.5040
  960TIP3   OH2 2836   6.549   4.285   6.500 -0.3088 -0.1187 -0.2130
  960TIP3    H1 2837   6.481   4.353   6.501 -1.0636 -0.8599  0.4222
  960TIP3    H2 2838   6.537   4.241   6.416 -0.2928  0.0624 -0.3111
  961TIP3   OH2 2839   5.321   0.627   1.961 -0.6288 -0.1077  0.4121
  961TIP3    H1 2840   5.231   0.656   1.976  0.0589  1.8091  1.1705
  961TIP3    H2 2841   5.346   0.667   1.878 -0.3219 -0.1956  0.4615
  962TIP3   OH2 2842   3.159   5.497   5.787 -0.0009 -0.2839  0.6582
  962TIP3    H1 2843   3.186   5.573   5.838 -1.2047 -0.3126  1.3895
  962TIP3    H2 2844   3.124   5.436   5.852  0.3260 -1.1896  0.0091
  963TIP3   OH2 2845   2.830   5.261   5.139 -0.2242  0.2969  0.4682
  963TIP3    H1 2846   2.785   5.181   5.113 -0.3655  0.4608  0.2037
  963TIP3    H2 2847   2.919   5.234   5.159 -0.6308 -0.1699  1.7421
  964TIP3   OH2 2848   1.171   4.418   6.060  0.2328  0.2767 -0.6704
  964TIP3    H1 2849   1.202   4.329   6.077  0.1905  0.3166 -0.3821
  964TIP3    H2 2850   1.187   4.465   6.142  0.2221  0.5244 -0.8108
  965TIP3   OH2 2851   1.767   6.591   5.133  0.2665  0.3083  0.1486
  965TIP3    H1 2852   1.773   6.685   5.150  1.3821  0.1802  0.4988
  965TIP3    H2 2853   1.691   6.583   5.075  0.4413  1.4814 -0.2812
  966TIP3   OH2 2854   2.440   6.704   5.760  0.3456  0.0584  0.6244
  966TIP3    H1 2855   2.511   6.703   5.695 -0.9558 -1.6039 -0.8733
  966TIP3    H2 2856   2.365   6.741   5.714 -1.4230 -3.7336  0.0743
  967TIP3   OH2 2857   0.839   1.531   2.036 -0.3505 -0.6124 -0.5021
  967TIP3    H1 2858   0.889   1.451   2.050 -0.6542 -0.4591  1.9371
  967TIP3    H2 2859   0.878   1.594   2.096 -0.5385  0.8902 -1.9036
  968TIP3   OH2 2860   6.575   1.684   6.516 -0.0721 -0.0563  0.0930
  968TIP3    H1 2861   6.612   1.685   6.427  1.9701 -0.8978  0.8800
  968TIP3    H2 2862   6.530   1.600   6.522 -0.5288  0.1557 -0.2404
  969TIP3   OH2 2863   3.764   4.268   4.777  0.2231 -0.6497 -0.2619
  969TIP3    H1 2864   3.703   4.294   4.707 -0.8646  0.8667  1.1509
  969TIP3    H2 2865   3.707   4.247   4.851  1.3793 -0.9767  0.5537
  970TIP3   OH2 2866   6.024   7.444   0.619  0.0318 -0.3242 -0.2322
  970TIP3    H1 2867   6.071   7.361   0.630 -0.3153 -0.8269 -2.2554
  970TIP3    H2 2868   5.935   7.419   0.594  0.3793  0.5983 -2.6606
  971TIP3   OH2 2869   3.514   2.593   4.284 -0.3745 -0.3597 -0.7092
  971TIP3    H1 2870   3.419   2.580   4.295 -0.5323  0.5516 -0.9763
  971TIP3    H2 2871   3.547   2.600   4.374 -1.0822  2.8858 -0.5842
  972TIP3   OH2 2872   4.667   5.172   5.792 -0.2734  0.1477  0.1718
  972TIP3    H1 2873   4.701   5.250   5.748 -1.8351  0.2456 -0.9593
  972TIP3    H2 2874   4.666   5.196   5.885 -0.1011  1.2187 -0.0833
  973TIP3   OH2 2875   6.833   0.564   4.170 -0.2405 -0.0390 -0.5975
  973TIP3    H1 2876   6.761   0.517   4.127 -0.5055  0.8981 -1.2154
  973TIP3    H2 2877   6.904   0.500   4.175 -0.7434 -0.6413 -1.0049
  974TIP3   OH2 2878   6.219   7.426   5.944 -0.2150  0.5516 -0.3387
  974TIP3    H1 2879   6.139   7.443   5.894 -1.2349  2.4349  1.7488
  974TIP3    H2 2880   6.282   7.490   5.910 -0.4726  0.9258 -0.1126
  975TIP3   OH2 2881   4.954   1.216   4.714 -0.1108 -0.0193 -0.5567
  975TIP3    H1 2882   4.946   1.148   4.648 -1.1057  1.8368 -2.4587
  975TIP3    H2 2883   4.919   1.176   4.794 -1.3379 -1.4968 -1.7712
  976TIP3   OH2 2884   3.397   7.505   6.193  1.1677  0.2397 -0.0491
  976TIP3    H1 2885   3.328   7.569   6.207  2.0670  1.1510  0.3782
  976TIP3    H2 2886   3.393   7.484   6.100  0.1254  0.0322  0.0315
  977TIP3   OH2 2887   3.397   5.386   2.287 -0.0469  0.2572 -0.0338
  977TIP3    H1 2888   3.461   5.405   2.219  0.9771 -0.5428  0.6814
  977TIP3    H2 2889   3.444   5.399   2.369 -1.1850  0.9275  0.5455
  978TIP3   OH2 2890   5.565   0.653   4.275  0.0100 -0.2712  0.3709
  978TIP3    H1 2891   5.658   0.674   4.285  0.0252  0.4144 -1.0715
  978TIP3    H2 2892   5.557   0.619   4.186 -0.9258 -1.4692  0.8894
  979TIP3   OH2 2893   2.235   2.614   2.551  0.6226  0.0873 -0.0759
  979TIP3    H1 2894   2.169   2.552   2.521  0.7948 -0.0748 -0.1263
  979TIP3    H2 2895   2.284   2.567   2.618  0.7557  0.1656 -0.1156
  980TIP3   OH2 2896   3.791   6.529   2.301 -0.9073 -0.7129  0.4039
  980TIP3    H1 2897   3.769   6.450   2.252  1.0027 -0.5339 -0.8421
  980TIP3    H2 2898   3.765   6.601   2.245 -1.8421 -0.4515  1.1591
  981TIP3   OH2 2899   5.686   4.456   3.398 -0.0730 -0.4593 -0.5502
  981TIP3    H1 2900   5.660   4.547   3.414  0.0322 -0.4628 -0.3616
  981TIP3    H2 2901   5.702   4.420   3.485  0.7159 -0.4168 -0.6711
  982TIP3   OH2 2902   8.077   7.243   3.711 -0.1688 -0.1560  0.0106
  982TIP3    H1 2903   8.000   7.253   3.654 -0.3196  2.4849  0.5820
  982TIP3    H2 2904   8.042   7.251   3.800  0.6021 -0.1755  0.3219
  983TIP3   OH2 2905   3.145   3.333   0.865 -0.3260  0.3345 -0.8325
  983TIP3    H1 2906   3.153   3.416   0.818  1.3307  0.2032 -0.8410
  983TIP3    H2 2907   3.215   3.336   0.930  1.4824 -2.0936 -2.4852
  984TIP3   OH2 2908   4.225   6.974   5.837 -0.0504  0.4616  0.4376
  984TIP3    H1 2909   4.156   6.966   5.903 -0.3231  1.0176  0.2246
  984TIP3    H2 2910   4.305   6.948   5.884 -0.3608  0.0608  0.7539
  985TIP3   OH2 2911   1.951   0.701   6.136  0.5733  0.0480 -0.0389
  985TIP3    H1 2912   2.045   0.680   6.134  0.8741  0.9033  2.3023
  985TIP3    H2 2913   1.910   0.623   6.173  0.2368 -0.5524 -1.5984
  986TIP3   OH2 2914   6.779   0.975   5.591 -0.5423 -0.2721  0.3101
  986TIP3    H1 2915   6.758   1.041   5.524 -3.4385 -0.8218  0.5567
  986TIP3    H2 2916   6.730   1.002   5.668  0.4694 -1.2299  1.3281
  987TIP3   OH2 2917   7.635   4.164   4.206  0.1752  0.2348  0.2890
  987TIP3    H1 2918   7.660   4.168   4.299 -0.3913 -0.3123  0.4736
  987TIP3    H2 2919   7.615   4.255   4.183 -1.0230  0.2025  1.0976
  988TIP3   OH2 2920   2.166   7.024   5.439 -0.2581 -0.2125  0.1777
  988TIP3    H1 2921   2.224   7.073   5.380  0.5775  0.7179  1.7136
  988TIP3    H2 2922   2.163   7.076   5.519 -0.8352 -1.7730  1.2185
  989TIP3   OH2 2923   0.269   4.888   2.957 -0.0633  0.0883 -0.3891
  989TIP3    H1 2924   0.275   4.793   2.949  0.8366  0.1438 -0.4781
  989TIP3    H2 2925   0.286   4.905   3.050  0.1723  0.1865 -0.4490
  990TIP3   OH2 2926   1.818   4.038   2.324  0.3726  0.8978  0.0044
  990TIP3    H1 2927   1.749   4.078   2.378 -1.0152 -1.9489  0.5333
  990TIP3    H2 2928   1.783   3.952   2.300  3.3570 -0.2725 -0.5995
  991TIP3   OH2 2929   0.408   1.229   2.534 -0.1854  0.3921 -0.0180
  991TIP3    H1 2930   0.404   1.158   2.598  0.8724 -0.2712 -0.6570
  991TIP3    H2 2931   0.500   1.230   2.505 -0.6905  0.4713 -1.7382
  992TIP3   OH2 2932   8.149   2.602   4.180  0.3432  0.1156 -0.5206
  992TIP3    H1 2933   8.226   2.609   4.236 -0.0367 -0.4556  0.1026
  992TIP3    H2 2934   8.099   2.530   4.219 -0.3841  0.3247 -1.0570
  993TIP3   OH2 2935   5.457   5.565   4.614 -0.1252 -0.0999  0.2285
  993TIP3    H1 2936   5.521   5.608   4.558 -1.6045  2.5312  0.4212
  993TIP3    H2 2937   5.414   5.501   4.557  1.6948 -0.9710 -0.2414
  994TIP3   OH2 2938   4.374   0.682   5.934  0.0120  0.0768  0.6095
  994TIP3    H1 2939   4.295   0.734   5.950  0.8496  1.1102  1.5829
  994TIP3    H2 2940   4.364   0.606   5.991 -0.8461 -0.4451 -0.2136
  995TIP3   OH2 2941   5.661   2.490   1.841  0.0235 -0.2576  0.3520
  995TIP3    H1 2942   5.699   2.477   1.928 -0.2479 -1.6568  0.2843
  995TIP3    H2 2943   5.566   2.495   1.858 -0.1705 -2.0912  0.0219
  996TIP3   OH2 2944   5.928   1.649   5.189 -0.5285 -0.3948 -0.1945
  996TIP3    H1 2945   5.870   1.586   5.147 -1.0368 -1.6841  2.2519
  996TIP3    H2 2946   6.015   1.611   5.180 -0.6016 -0.5458 -0.2677
  997TIP3   OH2 2947   4.647   4.073   0.800  0.3517  0.1371 -0.9144
  997TIP3    H1 2948   4.643   4.007   0.731  2.8546 -2.3714  1.0961
  997TIP3    H2 2949   4.618   4.026   0.879 -0.1096  2.1960  0.1957
  998TIP3   OH2 2950   3.858   4.360   2.947 -0.1386  0.9442 -0.1750
  998TIP3    H1 2951   3.776   4.358   2.996  0.4264  0.2219  0.7738
  998TIP3    H2 2952   3.849   4.289   2.883  0.1490  0.1860  0.6145
  999TIP3   OH2 2953   0.365   2.516   5.539  0.4806  0.0467 -0.1152
  999TIP3    H1 2954   0.398   2.481   5.457  0.1229  1.0863 -0.7156
  999TIP3    H2 2955   0.335   2.604   5.518 -1.1400 -0.2387  0.7589
 1000TIP3   OH2 2956   4.680   6.522   3.803 -0.0399 -0.4507 -0.3253
 1000TIP3    H1 2957   4.747   6.588   3.822  1.0993 -1.0432 -2.0501
 1000TIP3    H2 2958   4.709   6.481   3.722 -1.2452 -2.4087  0.1641
 1001TIP3   OH2 2959   3.764   2.013   2.550 -0.1051 -0.1485  0.1989
 1001TIP3    H1 2960   3.693   2.068   2.517  0.2413 -0.2901 -0.8199
 1001TIP3    H2 2961   3.791   2.056   2.632 -2.1316 -0.7464  1.2709
 1002TIP3   OH2 2962   6.972   7.229   5.460 -0.4687 -0.1626  0.6379
 1002TIP3    H1 2963   7.060   7.267   5.468 -0.5260 -0.2391  1.7923
 1002TIP3    H2 2964   6.981   7.141   5.497 -1.3177  0.2987  2.0042
 1003TIP3   OH2 2965   6.785   6.976   1.525 -0.4465 -0.1035  0.2863
 1003TIP3    H1 2966   6.750   6.984   1.613  0.1220  0.5266  0.4595
 1003TIP3    H2 2967   6.730   7.034   1.472 -0.1410  0.3028  0.4156
 1004TIP3   OH2 2968   4.689   0.525   1.702 -0.4997 -0.1647 -0.2591
 1004TIP3    H1 2969   4.595   0.522   1.687 -0.6469 -1.3807  0.7051
 1004TIP3    H2 2970   4.719   0.436   1.683  0.3070 -0.0171  0.2788
 1005TIP3   OH2 2971   1.071   4.256   2.379  0.0327  0.2621  0.3911
 1005TIP3    H1 2972   1.065   4.249   2.474 -1.5544  1.7928  0.4569
 1005TIP3    H2 2973   1.060   4.166   2.347 -1.5420 -0.0233  1.6040
 1006TIP3   OH2 2974   8.222   3.437   3.174 -0.0409  0.1212 -0.2742
 1006TIP3    H1 2975   8.194   3.348   3.152 -0.3019  0.2813 -0.5972
 1006TIP3    H2 2976   8.311   3.443   3.140 -0.4516  0.3738 -1.3171
 1007TIP3   OH2 2977   4.031   4.470   2.356  0.0157 -0.7310 -0.6159
 1007TIP3    H1 2978   3.957   4.515   2.397  1.0863  1.1410 -0.6764
 1007TIP3    H2 2979   4.028   4.497   2.264  0.5602 -0.9540 -0.7009
 1008TIP3   OH2 2980   6.315   5.594   3.464 -0.0561  0.4078 -0.0226
 1008TIP3    H1 2981   6.227   5.558   3.455  0.0629  0.7353 -4.4087
 1008TIP3    H2 2982   6.306   5.685   3.438  1.1543  1.3344  2.5111
 1009TIP3   OH2 2983   6.629   0.816   0.361  0.6258  0.0062  0.2658
 1009TIP3    H1 2984   6.566   0.783   0.297  0.4002 -1.4628  1.2082
 1009TIP3    H2 2985   6.710   0.827   0.312  0.0956  0.2700 -0.5776
 1010TIP3   OH2 2986   7.303   5.219   2.825  0.0587  0.1922 -0.4683
 1010TIP3    H1 2987   7.305   5.310   2.856  1.2929 -0.3791  1.2626
 1010TIP3    H2 2988   7.388   5.208   2.781  0.0136 -0.2044 -0.4562
 1011TIP3   OH2 2989   1.701   1.652   4.017 -0.5528  0.3199  0.5754
 1011TIP3    H1 2990   1.615   1.626   3.984 -0.6286  0.8477  0.3575
 1011TIP3    H2 2991   1.743   1.569   4.043 -0.8185 -0.0124 -0.0445
 1012TIP3   OH2 2992   5.734   0.766   4.664  0.3954 -0.4305  0.5416
 1012TIP3    H1 2993   5.687   0.686   4.642 -1.7291  0.6198  0.9395
 1012TIP3    H2 2994   5.806   0.737   4.720 -1.1288 -1.9472  1.8202
 1013TIP3   OH2 2995   7.218   3.669   0.496 -0.1602  0.0573  0.2874
 1013TIP3    H1 2996   7.299   3.623   0.475  0.7683  2.1217 -1.0507
 1013TIP3    H2 2997   7.149   3.616   0.457  1.0533  0.7857 -3.2377
 1014TIP3   OH2 2998   8.188   2.730   5.498 -0.1861 -0.3182  0.0810
 1014TIP3    H1 2999   8.232   2.667   5.555 -0.1417  0.4070  0.8754
 1014TIP3    H2 3000   8.244   2.737   5.421  0.4831 -0.2806  0.5662
 1015TIP3   OH2 3001   1.289   5.037   1.235  0.4714 -0.3722 -0.2373
 1015TIP3    H1 3002   1.283   5.080   1.321 -0.4294  1.2851 -1.0753
 1015TIP3    H2 3003   1.251   4.951   1.248  0.1617 -0.0637  0.9802
 1016TIP3   OH2 3004   1.950   3.942   0.502 -0.3970  0.1090  0.3613
 1016TIP3    H1 3005   1.943   4.004   0.574  1.6925  1.9701 -0.9013
 1016TIP3    H2 3006   1.890   3.975   0.435  0.0950  0.3161  0.0115
 1017TIP3   OH2 3007   1.568   0.008   4.511 -0.6552  0.3890 -0.0137
 1017TIP3    H1 3008   1.496   0.045   4.459 -1.9085 -1.3735  0.3411
 1017TIP3    H2 3009   1.613  -0.051   4.450 -0.3772  0.4444  0.1413
 1018TIP3   OH2 3010   5.574   1.301   3.580 -0.1698  0.1859  0.4920
 1018TIP3    H1 3011   5.511   1.233   3.605 -0.8822  1.3566  2.0885
 1018TIP3    H2 3012   5.525   1.383   3.587  1.1648  1.0150  0.4850
 1019TIP3   OH2 3013   8.089   2.098   0.346 -0.1313  0.7071 -0.6684
 1019TIP3    H1 3014   8.176   2.124   0.319  0.1331  2.5011  1.5961
 1019TIP3    H2 3015   8.050   2.178   0.383 -2.2714 -0.3253 -0.5281
 1020TIP3   OH2 3016   0.136   2.859   5.953  0.1488  0.5531 -0.5421
 1020TIP3    H1 3017   0.170   2.817   5.875  0.0512 -0.4954 -0.0385
 1020TIP3    H2 3018   0.209   2.911   5.987  1.1985 -1.4039  0.3519
 1021TIP3   OH2 3019   6.228   3.660   1.285  0.6051  0.6372  0.1970
 1021TIP3    H1 3020   6.311   3.642   1.243  0.0815 -0.5141 -0.3967
 1021TIP3    H2 3021   6.182   3.575   1.286 -1.7283  1.7342 -2.1210
 1022TIP3   OH2 3022   3.612   3.238   4.046  0.3473  0.6339  0.3669
 1022TIP3    H1 3023   3.663   3.286   4.112  1.4200 -0.2214  0.1749
 1022TIP3    H2 3024   3.536   3.295   4.029 -0.2506  0.6374  2.7236
 1023TIP3   OH2 3025   2.418   5.391   2.398  0.3319 -0.1559 -0.2419
 1023TIP3    H1 3026   2.447   5.404   2.308  0.2487 -0.6110 -0.3354
 1023TIP3    H2 3027   2.324   5.377   2.392  0.5479 -1.7813 -0.2586
 1024TIP3   OH2 3028   7.550   7.417   2.734  0.2614  0.4444 -0.2962
 1024TIP3    H1 3029   7.612   7.467   2.682  1.8991  1.2405  2.2343
 1024TIP3    H2 3030   7.604   7.370   2.798 -1.5146 -1.7083 -0.2398
 1025TIP3   OH2 3031   0.688   4.027   0.267  0.1154 -0.4924 -0.2991
 1025TIP3    H1 3032   0.781   4.045   0.280  0.1855 -0.8286 -0.3442
 1025TIP3    H2 3033   0.649   4.114   0.255  0.5528 -0.3992 -1.1740
 1026TIP3   OH2 3034   7.036   1.564   5.407  0.5630  0.3514  0.1659
 1026TIP3    H1 3035   7.117   1.596   5.446  0.3837 -0.2589  1.0755
 1026TIP3    H2 3036   7.024   1.618   5.329  2.4380 -0.3255 -0.6328
 1027TIP3   OH2 3037   4.568   1.107   6.244 -0.5694 -0.3410  0.4342
 1027TIP3    H1 3038   4.619   1.188   6.237  0.4880 -0.9527  0.8044
 1027TIP3    H2 3039   4.623   1.040   6.203 -0.3393 -1.3176  2.2265
 1028TIP3   OH2 3040   4.656   4.327   3.200 -0.1267 -0.7178  0.6213
 1028TIP3    H1 3041   4.706   4.255   3.162  0.2813  0.2169 -0.7327
 1028TIP3    H2 3042   4.722   4.381   3.244 -0.0240  0.0514 -0.4168
 1029TIP3   OH2 3043   7.507   4.826   5.849  0.1530 -0.0800  0.5169
 1029TIP3    H1 3044   7.414   4.848   5.836  0.1063 -0.9367 -0.7778
 1029TIP3    H2 3045   7.534   4.880   5.924 -1.0254  1.2181  0.0573
 1030TIP3   OH2 3046   6.371   0.949   0.486 -0.4199 -0.1084 -0.2971
 1030TIP3    H1 3047   6.313   0.873   0.485 -2.5211  1.4025  0.4707
 1030TIP3    H2 3048   6.458   0.913   0.469 -1.5978 -2.4313 -2.0151
 1031TIP3   OH2 3049   3.591   5.353   5.549  0.0135  0.2367  0.5065
 1031TIP3    H1 3050   3.557   5.276   5.504  1.7465 -0.4267  0.2576
 1031TIP3    H2 3051   3.513   5.406   5.567 -0.9416 -0.3413 -1.5913
 1032TIP3   OH2 3052   2.044   0.575   2.804 -0.3788  0.1205  0.3364
 1032TIP3    H1 3053   2.072   0.565   2.895 -1.5333  2.0104  0.9503
 1032TIP3    H2 3054   2.125   0.591   2.755  0.2506 -0.9110  0.9855
 1033TIP3   OH2 3055   1.588   5.089   0.267  0.1272  0.1563 -0.8242
 1033TIP3    H1 3056   1.645   5.081   0.344  1.5143 -1.0446 -1.9228
 1033TIP3    H2 3057   1.648   5.113   0.196 -0.7313 -1.1136 -2.0133
 1034TIP3   OH2 3058   7.783   7.100   2.832 -0.3241 -0.3801  0.2495
 1034TIP3    H1 3059   7.730   7.173   2.865 -1.4301 -1.1057  0.1242
 1034TIP3    H2 3060   7.847   7.141   2.775 -2.9031  0.2820 -2.4076
 1035TIP3   OH2 3061   4.563   4.732   0.567  0.2030 -0.0014 -0.3361
 1035TIP3    H1 3062   4.626   4.767   0.630  0.6819 -2.2875  0.5692
 1035TIP3    H2 3063   4.606   4.742   0.482  1.5297 -0.8959  0.1955
 1036TIP3   OH2 3064   3.059   2.563   3.819 -0.0277 -0.3868  0.1493
 1036TIP3    H1 3065   3.048   2.506   3.743  0.3141 -0.7473  0.3688
 1036TIP3    H2 3066   3.153   2.577   3.826 -0.1798  1.1508 -0.5838
 1037TIP3   OH2 3067   0.794   5.263   0.988  0.3590  0.7224 -0.0583
 1037TIP3    H1 3068   0.820   5.174   1.011 -0.6057  0.4026 -0.1784
 1037TIP3    H2 3069   0.866   5.296   0.934  0.5468 -0.1167 -0.3316
 1038TIP3   OH2 3070   8.307   5.366   5.819  0.3386  0.4285 -0.7809
 1038TIP3    H1 3071   8.274   5.410   5.897 -0.6613 -1.3687 -0.1149
 1038TIP3    H2 3072   8.229   5.324   5.781  1.4786 -2.5320 -0.1210
 1039TIP3   OH2 3073   2.920   2.022   1.019  0.5024  0.4472 -0.2668
 1039TIP3    H1 3074   2.831   2.028   0.985  0.6330  0.7379 -0.5589
 1039TIP3    H2 3075   2.917   1.949   1.081  0.1506  0.2135 -0.5530
 1040TIP3   OH2 3076   3.632   3.378   1.248  0.3194  0.0087 -0.2979
 1040TIP3    H1 3077   3.639   3.471   1.230  0.0745  0.3535  1.2753
 1040TIP3    H2 3078   3.723   3.348   1.257  0.3978  0.7893  2.3274
 1041TIP3   OH2 3079   6.389   1.147   4.292 -0.3948 -0.2538 -0.0729
 1041TIP3    H1 3080   6.383   1.179   4.382 -1.9507 -1.2047  0.2006
 1041TIP3    H2 3081   6.407   1.226   4.240 -0.0004  0.3884  1.0087
 1042TIP3   OH2 3082   0.604   2.833   0.818  0.1758 -0.3888 -0.0609
 1042TIP3    H1 3083   0.607   2.757   0.876 -1.9970  0.7471  1.6996
 1042TIP3    H2 3084   0.665   2.896   0.858  0.3759 -0.4163 -0.3172
 1043TIP3   OH2 3085   2.114   1.268   5.135 -0.3647  0.7036  0.6069
 1043TIP3    H1 3086   2.172   1.332   5.176 -0.9717  0.9320  1.1231
 1043TIP3    H2 3087   2.153   1.251   5.049  0.6828  0.5542  1.1003
 1044TIP3   OH2 3088   4.549   7.596   0.045 -0.5165 -0.5710  0.2246
 1044TIP3    H1 3089   4.531   7.546  -0.034  0.6072 -0.4093 -0.1493
 1044TIP3    H2 3090   4.554   7.687   0.015 -0.4114 -0.4745  0.5294
 1045TIP3   OH2 3091   4.943   1.932   3.830 -0.1906 -0.1127 -0.1684
 1045TIP3    H1 3092   5.013   1.996   3.816 -0.1542 -0.2472 -0.6082
 1045TIP3    H2 3093   4.882   1.948   3.758  0.0109 -0.8376 -0.5104
 1046TIP3   OH2 3094   7.785   1.074   0.232  0.6987 -0.0606  0.2729
 1046TIP3    H1 3095   7.742   1.015   0.169 -0.3974  0.0909  0.8571
 1046TIP3    H2 3096   7.827   1.016   0.294  0.6284 -0.2214  0.1708
 1047TIP3   OH2 3097   0.442   4.901   5.863 -0.3217  0.0905  0.3817
 1047TIP3    H1 3098   0.480   4.817   5.836  0.9649  0.1698  1.7898
 1047TIP3    H2 3099   0.354   4.878   5.893  0.4179 -1.0075  1.8721
 1048TIP3   OH2 3100   4.006   1.123   5.865 -0.2079  0.7127  0.1055
 1048TIP3    H1 3101   4.056   1.199   5.897 -0.2550  1.2300 -0.9832
 1048TIP3    H2 3102   3.957   1.092   5.941  1.8322  0.1278  1.2432
 1049TIP3   OH2 3103   8.001   3.481   2.561  0.2194  0.1468  0.1833
 1049TIP3    H1 3104   8.093   3.489   2.586  0.2779  1.5731 -0.3704
 1049TIP3    H2 3105   7.955   3.541   2.619 -0.3494 -0.4501  0.3554
 1050TIP3   OH2 3106   0.463   6.612   4.525  0.9254 -0.1424  0.3442
 1050TIP3    H1 3107   0.498   6.608   4.436  0.8666 -0.0147  0.3164
 1050TIP3    H2 3108   0.456   6.705   4.544 -0.8823 -0.1249 -0.2266
 1051TIP3   OH2 3109   6.370   3.099   2.343 -0.1690 -0.2985 -0.0358
 1051TIP3    H1 3110   6.320   3.019   2.353 -0.3511 -0.0280  1.3230
 1051TIP3    H2 3111   6.460   3.074   2.367 -0.4932  0.2083  1.8522
 1052TIP3   OH2 3112   0.312   1.956   4.809 -0.0242  0.1270 -0.3177
 1052TIP3    H1 3113   0.287   1.939   4.900 -0.6586 -0.2253 -0.5510
 1052TIP3    H2 3114   0.229   1.954   4.761  0.5042 -1.7105 -1.2352
 1053TIP3   OH2 3115   6.947   4.814   1.595  0.2245 -0.0196 -0.2812
 1053TIP3    H1 3116   6.876   4.836   1.656 -0.7071 -2.0924 -0.5236
 1053TIP3    H2 3117   6.905   4.811   1.509  0.2873 -2.3114 -0.2972
 1054TIP3   OH2 3118   4.162   2.415   0.576 -0.3749 -0.0817  0.7276
 1054TIP3    H1 3119   4.190   2.505   0.595 -1.1598  0.5738 -1.0319
 1054TIP3    H2 3120   4.222   2.385   0.508 -0.9430 -0.4229  0.3721
 1055TIP3   OH2 3121   6.407   1.282   2.396  0.1719 -0.1568  0.0535
 1055TIP3    H1 3122   6.366   1.309   2.478  2.0423 -0.6129  1.1921
 1055TIP3    H2 3123   6.439   1.194   2.413 -0.3329 -0.6878 -1.5457
 1056TIP3   OH2 3124   7.793   7.800   2.798  1.0249  0.1489  0.3519
 1056TIP3    H1 3125   7.826   7.744   2.868  1.7141  0.1630  0.0482
 1056TIP3    H2 3126   7.698   7.797   2.808  0.9026 -2.4484 -0.6593
 1057TIP3   OH2 3127   0.417   4.053   4.606 -0.2801  0.0024 -1.4779
 1057TIP3    H1 3128   0.449   4.001   4.532 -0.9576 -0.0996 -1.7121
 1057TIP3    H2 3129   0.495   4.093   4.643  0.1261 -0.3375 -1.9535
 1058TIP3   OH2 3130   2.398   7.310   0.814  0.0133  0.0258  0.2476
 1058TIP3    H1 3131   2.377   7.346   0.728  0.3416  0.6300  0.4137
 1058TIP3    H2 3132   2.368   7.376   0.876  0.7416  0.0775  0.5531
 1059TIP3   OH2 3133   3.709   0.421   4.906  1.1478 -1.0355 -0.2366
 1059TIP3    H1 3134   3.701   0.327   4.922 -2.5230 -0.9273 -0.5442
 1059TIP3    H2 3135   3.733   0.458   4.991 -2.0175 -1.9601  1.2408
 1060TIP3   OH2 3136   5.218   2.802   0.952 -0.7899 -0.0638  0.4265
 1060TIP3    H1 3137   5.131   2.762   0.954 -1.8411  2.0044 -0.7395
 1060TIP3    H2 3138   5.201   2.896   0.963  1.4512  0.2599  1.8108
 1061TIP3   OH2 3139   7.236   7.677   5.127  0.5867 -0.2303 -0.7154
 1061TIP3    H1 3140   7.240   7.587   5.158  1.8723 -0.0308 -0.2276
 1061TIP3    H2 3141   7.205   7.728   5.202 -3.3993 -0.6075 -1.9084
 1062TIP3   OH2 3142   1.340   1.328   6.218 -0.3169  0.2022 -0.2050
 1062TIP3    H1 3143   1.253   1.301   6.248 -0.1756  2.0372  2.1978
 1062TIP3    H2 3144   1.354   1.413   6.260  2.5483  0.0670 -0.7085
 1063TIP3   OH2 3145   8.171   2.207   1.210 -0.0631  0.6729 -0.1579
 1063TIP3    H1 3146   8.139   2.297   1.217 -1.1672  0.3781 -1.1909
 1063TIP3    H2 3147   8.101   2.159   1.166  1.0428 -0.4135 -0.8009
 1064TIP3   OH2 3148   1.916   1.743   2.724  0.5159 -0.0633  0.4865
 1064TIP3    H1 3149   1.833   1.779   2.692  0.9686 -0.5042 -1.2949
 1064TIP3    H2 3150   1.979   1.814   2.713  0.9646 -0.6554 -1.0011
 1065TIP3   OH2 3151   5.072   4.232   1.551  0.1775  0.2420 -0.2206
 1065TIP3    H1 3152   5.080   4.172   1.477 -1.2213 -1.3720  0.8640
 1065TIP3    H2 3153   5.137   4.200   1.614  2.7427  2.7585 -1.3526
 1066TIP3   OH2 3154   1.742   1.906   1.846 -0.1728 -0.5688 -0.2773
 1066TIP3    H1 3155   1.654   1.883   1.818 -0.8107 -0.2093  1.3443
 1066TIP3    H2 3156   1.773   1.828   1.894  0.3335 -0.6397 -0.7140
 1067TIP3   OH2 3157   3.220   3.879   0.588  0.0849 -0.4294 -0.5385
 1067TIP3    H1 3158   3.259   3.889   0.675  0.5535  0.2005 -0.8161
 1067TIP3    H2 3159   3.127   3.865   0.606 -0.1548  1.5276  0.0352
 1068TIP3   OH2 3160   0.967   1.682   0.621  0.1696  0.0322  1.0192
 1068TIP3    H1 3161   0.985   1.775   0.625  2.5925 -0.0765 -2.3932
 1068TIP3    H2 3162   0.978   1.650   0.710  1.0641  2.7244  1.9440
 1069TIP3   OH2 3163   0.257   0.414   1.062  0.3341 -0.1534  0.0891
 1069TIP3    H1 3164   0.262   0.507   1.082  0.4906 -0.5386  2.0328
 1069TIP3    H2 3165   0.319   0.401   0.990  1.1625  1.0518  0.5563
 1070TIP3   OH2 3166   7.854   0.483   2.178  0.0382  0.3347 -0.5212
 1070TIP3    H1 3167   7.892   0.403   2.213  0.8698  0.4522 -1.1180
 1070TIP3    H2 3168   7.842   0.466   2.085 -1.0150  0.4458 -0.4131
 1071TIP3   OH2 3169   0.109   2.647   2.296 -0.2812  0.3890  0.4625
 1071TIP3    H1 3170   0.115   2.660   2.202 -0.5643  1.1697  0.5429
 1071TIP3    H2 3171   0.180   2.701   2.333  0.0332 -0.1634  0.6808
 1072TIP3   OH2 3172   4.802   5.563   0.536 -0.8218 -0.0114  0.1457
 1072TIP3    H1 3173   4.788   5.480   0.582 -1.0291  0.9864  1.9647
 1072TIP3    H2 3174   4.719   5.581   0.492 -0.1280 -1.7776 -2.1025
 1073TIP3   OH2 3175   3.227   7.654   3.654  0.0825  0.3121  0.0143
 1073TIP3    H1 3176   3.273   7.670   3.737 -0.0272  2.2503 -0.2555
 1073TIP3    H2 3177   3.136   7.672   3.674  0.0383  0.6617 -0.4910
 1074TIP3   OH2 3178   5.799   5.356   6.250 -0.4598  0.4896  0.3287
 1074TIP3    H1 3179   5.871   5.339   6.190 -1.7672 -0.9623 -0.9112
 1074TIP3    H2 3180   5.826   5.317   6.333 -0.5427 -1.7463 -0.6306
 1075TIP3   OH2 3181   0.803   2.416   4.450  0.7344 -0.1978 -0.1786
 1075TIP3    H1 3182   0.861   2.481   4.412  0.4736  0.8684  1.1679
 1075TIP3    H2 3183   0.822   2.419   4.544 -1.5977  0.3258  0.3372
 1076TIP3   OH2 3184   5.562   0.040   2.653 -0.6766 -0.0331  0.0552
 1076TIP3    H1 3185   5.640   0.063   2.602  0.1080 -3.2458 -0.4405
 1076TIP3    H2 3186   5.555   0.109   2.719  1.9200  0.9712 -0.5799
 1077TIP3   OH2 3187   5.223   5.653   5.598  0.2227 -0.2006  0.3106
 1077TIP3    H1 3188   5.246   5.726   5.540  1.4486  0.8341  1.9883
 1077TIP3    H2 3189   5.293   5.590   5.584  0.5325  0.0597  0.6542
 1078TIP3   OH2 3190   4.473   6.847   0.334 -0.3887 -0.4459 -0.2352
 1078TIP3    H1 3191   4.545   6.882   0.282 -0.9904  0.0634 -0.7405
 1078TIP3    H2 3192   4.471   6.753   0.312 -0.1552 -0.3772 -0.5482
 1079TIP3   OH2 3193   6.822   5.368   4.818  0.0565  0.1459  0.7187
 1079TIP3    H1 3194   6.747   5.347   4.874  0.2148 -0.6636  0.6441
 1079TIP3    H2 3195   6.815   5.462   4.802  0.0685  0.4097  2.1666
 1080TIP3   OH2 3196   5.258   3.989   6.757 -0.0365  0.0987  0.1414
 1080TIP3    H1 3197   5.340   3.947   6.735  1.2753  1.2413  2.4243
 1080TIP3    H2 3198   5.191   3.934   6.718  1.7093 -2.2560  0.2716
 1081TIP3   OH2 3199   4.471   4.037   6.439 -0.4750  0.4476  0.4852
 1081TIP3    H1 3200   4.513   4.120   6.460  0.3828 -0.0710  0.8704
 1081TIP3    H2 3201   4.438   4.049   6.350  0.9036  0.7324 -0.0198
 1082TIP3   OH2 3202   5.923   2.289   5.748 -0.2661 -0.2164 -0.0089
 1082TIP3    H1 3203   5.972   2.356   5.796 -0.0822  0.0105 -0.5100
 1082TIP3    H2 3204   5.860   2.339   5.696 -0.1151 -0.4316 -0.3997
 1083TIP3   OH2 3205   3.785   5.609   3.545 -0.4763 -0.4572 -0.4220
 1083TIP3    H1 3206   3.856   5.658   3.587  1.1451 -2.2243 -1.0100
 1083TIP3    H2 3207   3.730   5.677   3.506  0.0565  1.0324  1.2757
 1084TIP3   OH2 3208   3.258   1.197   5.651 -0.1952 -0.4405 -0.2042
 1084TIP3    H1 3209   3.267   1.136   5.578  1.3015 -3.3153  2.1155
 1084TIP3    H2 3210   3.178   1.170   5.695 -0.5718  0.6119 -0.2243
 1085TIP3   OH2 3211   2.428   4.328   4.035 -0.2007 -0.0558 -0.4658
 1085TIP3    H1 3212   2.404   4.366   3.950  1.4517  0.2859 -0.8257
 1085TIP3    H2 3213   2.353   4.274   4.060 -1.0269  0.4425 -1.7808
 1086TIP3   OH2 3214   1.236   1.294   5.682 -0.5430 -0.0390 -0.0419
 1086TIP3    H1 3215   1.237   1.380   5.723 -1.5725 -0.3345  0.6353
 1086TIP3    H2 3216   1.284   1.238   5.743 -1.4554 -0.3253  0.4253
 1087TIP3   OH2 3217   1.629   1.057   1.941 -0.4316 -0.1771 -0.3700
 1087TIP3    H1 3218   1.564   1.000   1.982 -1.2713  0.8832 -0.1693
 1087TIP3    H2 3219   1.592   1.145   1.950  0.2062  0.2727 -1.8177
 1088TIP3   OH2 3220   7.399   7.464   4.449 -0.4652  0.2385 -0.7400
 1088TIP3    H1 3221   7.328   7.484   4.511 -0.3199 -1.1519 -0.0992
 1088TIP3    H2 3222   7.363   7.488   4.364 -0.9297  1.5287 -0.2117
 1089TIP3   OH2 3223   6.980   4.635   5.689 -0.3583 -0.1652 -0.6250
 1089TIP3    H1 3224   7.032   4.556   5.671 -0.6195 -0.4354 -0.2280
 1089TIP3    H2 3225   6.972   4.679   5.605  0.3551 -0.2197 -0.7267
 1090TIP3   OH2 3226   8.253   7.492   6.236 -0.0904 -0.2771 -0.7236
 1090TIP3    H1 3227   8.261   7.519   6.145  0.6436 -0.4856 -0.7322
 1090TIP3    H2 3228   8.236   7.573   6.284  1.4395  0.1375 -0.8262
 1091TIP3   OH2 3229   1.175   2.906   1.615  0.2160  0.1774 -0.0220
 1091TIP3    H1 3230   1.226   2.974   1.660 -0.3643  0.4995  0.1605
 1091TIP3    H2 3231   1.229   2.827   1.623  0.9603  0.6357 -0.3400
 1092TIP3   OH2 3232   4.876   0.106   3.944 -0.7849 -0.1298  0.1360
 1092TIP3    H1 3233   4.853   0.051   4.018  0.9046  0.5030  1.1954
 1092TIP3    H2 3234   4.792   0.137   3.909 -1.6172  0.0937  2.1983
 1093TIP3   OH2 3235   8.116   3.939   3.595 -0.6597 -0.0078  0.3249
 1093TIP3    H1 3236   8.042   3.880   3.581 -0.0802 -0.3717 -1.4102
 1093TIP3    H2 3237   8.109   4.004   3.526  0.1572  0.4473  0.6575
 1094TIP3   OH2 3238   1.995   4.696   6.144  0.2530 -0.3965  0.0478
 1094TIP3    H1 3239   2.016   4.748   6.066  0.4954 -0.1318  0.2870
 1094TIP3    H2 3240   2.076   4.694   6.194  0.0382 -0.3814  0.3989
 1095TIP3   OH2 3241   2.038   6.118   1.654 -0.0930  0.0094  0.3011
 1095TIP3    H1 3242   2.025   6.179   1.582  0.0141  0.7151  0.8590
 1095TIP3    H2 3243   1.987   6.156   1.726  1.3993  0.4130  1.1830
 1096TIP3   OH2 3244   3.049   1.817   0.010  0.2745  0.0966 -0.1810
 1096TIP3    H1 3245   3.129   1.869   0.001  1.3255 -1.5639 -0.8397
 1096TIP3    H2 3246   2.992   1.870   0.066  1.6810  1.4849 -0.0060
 1097TIP3   OH2 3247   6.042   0.698   2.927 -0.3104 -0.4992 -0.9622
 1097TIP3    H1 3248   6.131   0.731   2.916 -0.3125 -0.2605 -0.3219
 1097TIP3    H2 3249   5.987   0.776   2.928 -0.0797 -0.1799  3.0367
 1098TIP3   OH2 3250   4.003   6.865   6.257 -1.0634 -0.1372 -0.2829
 1098TIP3    H1 3251   4.019   6.772   6.247  2.1699  0.3183 -0.3431
 1098TIP3    H2 3252   3.972   6.875   6.347  0.3085 -1.1171  0.3184
 1099TIP3   OH2 3253   0.186   5.692   1.561 -0.1568  0.0789 -0.5962
 1099TIP3    H1 3254   0.160   5.751   1.631 -0.0161 -2.4767  1.8065
 1099TIP3    H2 3255   0.156   5.734   1.481 -0.8236  2.8997  1.0147
 1100TIP3   OH2 3256   0.845   1.146   5.614 -0.0906  0.2654 -0.0952
 1100TIP3    H1 3257   0.763   1.116   5.575 -0.3453  0.3839  0.3379
 1100TIP3    H2 3258   0.831   1.140   5.708  0.0310  1.2480  0.0058
 1101TIP3   OH2 3259   6.338   2.943   0.507  0.2897 -0.2117 -0.1123
 1101TIP3    H1 3260   6.323   3.020   0.561  0.0891  2.2161 -3.3059
 1101TIP3    H2 3261   6.270   2.882   0.532 -0.2315  1.0638  1.8026
 1102TIP3   OH2 3262   2.405   1.645   4.938 -0.1570 -0.5875 -0.8135
 1102TIP3    H1 3263   2.445   1.719   4.983 -1.4199 -0.5411  0.3098
 1102TIP3    H2 3264   2.464   1.572   4.955 -0.5986 -0.5745  0.9986
 1103TIP3   OH2 3265   4.320   1.151   6.375 -0.3839 -0.2323  0.0043
 1103TIP3    H1 3266   4.334   1.213   6.447 -1.8068 -0.1800  0.2713
 1103TIP3    H2 3267   4.408   1.125   6.349  0.1970  0.5493  1.0675
 1104TIP3   OH2 3268   0.537   5.776   4.898 -0.3043 -0.7128 -0.1125
 1104TIP3    H1 3269   0.539   5.843   4.829  1.7836 -0.8814 -0.2820
 1104TIP3    H2 3270   0.519   5.825   4.979  1.8213  0.1964 -0.1409
 1105TIP3   OH2 3271   6.369   6.974   4.291 -0.3722 -0.8139  0.3692
 1105TIP3    H1 3272   6.301   6.925   4.246  0.7054 -3.3247  1.2665
 1105TIP3    H2 3273   6.333   6.990   4.378 -0.9835  0.6402 -0.1340
 1106TIP3   OH2 3274   2.813   3.161   2.914 -0.1049  0.4381  0.3460
 1106TIP3    H1 3275   2.840   3.148   3.005 -1.6178  0.8056  0.8771
 1106TIP3    H2 3276   2.797   3.256   2.907  0.5322  0.5042 -0.4766
 1107TIP3   OH2 3277   2.586   2.689   0.240 -0.6296  0.3077  0.2445
 1107TIP3    H1 3278   2.633   2.742   0.176 -0.8720  0.0588 -0.1443
 1107TIP3    H2 3279   2.517   2.646   0.190 -1.0966  0.4475  0.7530
 1108TIP3   OH2 3280   7.006   4.576   0.350 -0.4799  0.2106  0.4504
 1108TIP3    H1 3281   7.093   4.611   0.369  0.3570 -0.5532 -1.6503
 1108TIP3    H2 3282   6.945   4.645   0.375  0.8689  1.5944  0.0321
 1109TIP3   OH2 3283   4.226   2.541   6.595 -0.3801 -0.1707 -0.1518
 1109TIP3    H1 3284   4.296   2.607   6.587 -0.7357  0.0529 -2.0278
 1109TIP3    H2 3285   4.146   2.593   6.603 -0.5315 -0.3853 -0.2830
 1110TIP3   OH2 3286   6.015   3.284   0.224 -0.5410 -0.5509  0.2876
 1110TIP3    H1 3287   6.061   3.218   0.171 -1.2880 -1.0339  0.2256
 1110TIP3    H2 3288   5.924   3.255   0.224 -0.7148 -0.0192  1.0451
 1111TIP3   OH2 3289   6.931   5.463   1.935 -0.7236  0.0709  0.5498
 1111TIP3    H1 3290   6.889   5.413   2.005 -2.4825  0.8533  0.1093
 1111TIP3    H2 3291   6.980   5.531   1.981 -1.3905  0.2243  1.0637
 1112TIP3   OH2 3292   4.144   2.728   3.233 -0.2305  0.1710  0.6533
 1112TIP3    H1 3293   4.161   2.649   3.182  0.1570  0.8696 -0.3320
 1112TIP3    H2 3294   4.083   2.700   3.301 -1.2746 -0.6541 -0.5816
 1113TIP3   OH2 3295   0.761   0.676   3.519  0.5093  0.1520 -0.4752
 1113TIP3    H1 3296   0.830   0.625   3.560  0.8447 -0.3940 -1.7014
 1113TIP3    H2 3297   0.767   0.656   3.426 -2.2558 -1.0927 -0.4869
 1114TIP3   OH2 3298   1.890   5.926   3.561 -0.2044  0.0675 -0.1523
 1114TIP3    H1 3299   1.947   5.926   3.484 -1.5756 -0.4234 -1.2313
 1114TIP3    H2 3300   1.892   6.016   3.593  2.4538 -0.2905  0.8814
 1115TIP3   OH2 3301   2.087   5.640   2.670 -0.3329  0.6776 -0.0157
 1115TIP3    H1 3302   2.134   5.701   2.614  1.5476 -0.9148 -0.2958
 1115TIP3    H2 3303   2.148   5.620   2.741 -1.4556  0.2161  0.8612
 1116TIP3   OH2 3304   5.951   4.945   1.392  0.3116 -0.2698 -0.5189
 1116TIP3    H1 3305   6.040   4.964   1.422  0.4092  0.1188 -1.0518
 1116TIP3    H2 3306   5.963   4.888   1.316  0.0463 -1.8897  0.5824
 1117TIP3   OH2 3307   0.085   2.369   2.695 -0.0429 -0.3284  0.2261
 1117TIP3    H1 3308   0.001   2.405   2.723  0.9524  2.5261 -0.1123
 1117TIP3    H2 3309   0.071   2.343   2.604 -0.6711 -0.2868  0.3044
 1118TIP3   OH2 3310   4.035   6.975   3.750  0.5287 -0.0355  0.2970
 1118TIP3    H1 3311   4.042   6.900   3.691  1.2057 -0.2119  0.5810
 1118TIP3    H2 3312   4.069   6.942   3.833 -0.4665  0.1955  0.7969
 1119TIP3   OH2 3313   6.999   2.969   2.475 -0.5089 -0.3889 -0.1717
 1119TIP3    H1 3314   7.089   2.961   2.444 -0.1913  2.1806 -0.0740
 1119TIP3    H2 3315   6.946   2.975   2.396 -0.4523 -0.4665 -0.2159
 1120TIP3   OH2 3316   0.197   6.075   4.985  0.4994  0.4387  0.0852
 1120TIP3    H1 3317   0.192   6.139   4.915 -0.9664 -0.2883 -0.5263
 1120TIP3    H2 3318   0.107   6.041   4.993  1.1923 -1.4765  0.4255
 1121TIP3   OH2 3319   2.080   6.595   6.032 -0.0874  0.2083 -0.2487
 1121TIP3    H1 3320   2.113   6.506   6.018 -0.6814  0.2546 -2.2249
 1121TIP3    H2 3321   2.104   6.643   5.953 -0.3833  1.6307  0.4910
 1122TIP3   OH2 3322   8.294   6.518   3.290 -0.0369 -0.8102  0.0190
 1122TIP3    H1 3323   8.217   6.463   3.274 -0.4660 -0.6945  1.4998
 1122TIP3    H2 3324   8.270   6.570   3.367  1.4087 -0.5604  0.3291
 1123TIP3   OH2 3325   7.264   6.266   6.056  0.0482  0.6898 -0.1320
 1123TIP3    H1 3326   7.336   6.257   6.119 -0.3236 -0.3085  0.1697
 1123TIP3    H2 3327   7.191   6.300   6.107 -0.0793  0.4489 -0.1546
 1124TIP3   OH2 3328   3.540   3.646   6.330 -0.0290 -0.0899 -0.1399
 1124TIP3    H1 3329   3.468   3.598   6.370 -0.5342  1.3220  0.7138
 1124TIP3    H2 3330   3.619   3.605   6.366 -0.3972 -1.2256 -0.5783
 1125TIP3   OH2 3331   4.492   7.165   1.511 -0.3537 -0.1090 -0.3916
 1125TIP3    H1 3332   4.577   7.129   1.487  1.0524  3.1507 -0.7645
 1125TIP3    H2 3333   4.477   7.133   1.600  2.3759  0.9486  0.5560
 1126TIP3   OH2 3334   6.744   1.388   0.893 -0.1150  0.4099  0.4500
 1126TIP3    H1 3335   6.649   1.382   0.890 -0.0603 -0.3089 -0.0687
 1126TIP3    H2 3336   6.774   1.297   0.899  0.6107  0.3795 -2.2674
 1127TIP3   OH2 3337   5.123   1.291   5.430  0.5180  0.0550 -0.4439
 1127TIP3    H1 3338   5.102   1.365   5.487  2.5479 -0.6962  1.4312
 1127TIP3    H2 3339   5.051   1.230   5.441  0.9026 -0.1154  1.4777
 1128TIP3   OH2 3340   5.288   0.365   1.832  0.3000 -0.2041  0.0194
 1128TIP3    H1 3341   5.380   0.350   1.854  0.5441  0.4767 -0.4959
 1128TIP3    H2 3342   5.280   0.460   1.829 -0.5474 -0.2547  0.5592
 1129TIP3   OH2 3343   7.413   4.290   6.665 -0.1670 -0.1198 -0.1974
 1129TIP3    H1 3344   7.508   4.295   6.674 -0.1551 -0.5511 -0.0581
 1129TIP3    H2 3345   7.382   4.378   6.687  0.2201  0.1005 -0.5320
 1130TIP3   OH2 3346   2.947   6.191   4.148  0.0932  0.0404  0.1277
 1130TIP3    H1 3347   2.965   6.214   4.239 -0.3193  0.0288  0.2122
 1130TIP3    H2 3348   3.024   6.141   4.120 -0.3233 -1.0476  0.8483
 1131TIP3   OH2 3349   5.615   6.125   6.752 -0.1652 -0.2627 -0.2086
 1131TIP3    H1 3350   5.597   6.215   6.781  1.2847 -0.5951  2.0008
 1131TIP3    H2 3351   5.618   6.131   6.657 -1.4777  1.7389 -0.1964
 1132TIP3   OH2 3352   5.060   2.470   3.036 -0.3938 -0.6580  0.1676
 1132TIP3    H1 3353   5.136   2.524   3.057 -0.4308 -0.0976 -1.0369
 1132TIP3    H2 3354   4.991   2.501   3.096 -0.8210  1.6414 -1.3725
 1133TIP3   OH2 3355   7.646   1.551   5.045  0.0262  0.4321  0.4721
 1133TIP3    H1 3356   7.718   1.514   4.994  0.3867  0.2555  1.1096
 1133TIP3    H2 3357   7.574   1.489   5.032 -0.1447  0.8233 -0.4986
 1134TIP3   OH2 3358   6.794   3.260   6.539  0.4997 -0.2754  0.1288
 1134TIP3    H1 3359   6.805   3.202   6.615  1.9879  1.8480  1.6468
 1134TIP3    H2 3360   6.715   3.311   6.559 -0.0793 -0.8615 -0.5981
 1135TIP3   OH2 3361   5.915   4.414   0.099 -0.1350 -0.5837  0.4096
 1135TIP3    H1 3362   5.952   4.474   0.034  0.7184 -0.8694  0.6136
 1135TIP3    H2 3363   5.854   4.359   0.050  0.4926 -0.7915 -0.1514
 1136TIP3   OH2 3364   3.042   7.807   1.134  0.3297  0.1793 -0.2270
 1136TIP3    H1 3365   3.127   7.847   1.151 -0.0262  1.1151 -0.5776
 1136TIP3    H2 3366   3.061   7.730   1.082  1.0166  0.0379  0.2337
 1137TIP3   OH2 3367   3.543   3.158   5.956 -0.0558 -0.7638  0.6327
 1137TIP3    H1 3368   3.545   3.209   5.875  0.0415 -3.2305 -1.0235
 1137TIP3    H2 3369   3.617   3.099   5.949 -0.4989 -1.5654  2.2002
 1138TIP3   OH2 3370   4.471   1.767   2.613 -0.2178 -0.0590  0.0046
 1138TIP3    H1 3371   4.556   1.796   2.646  0.4384 -1.0127 -0.7896
 1138TIP3    H2 3372   4.410   1.834   2.642  0.8408  0.7553  0.4118
 1139TIP3   OH2 3373   7.461   4.487   6.254 -0.4397 -0.0658 -0.1451
 1139TIP3    H1 3374   7.532   4.465   6.193 -0.5554  0.8956 -0.6423
 1139TIP3    H2 3375   7.387   4.507   6.197 -0.7477  0.1628  0.3396
 1140TIP3   OH2 3376   2.064   3.960   5.568 -0.1620 -0.5289  0.4063
 1140TIP3    H1 3377   2.125   3.999   5.629 -0.5697 -1.0009  1.1270
 1140TIP3    H2 3378   2.111   3.958   5.484  0.7178 -0.6837  0.8992
 1141TIP3   OH2 3379   3.238   1.710   4.735  0.8042  0.3908 -0.0746
 1141TIP3    H1 3380   3.270   1.797   4.714  0.6259  0.1682 -1.3970
 1141TIP3    H2 3381   3.240   1.705   4.830  0.5933  1.9111  0.0261
 1142TIP3   OH2 3382   4.512   1.545   5.723 -0.5111 -0.4614  0.3326
 1142TIP3    H1 3383   4.497   1.481   5.654 -0.3411 -0.4443  0.2780
 1142TIP3    H2 3384   4.605   1.533   5.746 -0.6426 -0.6833  0.7729
 1143TIP3   OH2 3385   1.329   3.465   3.213  0.4662 -0.0123  0.1082
 1143TIP3    H1 3386   1.379   3.394   3.254  0.7972  1.2980  2.1486
 1143TIP3    H2 3387   1.241   3.456   3.249  0.3517  0.2513 -0.1001
 1144TIP3   OH2 3388   0.733   0.222   3.515  0.1471  0.0759  0.0549
 1144TIP3    H1 3389   0.737   0.128   3.497 -0.4369 -0.2189  1.3690
 1144TIP3    H2 3390   0.641   0.239   3.535  0.6021  0.4762  2.0135
 1145TIP3   OH2 3391   1.920   7.670   5.456  0.2676 -0.0045 -0.0198
 1145TIP3    H1 3392   1.880   7.601   5.507  0.1119  0.6832  0.8104
 1145TIP3    H2 3393   1.848   7.706   5.404  0.1522  0.1497  0.2463
 1146TIP3   OH2 3394   4.874   6.046   0.499  0.1917  0.0250  0.5126
 1146TIP3    H1 3395   4.902   6.102   0.427  0.0671 -0.4568  0.0877
 1146TIP3    H2 3396   4.796   6.002   0.467 -0.0442  0.0375  1.0550
 1147TIP3   OH2 3397   4.239   2.369   6.392  0.0762  0.0987 -0.3539
 1147TIP3    H1 3398   4.243   2.442   6.455  2.8138  0.3349 -0.6394
 1147TIP3    H2 3399   4.146   2.353   6.380 -0.6494  3.1020  0.2539
 1148TIP3   OH2 3400   6.650   7.144   1.356 -0.3302  0.0655  0.1003
 1148TIP3    H1 3401   6.601   7.158   1.274 -0.8542 -0.9778  0.2165
 1148TIP3    H2 3402   6.585   7.157   1.425 -0.6312 -1.8788  0.2407
 1149TIP3   OH2 3403   6.279   1.825   6.231  0.1753  0.7770  0.3127
 1149TIP3    H1 3404   6.197   1.776   6.225  0.3560  0.4074  0.7693
 1149TIP3    H2 3405   6.317   1.818   6.144  0.4424 -0.3393  0.5002
 1150TIP3   OH2 3406   2.304   7.229   6.250 -0.0895  0.3028  0.4944
 1150TIP3    H1 3407   2.280   7.296   6.315 -1.4425 -0.2336  0.5924
 1150TIP3    H2 3408   2.316   7.278   6.169  1.3468  0.9457  1.0757
 1151TIP3   OH2 3409   7.036   1.781   4.077 -0.5052 -0.3523  0.3925
 1151TIP3    H1 3410   7.116   1.728   4.085 -0.3227 -0.0198  0.8217
 1151TIP3    H2 3411   7.064   1.861   4.032 -0.5248 -0.0944  0.8313
 1152TIP3   OH2 3412   1.064   3.026   1.377  0.1257  0.0482 -0.3478
 1152TIP3    H1 3413   1.090   2.971   1.451 -0.1465 -0.1401 -0.3890
 1152TIP3    H2 3414   1.143   3.035   1.325 -0.0413 -1.0774 -0.8282
 1153TIP3   OH2 3415   1.076   2.400   3.542  0.7105  0.5257 -0.8730
 1153TIP3    H1 3416   1.047   2.334   3.479  0.3989  0.3334 -0.5345
 1153TIP3    H2 3417   1.009   2.468   3.539 -1.0773 -0.9746  1.5611
 1154TIP3   OH2 3418   4.633   7.257   6.760 -0.5442 -0.8547  0.6381
 1154TIP3    H1 3419   4.607   7.174   6.718  1.1303 -0.1484 -2.0645
 1154TIP3    H2 3420   4.571   7.321   6.725  1.1033 -0.1890 -1.2567
 1155TIP3   OH2 3421   4.227   5.212   5.094  0.3093  0.2568 -0.0014
 1155TIP3    H1 3422   4.193   5.246   5.012 -0.0417  1.6283  0.6973
 1155TIP3    H2 3423   4.248   5.289   5.146 -0.4083 -0.5615  1.5854
 1156TIP3   OH2 3424   1.120   4.506   2.198  0.1103 -0.2556  0.1985
 1156TIP3    H1 3425   1.092   4.416   2.180 -1.0368 -0.4704  2.7035
 1156TIP3    H2 3426   1.147   4.505   2.290 -1.2069  2.2264  0.6962
 1157TIP3   OH2 3427   6.539   5.117   5.164 -0.2386  0.8297  0.6585
 1157TIP3    H1 3428   6.629   5.128   5.133 -0.4647  0.2843 -0.2316
 1157TIP3    H2 3429   6.540   5.150   5.254  0.6383  1.6731  0.3580
 1158TIP3   OH2 3430   0.380   1.987   0.837 -0.3681  0.1060  0.0607
 1158TIP3    H1 3431   0.425   2.045   0.898  0.5809  0.3363 -0.8480
 1158TIP3    H2 3432   0.403   2.020   0.750 -0.3971 -1.1789 -0.4558
 1159TIP3   OH2 3433   5.214   6.729   5.888 -0.4640 -0.3081 -0.1836
 1159TIP3    H1 3434   5.206   6.635   5.908 -0.0543 -0.5585 -1.1491
 1159TIP3    H2 3435   5.290   6.734   5.830 -0.6209  0.5980 -0.3137
 1160TIP3   OH2 3436   6.533   2.287   5.229  0.0340  0.0255  0.0159
 1160TIP3    H1 3437   6.443   2.254   5.238  0.4960 -1.4078 -0.4760
 1160TIP3    H2 3438   6.544   2.302   5.135  0.9385 -1.6954 -0.1810
 1161TIP3   OH2 3439   6.125   4.316   6.059 -0.2241  0.6313  0.2422
 1161TIP3    H1 3440   6.191   4.350   6.120 -0.7586 -0.3323  1.3822
 1161TIP3    H2 3441   6.052   4.378   6.066 -0.2230  0.6074  0.4612
 1162TIP3   OH2 3442   8.079   2.653   2.380  0.8376 -0.3625  0.0043
 1162TIP3    H1 3443   8.095   2.741   2.346 -0.3704 -0.4048 -0.7470
 1162TIP3    H2 3444   8.150   2.601   2.344  0.7944  0.0449 -0.7053
 1163TIP3   OH2 3445   4.916   5.657   5.643  0.0126 -0.0734  0.4953
 1163TIP3    H1 3446   4.898   5.714   5.568 -0.5251  0.6414  1.1472
 1163TIP3    H2 3447   5.007   5.629   5.631  0.6961  1.8594  0.7369
 1164TIP3   OH2 3448   7.255   5.060   4.960  0.1310  0.6414 -0.6545
 1164TIP3    H1 3449   7.336   5.109   4.944  1.1631 -0.7610  0.0690
 1164TIP3    H2 3450   7.274   4.973   4.926 -1.7177  0.7253 -2.0502
 1165TIP3   OH2 3451   1.176   4.655   5.634 -0.7221  0.2393 -0.3355
 1165TIP3    H1 3452   1.231   4.678   5.709  0.1133  0.3798 -0.9713
 1165TIP3    H2 3453   1.165   4.738   5.587  0.8293 -0.2699 -1.6887
 1166TIP3   OH2 3454   5.835   5.121   2.317 -0.2851 -0.1406 -0.4938
 1166TIP3    H1 3455   5.819   5.072   2.397 -0.7920 -3.9186 -2.6606
 1166TIP3    H2 3456   5.753   5.168   2.300 -1.2676 -1.6832 -0.2426
 1167TIP3   OH2 3457   6.092   0.637   4.512  0.0388  0.2580 -0.4060
 1167TIP3    H1 3458   6.176   0.613   4.474 -0.4814 -1.4687 -0.5722
 1167TIP3    H2 3459   6.114   0.695   4.584  1.3641  0.0208 -0.5885
 1168TIP3   OH2 3460   5.800   4.839   2.999  0.4124 -0.0248  0.7579
 1168TIP3    H1 3461   5.763   4.775   3.059  0.6003  0.4966  1.4412
 1168TIP3    H2 3462   5.893   4.817   2.996  0.4145 -0.0090  0.7001
 1169TIP3   OH2 3463   3.375   4.527   2.900  0.2039  0.7215 -0.6190
 1169TIP3    H1 3464   3.340   4.467   2.966  0.3549  0.1338 -1.0561
 1169TIP3    H2 3465   3.425   4.592   2.949  1.7719 -0.6888 -0.2486
 1170TIP3   OH2 3466   6.170   4.682   6.325 -0.2571 -0.6466  0.1335
 1170TIP3    H1 3467   6.229   4.738   6.274 -0.9735 -1.4355 -1.5927
 1170TIP3    H2 3468   6.194   4.593   6.301  0.1533 -1.1137  2.0677
 1171TIP3   OH2 3469   2.685   2.415   1.656 -0.0086  0.1896 -0.1700
 1171TIP3    H1 3470   2.648   2.454   1.577  0.0130  1.5617  0.4525
 1171TIP3    H2 3471   2.771   2.384   1.630 -0.2734  0.0003 -0.8388
 1172TIP3   OH2 3472   7.565   0.512   3.191  0.1210  0.2281  0.4525
 1172TIP3    H1 3473   7.599   0.504   3.101 -1.3203  0.2081 -0.1254
 1172TIP3    H2 3474   7.557   0.606   3.205 -1.7748  0.2423 -0.3400
 1173TIP3   OH2 3475   2.493   7.145   4.345  0.0424  0.7857 -0.0248
 1173TIP3    H1 3476   2.407   7.173   4.376 -1.1432 -1.0713 -1.3949
 1173TIP3    H2 3477   2.548   7.144   4.423 -1.0552  2.3626  0.8202
 1174TIP3   OH2 3478   3.961   4.499   3.578 -0.1992 -0.1479 -0.4162
 1174TIP3    H1 3479   3.962   4.457   3.664 -2.1242  0.2107 -0.1663
 1174TIP3    H2 3480   3.913   4.438   3.522 -0.9220  0.6186 -0.6482
 1175TIP3   OH2 3481   5.549   0.384   5.087  0.8058 -0.0617 -0.1579
 1175TIP3    H1 3482   5.642   0.386   5.060  0.7600  1.3058 -0.2726
 1175TIP3    H2 3483   5.528   0.474   5.108 -0.8126 -0.1535 -1.1794
 1176TIP3   OH2 3484   4.190   1.085   4.061 -0.3043 -0.6847  0.2987
 1176TIP3    H1 3485   4.200   1.059   4.152 -0.2099 -0.5408  0.3302
 1176TIP3    H2 3486   4.128   1.023   4.024 -1.6472  0.2679  0.8985
 1177TIP3   OH2 3487   1.271   3.372   4.944  0.3204  0.3291 -0.1031
 1177TIP3    H1 3488   1.309   3.285   4.950  1.5375  0.6351 -2.2004
 1177TIP3    H2 3489   1.191   3.359   4.894  1.1826  0.5278 -1.6048
 1178TIP3   OH2 3490   6.073   6.129   2.347  0.1865 -0.1177  0.4727
 1178TIP3    H1 3491   6.078   6.215   2.306  0.9843  0.9897  2.6876
 1178TIP3    H2 3492   6.021   6.143   2.427  2.6538 -0.9530  2.3735
 1179TIP3   OH2 3493   1.139   4.981   6.726 -0.6673 -0.1122 -0.4918
 1179TIP3    H1 3494   1.227   5.015   6.744 -0.4242 -0.7586 -0.4425
 1179TIP3    H2 3495   1.143   4.889   6.752 -1.5262 -0.0032  0.0448
 1180TIP3   OH2 3496   0.300   6.310   0.205 -0.0916 -0.2253  0.0443
 1180TIP3    H1 3497   0.318   6.245   0.273 -1.4623 -0.1104  0.5703
 1180TIP3    H2 3498   0.363   6.380   0.221 -0.1740 -0.3533  1.0149
 1181TIP3   OH2 3499   5.475   1.418   4.515 -0.3434  0.1340  0.0212
 1181TIP3    H1 3500   5.567   1.435   4.539 -0.0222 -0.3155 -0.8514
 1181TIP3    H2 3501   5.467   1.323   4.517 -0.5192  0.1188 -0.8216
 1182TIP3   OH2 3502   3.144   1.741   2.229  0.4825 -0.4574  0.5790
 1182TIP3    H1 3503   3.061   1.787   2.245  0.9717  0.4193  0.6766
 1182TIP3    H2 3504   3.121   1.648   2.230 -0.4657 -0.2290  0.7930
 1183TIP3   OH2 3505   1.810   6.394   3.847  0.1186 -0.5080  0.1551
 1183TIP3    H1 3506   1.877   6.434   3.903 -0.1902  0.0855  0.1066
 1183TIP3    H2 3507   1.829   6.300   3.851  0.0108 -0.4975  1.3838
 1184TIP3   OH2 3508   1.440   6.464   6.701 -0.7389  0.3233  0.4407
 1184TIP3    H1 3509   1.382   6.433   6.770 -2.0258 -0.1333 -0.7895
 1184TIP3    H2 3510   1.422   6.558   6.694 -1.7228  0.0964 -0.2630
 1185TIP3   OH2 3511   2.074   1.331   1.111 -0.2658  0.3390 -0.3393
 1185TIP3    H1 3512   2.040   1.311   1.024  0.0224 -0.7891 -0.2079
 1185TIP3    H2 3513   1.999   1.369   1.157 -1.0907 -1.1386 -0.3853
 1186TIP3   OH2 3514   7.644   3.760   5.231  0.2299  0.6672 -0.8705
 1186TIP3    H1 3515   7.640   3.815   5.152  1.5437  2.2058  0.0547
 1186TIP3    H2 3516   7.729   3.717   5.226 -0.4571 -0.7084 -1.1768
 1187TIP3   OH2 3517   5.999   2.395   0.432  0.6537  0.2395 -0.1024
 1187TIP3    H1 3518   5.984   2.418   0.340  1.4454 -2.2020 -0.9379
 1187TIP3    H2 3519   5.937   2.325   0.450  2.3279 -1.1967  0.3304
 1188TIP3   OH2 3520   0.159   2.020   5.325 -0.4665  0.3893 -0.5761
 1188TIP3    H1 3521   0.165   2.090   5.261  0.1463  0.1334 -0.8004
 1188TIP3    H2 3522   0.176   2.062   5.409 -0.0045  0.4957 -0.7196
 1189TIP3   OH2 3523   0.332   2.649   0.330  0.1587  0.0331 -0.0538
 1189TIP3    H1 3524   0.362   2.657   0.239  1.4402  0.7578  0.4115
 1189TIP3    H2 3525   0.353   2.559   0.354 -1.6456 -0.6736 -0.9513
 1190TIP3   OH2 3526   5.278   7.472   2.676 -0.0013 -0.0674  0.0817
 1190TIP3    H1 3527   5.200   7.418   2.666 -0.9334  1.3476 -0.6126
 1190TIP3    H2 3528   5.255   7.556   2.637  2.3527 -0.0544 -1.5462
 1191TIP3   OH2 3529   7.239   3.434   5.696 -0.0407 -0.3818  0.1632
 1191TIP3    H1 3530   7.145   3.450   5.686 -0.0435 -0.0957  0.6208
 1191TIP3    H2 3531   7.244   3.360   5.757  0.0374 -0.1332  0.4617
 1192TIP3   OH2 3532   1.612   2.229   3.485  0.0240 -0.2562  0.0108
 1192TIP3    H1 3533   1.625   2.183   3.402  0.6381 -0.2376  0.0876
 1192TIP3    H2 3534   1.517   2.231   3.497 -0.4745  3.3044 -2.7124
 1193TIP3   OH2 3535   1.593   4.623   1.872 -0.0080  0.3505 -0.0583
 1193TIP3    H1 3536   1.519   4.635   1.931  1.7746  0.4632  2.2914
 1193TIP3    H2 3537   1.555   4.627   1.784 -2.6052  1.4079  1.0265
 1194TIP3   OH2 3538   7.050   7.499   2.618 -0.0701 -0.5360  0.2960
 1194TIP3    H1 3539   6.992   7.510   2.543  0.9904  2.4489 -0.2369
 1194TIP3    H2 3540   7.053   7.586   2.659 -0.4278 -1.9695  3.7241
 1195TIP3   OH2 3541   6.804   2.796   4.440  0.0190  0.2986 -0.5086
 1195TIP3    H1 3542   6.782   2.868   4.381  1.6939 -0.7201 -2.5104
 1195TIP3    H2 3543   6.897   2.780   4.425  0.4193 -0.3582  2.1075
 1196TIP3   OH2 3544   1.894   1.198   1.675  0.1228 -0.1087 -0.4521
 1196TIP3    H1 3545   1.955   1.128   1.698 -0.0350 -0.4688 -1.1152
 1196TIP3    H2 3546   1.937   1.246   1.604  0.2470  0.5032  0.0221
 1197TIP3   OH2 3547   1.456   2.281   1.761 -0.0174  0.3483  0.1689
 1197TIP3    H1 3548   1.448   2.263   1.855  0.0736  1.2745  0.3651
 1197TIP3    H2 3549   1.443   2.196   1.719  1.5455 -0.3900  1.0941
 1198TIP3   OH2 3550   7.446   2.294   4.186  0.0970  0.1238  0.7513
 1198TIP3    H1 3551   7.392   2.227   4.227 -0.3078  0.3270  0.5540
 1198TIP3    H2 3552   7.530   2.251   4.171  0.1851 -0.0152  1.6093
 1199TIP3   OH2 3553   3.588   1.968   1.737 -0.1344 -0.2219  0.5559
 1199TIP3    H1 3554   3.495   1.981   1.723 -0.8489 -3.5469  1.3380
 1199TIP3    H2 3555   3.597   1.875   1.757  3.0468  0.4498  3.1667
 1200TIP3   OH2 3556   6.219   1.420   1.683  0.0930 -0.0985  0.3803
 1200TIP3    H1 3557   6.220   1.328   1.709 -0.3345  0.0018  0.7546
 1200TIP3    H2 3558   6.162   1.463   1.747 -0.3399  0.2875 -0.2449
 1201TIP3   OH2 3559   3.882   0.533   3.720  0.4079 -0.6903 -0.3703
 1201TIP3    H1 3560   3.837   0.581   3.789 -2.5102 -1.9708 -1.2145
 1201TIP3    H2 3561   3.942   0.474   3.766 -0.9609 -1.0284  1.0601
 1202TIP3   OH2 3562   5.501   4.807   2.837  0.4704 -0.1102  0.1318
 1202TIP3    H1 3563   5.472   4.795   2.927 -0.8658  1.3708 -0.0573
 1202TIP3    H2 3564   5.558   4.883   2.840  1.9259 -1.1470 -0.0190
 1203TIP3   OH2 3565   4.146   7.522   2.372 -0.1448  0.0388 -0.1934
 1203TIP3    H1 3566   4.106   7.438   2.353  0.8373 -0.6241  0.5310
 1203TIP3    H2 3567   4.115   7.544   2.460 -0.9484  0.7803 -0.6541
 1204TIP3   OH2 3568   2.493   2.479   3.262  0.3844  0.3746  0.3403
 1204TIP3    H1 3569   2.496   2.456   3.169  1.6962  0.4639  0.3450
 1204TIP3    H2 3570   2.543   2.410   3.305 -2.4073 -1.2011  1.3575
 1205TIP3   OH2 3571   5.144   6.159   5.983  0.5508  0.0905  0.8639
 1205TIP3    H1 3572   5.166   6.088   6.043  1.3163  0.5182  1.0988
 1205TIP3    H2 3573   5.083   6.215   6.032  2.4793  1.3766  1.9259
 1206TIP3   OH2 3574   5.364   3.851   2.397  0.1392 -0.0846 -0.0061
 1206TIP3    H1 3575   5.278   3.828   2.432  0.4464  1.2111  1.7457
 1206TIP3    H2 3576   5.418   3.866   2.475  1.3590  1.2245 -1.0472
 1207TIP3   OH2 3577   4.870   6.244   3.762  0.2941  0.1968 -0.5625
 1207TIP3    H1 3578   4.861   6.172   3.700 -2.0678  0.0546 -0.1366
 1207TIP3    H2 3579   4.850   6.205   3.848 -2.3619  1.5316 -0.4789
 1208TIP3   OH2 3580   7.002   3.511   3.341  0.0126 -0.9666  0.0341
 1208TIP3    H1 3581   6.957   3.515   3.256 -1.0962 -0.6068  0.6134
 1208TIP3    H2 3582   7.069   3.579   3.336  0.5469 -1.5448 -0.8689
 1209TIP3   OH2 3583   0.226   3.567   4.473 -0.2842  0.4596  0.5383
 1209TIP3    H1 3584   0.185   3.653   4.458 -1.0178  0.1076  0.4804
 1209TIP3    H2 3585   0.320   3.582   4.459 -0.3028  1.4440  1.3509
 1210TIP3   OH2 3586   3.151   2.602   3.534  0.8038 -0.6379  0.1665
 1210TIP3    H1 3587   3.182   2.543   3.603  1.3735 -0.2057  0.2843
 1210TIP3    H2 3588   3.087   2.550   3.485  2.0654 -1.7127 -0.3848
 1211TIP3   OH2 3589   0.506   2.255   3.496  0.1486  1.2181 -0.2495
 1211TIP3    H1 3590   0.497   2.167   3.459  0.6369  0.8326  0.5239
 1211TIP3    H2 3591   0.421   2.297   3.480 -0.7466 -0.0399  1.0134
 1212TIP3   OH2 3592   2.773   3.533   6.607 -0.8621 -0.1808 -0.1847
 1212TIP3    H1 3593   2.857   3.571   6.580 -0.9344 -1.2211 -2.0152
 1212TIP3    H2 3594   2.733   3.601   6.662  0.5923  0.8546 -0.3335
 1213TIP3   OH2 3595   3.123   2.144   0.120  0.3372  0.1890 -0.4101
 1213TIP3    H1 3596   3.033   2.165   0.093 -0.5734 -0.9478  1.4403
 1213TIP3    H2 3597   3.157   2.225   0.157 -0.0042  0.5800 -0.9406
 1214TIP3   OH2 3598   7.492   6.878   1.818  0.4717  0.1098  0.6530
 1214TIP3    H1 3599   7.523   6.915   1.900  3.9713  0.4475 -0.6730
 1214TIP3    H2 3600   7.484   6.953   1.758  2.0520 -0.5295 -0.4322
 1215TIP3   OH2 3601   3.411   1.682   0.065 -0.5382  0.0126 -0.1998
 1215TIP3    H1 3602   3.477   1.749   0.047 -0.5453  1.4477  4.1315
 1215TIP3    H2 3603   3.461   1.603   0.083 -0.2618  0.0537 -0.7559
 1216TIP3   OH2 3604   0.998   0.952   4.743  0.1383  0.7136 -0.3296
 1216TIP3    H1 3605   0.998   0.949   4.839 -0.1535 -2.4504 -0.3194
 1216TIP3    H2 3606   0.906   0.941   4.719  0.2337  1.3147 -1.0197
 1217TIP3   OH2 3607   1.529   1.163   0.806 -0.3023  0.0175 -0.1736
 1217TIP3    H1 3608   1.481   1.218   0.868  2.0236  1.3880  0.5097
 1217TIP3    H2 3609   1.569   1.095   0.859  2.2192  1.5563  0.0507
 1218TIP3   OH2 3610   6.280   7.746   4.857 -0.1086  0.2092  0.4115
 1218TIP3    H1 3611   6.293   7.682   4.787  1.8170  0.0918  0.8148
 1218TIP3    H2 3612   6.322   7.826   4.824 -0.1059  0.4519  0.9925
 1219TIP3   OH2 3613   1.681   7.187   3.308  0.1895 -0.2743  0.0988
 1219TIP3    H1 3614   1.630   7.110   3.333 -0.6653 -0.2662 -1.4888
 1219TIP3    H2 3615   1.719   7.163   3.223  1.1070  0.5211  0.2742
 1220TIP3   OH2 3616   7.730   1.045   3.010 -0.2334  0.6635  0.2191
 1220TIP3    H1 3617   7.817   1.060   2.974  0.0156 -1.4756 -0.2314
 1220TIP3    H2 3618   7.675   1.028   2.934 -0.5837  0.0049  0.6070
 1221TIP3   OH2 3619   2.992   1.137   4.742  0.3715  0.2536  0.0087
 1221TIP3    H1 3620   3.088   1.140   4.742  0.4440 -1.2575 -0.4451
 1221TIP3    H2 3621   2.968   1.137   4.649  0.0224 -0.8742  0.0818
 1222TIP3   OH2 3622   0.967   3.959   2.849 -0.4324  0.6116  0.4741
 1222TIP3    H1 3623   1.033   3.903   2.809  1.1164  0.8243  2.5340
 1222TIP3    H2 3624   0.884   3.928   2.813  0.3751 -2.6767  1.0790
 1223TIP3   OH2 3625   7.152   4.558   0.942  0.5630  0.4501 -0.6890
 1223TIP3    H1 3626   7.068   4.601   0.958 -0.3480 -1.8662  1.4202
 1223TIP3    H2 3627   7.196   4.558   1.027  0.9125 -1.8339 -0.8108
 1224TIP3   OH2 3628   7.533   2.209   2.995 -0.4293  0.0065  0.1751
 1224TIP3    H1 3629   7.498   2.253   2.918  0.8136  0.7586  0.0020
 1224TIP3    H2 3630   7.457   2.191   3.050 -1.2108  0.3852 -0.7612
 1225TIP3   OH2 3631   5.689   2.505   5.779 -0.1992 -0.0684  0.0113
 1225TIP3    H1 3632   5.643   2.436   5.732 -1.3816  0.5815  0.1698
 1225TIP3    H2 3633   5.678   2.483   5.871  1.4538 -0.9205  0.0464
 1226TIP3   OH2 3634   2.512   3.382   0.038 -0.2439 -0.1526  0.4256
 1226TIP3    H1 3635   2.509   3.294   0.001  1.8886 -0.3627  0.6043
 1226TIP3    H2 3636   2.480   3.439  -0.032 -0.3103 -0.9355 -0.1922
 1227TIP3   OH2 3637   5.653   1.683   1.839 -0.1500  0.0145 -0.7768
 1227TIP3    H1 3638   5.702   1.722   1.767 -0.3957  1.9068  0.0330
 1227TIP3    H2 3639   5.597   1.753   1.872 -1.7726 -1.4580 -0.2259
 1228TIP3   OH2 3640   3.133   7.390   4.841 -0.5518 -0.1627 -0.5593
 1228TIP3    H1 3641   3.141   7.396   4.746 -0.6875 -2.1982 -0.7332
 1228TIP3    H2 3642   3.071   7.459   4.865 -1.7445 -0.6480 -2.1284
 1229TIP3   OH2 3643   2.497   4.924   4.078  0.6553 -0.3569  0.0056
 1229TIP3    H1 3644   2.435   4.885   4.016  0.8100  0.2214 -0.5251
 1229TIP3    H2 3645   2.452   4.919   4.163  0.3653 -0.9854 -0.1751
 1230TIP3   OH2 3646   1.280   6.895   3.309  0.0515 -0.0224  0.5453
 1230TIP3    H1 3647   1.194   6.857   3.329 -1.5508  2.1242 -1.6640
 1230TIP3    H2 3648   1.312   6.845   3.234 -0.0446  0.1631  0.3767
 1231TIP3   OH2 3649   2.696   6.917   5.965 -0.7038 -0.0305  0.5373
 1231TIP3    H1 3650   2.686   6.823   5.976 -2.5992  0.3306  2.4864
 1231TIP3    H2 3651   2.774   6.939   6.017 -0.4915 -0.4518  0.4026
 1232TIP3   OH2 3652   1.668   5.442   0.512 -0.5927  0.4060 -0.3085
 1232TIP3    H1 3653   1.633   5.421   0.599  1.1621 -0.5552  0.2131
 1232TIP3    H2 3654   1.699   5.533   0.520  2.2023 -0.5308  1.0834
 1233TIP3   OH2 3655   0.320   0.962   1.212  0.0863  0.0866  0.1053
 1233TIP3    H1 3656   0.390   0.909   1.175 -0.5755  0.3431 -1.5664
 1233TIP3    H2 3657   0.329   1.048   1.170  0.0763  0.7950  1.4817
 1234TIP3   OH2 3658   6.132   1.029   6.120 -0.4742  0.4415  0.2533
 1234TIP3    H1 3659   6.156   0.954   6.175  1.3636 -0.0081 -1.0471
 1234TIP3    H2 3660   6.046   1.007   6.086  0.4550 -1.6364 -0.9266
 1235TIP3   OH2 3661   1.191   2.106   2.189  0.5015  0.4069  0.3709
 1235TIP3    H1 3662   1.168   2.154   2.269  4.3766  1.9722  0.7703
 1235TIP3    H2 3663   1.252   2.039   2.219  1.6513  0.7128 -1.1864
 1236TIP3   OH2 3664   2.619   3.853   0.643  0.4232  0.4812  0.3340
 1236TIP3    H1 3665   2.536   3.901   0.651  0.8394  1.0555  1.3864
 1236TIP3    H2 3666   2.680   3.916   0.606  0.5319  0.2204  0.0667
 1237TIP3   OH2 3667   6.317   5.732   2.404 -0.5877  0.0768 -0.3758
 1237TIP3    H1 3668   6.399   5.773   2.377 -0.7816  0.5343 -0.2786
 1237TIP3    H2 3669   6.344   5.658   2.458 -0.2010 -0.7292 -1.6326
 1238TIP3   OH2 3670   3.527   4.132   1.792  0.2859 -0.3772  0.0629
 1238TIP3    H1 3671   3.441   4.140   1.833 -0.9520 -2.1172 -1.9951
 1238TIP3    H2 3672   3.508   4.117   1.700  2.8497 -0.1060 -0.5770
 1239TIP3   OH2 3673   2.649   1.794   4.794  0.3875 -0.2921 -0.3595
 1239TIP3    H1 3674   2.649   1.840   4.878  2.2424 -0.0933 -0.4184
 1239TIP3    H2 3675   2.742   1.780   4.775 -0.0342 -3.2872 -0.7751
 1240TIP3   OH2 3676   6.395   3.419   5.824  0.1570  0.0268 -0.5615
 1240TIP3    H1 3677   6.358   3.485   5.764  0.5133  1.0560  0.3161
 1240TIP3    H2 3678   6.319   3.373   5.859 -0.2802  1.4997  0.5204
 1241TIP3   OH2 3679   4.329   2.816   6.241  0.2381  0.5439  0.1128
 1241TIP3    H1 3680   4.334   2.903   6.202 -0.3182  0.4902 -0.0955
 1241TIP3    H2 3681   4.419   2.783   6.239 -0.0843 -0.6869 -3.9736
 1242TIP3   OH2 3682   8.160   5.785   0.493 -0.6504  0.0705  0.3609
 1242TIP3    H1 3683   8.067   5.780   0.474 -0.6709 -2.5792  0.7770
 1242TIP3    H2 3684   8.196   5.841   0.425 -2.5275  1.0861  0.1671
 1243TIP3   OH2 3685   6.704   1.204   4.347  0.3486  0.2831 -0.0608
 1243TIP3    H1 3686   6.679   1.200   4.255  1.0390 -0.0992 -0.2306
 1243TIP3    H2 3687   6.782   1.150   4.354  2.5007  3.1510  0.0041
 1244TIP3   OH2 3688   3.419   0.732   4.663 -0.2997 -0.7811  0.2633
 1244TIP3    H1 3689   3.494   0.754   4.719  0.2443  0.3352 -0.8647
 1244TIP3    H2 3690   3.459   0.705   4.580 -1.1313  2.3050 -1.2528
 1245TIP3   OH2 3691   5.260   2.482   5.876  0.0044  0.3314 -0.0357
 1245TIP3    H1 3692   5.331   2.524   5.926 -1.3869  0.4046  1.9524
 1245TIP3    H2 3693   5.188   2.473   5.938 -1.8946  0.5771 -2.0790
 1246TIP3   OH2 3694   2.802   4.771   2.011  0.0994 -0.0538  0.1904
 1246TIP3    H1 3695   2.710   4.795   2.012 -0.0187 -0.4882  1.0821
 1246TIP3    H2 3696   2.824   4.756   2.103  1.0528  0.0179 -0.0100
 1247TIP3   OH2 3697   1.320   6.875   0.876 -0.7004 -0.1222  0.4483
 1247TIP3    H1 3698   1.267   6.818   0.931  0.1826 -1.9908 -0.5165
 1247TIP3    H2 3699   1.324   6.829   0.792 -0.9551  2.0009 -0.7936
 1248TIP3   OH2 3700   2.143   7.698   4.612  0.0668 -0.2892 -0.0709
 1248TIP3    H1 3701   2.106   7.643   4.681  1.1260 -1.2193 -0.2137
 1248TIP3    H2 3702   2.210   7.643   4.571 -0.2051  0.4164 -1.5179
 1249TIP3   OH2 3703   1.152   4.804   3.466  0.1974  0.5837 -0.6688
 1249TIP3    H1 3704   1.190   4.885   3.430  0.8267  0.0500 -1.2310
 1249TIP3    H2 3705   1.100   4.834   3.541 -2.1885  1.8661 -2.6986
 1250TIP3   OH2 3706   3.945   5.088   4.998 -0.6860 -0.0767  0.0853
 1250TIP3    H1 3707   3.952   5.051   4.910  0.3085  0.1535  0.0576
 1250TIP3    H2 3708   3.981   5.020   5.055 -0.6424  0.0776  0.2404
 1251TIP3   OH2 3709   5.016   5.485   5.348 -0.0980 -0.5627 -0.5783
 1251TIP3    H1 3710   4.939   5.536   5.323 -0.2504 -0.7198 -0.4329
 1251TIP3    H2 3711   5.076   5.494   5.274 -0.9892 -1.9660 -1.5091
 1252TIP3   OH2 3712   1.127   4.086   0.808 -0.0357  0.4133 -0.3418
 1252TIP3    H1 3713   1.175   4.167   0.790 -1.4245  1.0461 -1.4180
 1252TIP3    H2 3714   1.195   4.019   0.817  1.1469  1.6831  0.6054
 1253TIP3   OH2 3715   6.745   1.363   6.769 -0.0660  0.2283  0.0252
 1253TIP3    H1 3716   6.770   1.273   6.792  0.3995  0.5310  0.7194
 1253TIP3    H2 3717   6.816   1.394   6.713  0.0625  0.3627  0.2624
 1254TIP3   OH2 3718   2.202   3.501   3.948  0.6183 -0.1082  0.4196
 1254TIP3    H1 3719   2.119   3.466   3.915 -0.1675 -0.0426  2.2283
 1254TIP3    H2 3720   2.267   3.439   3.916  0.0965  0.4745 -2.0599
 1255TIP3   OH2 3721   0.684   5.987   0.614  0.3097 -0.1550 -0.2970
 1255TIP3    H1 3722   0.635   6.066   0.592 -1.6843 -0.7437  1.7300
 1255TIP3    H2 3723   0.672   5.929   0.538 -0.4809  0.4635 -0.6554
 1256TIP3   OH2 3724   6.568   4.485   2.120 -0.4503  0.6541  0.2392
 1256TIP3    H1 3725   6.526   4.528   2.195  0.3514 -0.0657  1.1263
 1256TIP3    H2 3726   6.615   4.555   2.075  0.5496  0.8068  1.4638
 1257TIP3   OH2 3727   6.730   4.536   6.397 -0.4629  0.4872  0.1303
 1257TIP3    H1 3728   6.810   4.564   6.354 -0.5978  2.2775  0.9332
 1257TIP3    H2 3729   6.721   4.443   6.376 -0.0501  1.0519 -2.8598
 1258TIP3   OH2 3730   4.532   4.956   6.130  0.2321 -0.2345  0.2707
 1258TIP3    H1 3731   4.580   4.997   6.202  1.0830 -1.3222  0.3500
 1258TIP3    H2 3732   4.595   4.896   6.090 -0.8764 -1.2509 -0.0133
 1259TIP3   OH2 3733   1.767   4.542   5.144  0.2971  0.1560  0.5577
 1259TIP3    H1 3734   1.750   4.461   5.095 -0.8317  1.7240 -1.8432
 1259TIP3    H2 3735   1.851   4.572   5.110 -0.0105  0.7509  0.3190
 1260TIP3   OH2 3736   6.139   2.887   5.706 -0.5052 -0.4608  0.3766
 1260TIP3    H1 3737   6.192   2.823   5.658 -0.6553 -0.2776 -0.0408
 1260TIP3    H2 3738   6.175   2.972   5.681 -1.0875 -0.3298 -0.0289
 1261TIP3   OH2 3739   7.453   1.170   6.415  0.2421  0.3273  0.0211
 1261TIP3    H1 3740   7.391   1.203   6.480 -2.9437 -1.4463 -1.8289
 1261TIP3    H2 3741   7.481   1.085   6.449  0.8664  0.6575  0.3547
 1262TIP3   OH2 3742   6.121   3.899   5.257  0.1088  0.4460  0.1135
 1262TIP3    H1 3743   6.176   3.826   5.227 -2.0234 -0.2552 -2.4550
 1262TIP3    H2 3744   6.136   3.968   5.192 -1.1664  0.6673  0.0427
 1263TIP3   OH2 3745   7.188   6.824   6.621 -0.2167  0.3565  0.3911
 1263TIP3    H1 3746   7.108   6.785   6.587  0.0047 -0.4265  0.7377
 1263TIP3    H2 3747   7.168   6.848   6.711  0.2817 -0.9948  0.8966
 1264TIP3   OH2 3748   4.494   0.449   4.610 -0.0094 -0.0188  0.4847
 1264TIP3    H1 3749   4.401   0.446   4.630 -0.2981 -1.5576 -0.8617
 1264TIP3    H2 3750   4.537   0.421   4.691 -0.7086  0.3985  1.0174
 1265TIP3   OH2 3751   7.085   6.757   4.618  0.3508  0.5402  0.2431
 1265TIP3    H1 3752   7.101   6.697   4.546 -0.9603 -0.7044  0.9361
 1265TIP3    H2 3753   7.026   6.823   4.582  1.0015  0.8587 -0.2544
 1266TIP3   OH2 3754   7.266   0.657   0.606 -0.4366 -0.0281 -0.5445
 1266TIP3    H1 3755   7.205   0.587   0.584 -0.2137 -0.6399  0.7023
 1266TIP3    H2 3756   7.263   0.663   0.702 -0.3646  1.5961 -0.6151
 1267TIP3   OH2 3757   0.352   6.373   1.573  0.1725 -0.0771 -0.2164
 1267TIP3    H1 3758   0.298   6.353   1.649  1.8939  0.2327  1.1493
 1267TIP3    H2 3759   0.367   6.467   1.578 -0.1488  0.0495 -1.2843
 1268TIP3   OH2 3760   2.103   3.852   5.078 -0.5771 -0.4964 -0.3406
 1268TIP3    H1 3761   2.072   3.859   4.988 -2.2302 -1.8513  0.0642
 1268TIP3    H2 3762   2.024   3.853   5.131 -0.0264 -3.8521  0.7910
 1269TIP3   OH2 3763   3.116   3.541   3.830  0.2762  0.0257 -0.1444
 1269TIP3    H1 3764   3.073   3.464   3.793  1.0594  0.3681 -1.8561
 1269TIP3    H2 3765   3.186   3.505   3.885  1.0965 -0.5272 -1.4886
 1270TIP3   OH2 3766   6.540   3.887   3.285  0.0313  0.4994 -0.0445
 1270TIP3    H1 3767   6.554   3.839   3.203  0.0317  0.2437  0.1065
 1270TIP3    H2 3768   6.603   3.850   3.346  0.2940  0.9541 -0.0343
 1271TIP3   OH2 3769   0.258   3.754   6.321  0.2059 -0.2444  0.0005
 1271TIP3    H1 3770   0.311   3.833   6.330 -0.1487  0.2271 -1.6822
 1271TIP3    H2 3771   0.297   3.692   6.382  3.2705 -0.2115 -1.7015
 1272TIP3   OH2 3772   6.426   7.565   2.622  0.0982  0.1588  0.9729
 1272TIP3    H1 3773   6.399   7.488   2.572 -0.8168  2.4246 -2.3803
 1272TIP3    H2 3774   6.514   7.585   2.589 -0.8538  2.1868 -0.5494
 1273TIP3   OH2 3775   2.666   3.826   6.312 -0.5310  0.8600 -0.3944
 1273TIP3    H1 3776   2.635   3.856   6.227  1.8170  0.1038 -1.6234
 1273TIP3    H2 3777   2.755   3.860   6.319  0.9775 -2.6289 -0.2763
 1274TIP3   OH2 3778   1.606   2.371   4.115 -0.3671  0.4796  0.3036
 1274TIP3    H1 3779   1.581   2.371   4.023  3.0883 -0.3303 -0.7837
 1274TIP3    H2 3780   1.583   2.283   4.146  1.1929 -0.3386 -0.7274
 1275TIP3   OH2 3781   7.365   7.615   6.139  0.3753  0.2014  0.0438
 1275TIP3    H1 3782   7.340   7.690   6.085 -1.7624  0.4290  1.2695
 1275TIP3    H2 3783   7.344   7.538   6.086 -0.5128  0.4406  0.0406
 1276TIP3   OH2 3784   7.977   0.122   0.901 -0.2079 -0.7286  0.5030
 1276TIP3    H1 3785   8.041   0.161   0.961  0.6562 -0.2573 -0.6974
 1276TIP3    H2 3786   7.904   0.183   0.902 -0.8944 -1.4914  2.2285
 1277TIP3   OH2 3787   2.036   0.390   1.188  0.1646  0.3488  0.3195
 1277TIP3    H1 3788   2.011   0.468   1.237 -0.4240 -0.1289  0.8048
 1277TIP3    H2 3789   2.059   0.326   1.255 -0.2423 -0.1831 -0.0435
 1278TIP3   OH2 3790   4.283   6.551   1.896  1.1681 -0.2655 -0.2885
 1278TIP3    H1 3791   4.265   6.514   1.983  1.2394  1.0403  0.3107
 1278TIP3    H2 3792   4.379   6.552   1.890  1.1510 -1.3277 -0.8275
 1279TIP3   OH2 3793   0.094  -0.005   6.161  0.2071  0.4225 -0.6672
 1279TIP3    H1 3794   0.069   0.087   6.170 -0.7169  0.0880  0.4506
 1279TIP3    H2 3795   0.140  -0.025   6.242  0.5358 -0.0679 -0.9697
 1280TIP3   OH2 3796   1.237   3.749   1.390 -0.3262  0.1326 -0.3606
 1280TIP3    H1 3797   1.274   3.813   1.329 -1.8262  1.8474  0.4366
 1280TIP3    H2 3798   1.312   3.716   1.438  0.5749  0.7243 -1.3120
 1281TIP3   OH2 3799   6.688   3.390   0.316  0.1023 -0.1588 -0.2837
 1281TIP3    H1 3800   6.637   3.448   0.259 -1.7178 -0.0720  1.3636
 1281TIP3    H2 3801   6.733   3.449   0.376 -1.2497 -0.3806  0.9846
 1282TIP3   OH2 3802   6.748   5.543   4.622  0.4151  0.3075 -0.0337
 1282TIP3    H1 3803   6.817   5.608   4.618  0.8724 -0.1704 -0.0463
 1282TIP3    H2 3804   6.669   5.592   4.642  0.4734  1.0654 -1.5073
 1283TIP3   OH2 3805   5.960   6.988   5.917 -0.0200  0.5256 -0.6214
 1283TIP3    H1 3806   6.021   7.055   5.949 -0.0877  0.0728  0.4724
 1283TIP3    H2 3807   6.013   6.909   5.908 -0.4086  0.1622  0.2134
 1284TIP3   OH2 3808   4.539  -0.007   5.274  0.6012 -0.4041  0.0999
 1284TIP3    H1 3809   4.526   0.023   5.184  0.7160 -2.0022 -0.4795
 1284TIP3    H2 3810   4.615   0.044   5.305  0.7896 -0.0915 -0.8239
 1285TIP3   OH2 3811   3.341   3.785   3.512 -0.1623 -0.3244  0.1141
 1285TIP3    H1 3812   3.292   3.778   3.430 -0.1398 -0.3948  0.1070
 1285TIP3    H2 3813   3.378   3.698   3.526  2.5363  0.4415 -1.4879
 1286TIP3   OH2 3814   1.374   5.105   2.567 -0.0862  0.1327 -0.3979
 1286TIP3    H1 3815   1.349   5.169   2.634 -1.6394  0.1567 -0.9614
 1286TIP3    H2 3816   1.466   5.123   2.550 -0.2940  1.7223 -0.0014
 1287TIP3   OH2 3817   5.471   2.760   0.265  0.3069  0.3274  0.6541
 1287TIP3    H1 3818   5.531   2.697   0.225 -2.6875 -0.8840 -2.4196
 1287TIP3    H2 3819   5.442   2.717   0.346  2.8532  0.6316  1.8248
 1288TIP3   OH2 3820   8.059   6.114   3.821 -0.5360  0.1448 -0.6561
 1288TIP3    H1 3821   8.003   6.080   3.890 -1.4424 -0.1833 -1.5366
 1288TIP3    H2 3822   8.108   6.037   3.790 -0.7606  0.1239 -0.9599
 1289TIP3   OH2 3823   3.067   3.902   1.026 -0.6709 -0.2245 -0.2383
 1289TIP3    H1 3824   2.973   3.896   1.007 -0.5181 -1.3653 -0.6765
 1289TIP3    H2 3825   3.070   3.939   1.115 -1.4902  0.9005 -0.6509
 1290TIP3   OH2 3826   0.314   1.486   2.514 -0.7169 -0.7467 -0.0376
 1290TIP3    H1 3827   0.398   1.524   2.486 -1.8970  2.3732  0.2394
 1290TIP3    H2 3828   0.331   1.392   2.519  3.2275 -0.1593  1.4857
 1291TIP3   OH2 3829   0.014   7.278   1.553 -0.3145 -0.4269  1.2579
 1291TIP3    H1 3830   0.018   7.235   1.638 -1.7476  0.0435  1.5852
 1291TIP3    H2 3831   0.001   7.371   1.574 -2.4664 -0.5211  0.5580
 1292TIP3   OH2 3832   3.038   5.369   0.133  0.8175 -0.5131 -0.3247
 1292TIP3    H1 3833   3.006   5.282   0.156 -2.1240  0.8527  1.2446
 1292TIP3    H2 3834   3.007   5.384   0.043 -0.0078 -0.5075 -0.0397
 1293TIP3   OH2 3835   5.310   0.741   6.516 -0.0775 -0.1489 -0.7266
 1293TIP3    H1 3836   5.335   0.689   6.593  1.3305  0.9356 -0.4022
 1293TIP3    H2 3837   5.239   0.797   6.548 -0.3544 -0.5866 -0.5665
 1294TIP3   OH2 3838   4.672   1.811   1.907 -0.1970 -0.3712  0.0831
 1294TIP3    H1 3839   4.620   1.742   1.948 -1.3195  0.2507 -0.2487
 1294TIP3    H2 3840   4.642   1.892   1.949 -0.5191  0.1474 -1.1009
 1295TIP3   OH2 3841   7.876   2.152   1.347  0.2091 -0.1944 -0.5029
 1295TIP3    H1 3842   7.868   2.145   1.442  1.7425 -1.2919 -0.4162
 1295TIP3    H2 3843   7.910   2.067   1.319  0.2163  0.2632 -1.9897
 1296TIP3   OH2 3844   8.229   6.790   5.904 -0.3987 -0.3243 -0.0619
 1296TIP3    H1 3845   8.171   6.726   5.864 -1.3808 -0.0704  0.9351
 1296TIP3    H2 3846   8.315   6.748   5.902 -0.3849 -0.3486 -2.3775
 1297TIP3   OH2 3847   8.132   3.575   0.491  0.2820  0.3418 -0.2267
 1297TIP3    H1 3848   8.197   3.508   0.514 -1.1970 -0.9686  0.3510
 1297TIP3    H2 3849   8.182   3.656   0.483  1.8632 -0.4603  1.0026
 1298TIP3   OH2 3850   7.169   0.804   4.266 -0.3252  0.5996  0.4151
 1298TIP3    H1 3851   7.229   0.870   4.232  0.9892 -1.3954 -1.4105
 1298TIP3    H2 3852   7.097   0.803   4.202  0.1412 -0.3727 -0.1085
 1299TIP3   OH2 3853   6.096   5.647   0.322 -0.5496 -0.4351 -0.1295
 1299TIP3    H1 3854   6.017   5.597   0.302 -0.3560 -0.6004 -0.4805
 1299TIP3    H2 3855   6.141   5.595   0.389 -1.0178 -0.0594  0.4875
 1300TIP3   OH2 3856   2.684   0.058   3.482 -0.3769  0.1791 -0.5390
 1300TIP3    H1 3857   2.764   0.076   3.433  0.0900 -1.8028 -0.6091
 1300TIP3    H2 3858   2.699   0.096   3.568 -0.0569  1.2594 -1.0496
 1301TIP3   OH2 3859   2.113   1.830   4.030  0.4628 -0.2638  0.1697
 1301TIP3    H1 3860   2.198   1.824   4.074  0.4517  0.2390  0.2637
 1301TIP3    H2 3861   2.126   1.896   3.962  0.2522 -0.4612 -0.0637
 1302TIP3   OH2 3862   7.509   1.103   1.166 -0.4256  0.1941 -0.2920
 1302TIP3    H1 3863   7.590   1.129   1.122 -0.0297 -0.0641  0.2707
 1302TIP3    H2 3864   7.527   1.016   1.199 -0.8407  0.2471  0.0787
 1303TIP3   OH2 3865   4.004   6.972   0.867  0.7587  0.2106 -0.3567
 1303TIP3    H1 3866   4.053   6.991   0.787  2.0726  0.2865  0.4374
 1303TIP3    H2 3867   3.923   6.930   0.837  1.0325  0.6325 -1.7357
 1304TIP3   OH2 3868   1.168   5.785   2.675  0.1930  0.2150  0.2201
 1304TIP3    H1 3869   1.252   5.750   2.646  0.8477  1.8244  0.0436
 1304TIP3    H2 3870   1.103   5.726   2.637  1.2332 -2.7088  2.5787
 1305TIP3   OH2 3871   2.651   5.282   1.927 -0.0607  0.4751 -0.3191
 1305TIP3    H1 3872   2.610   5.230   1.858  0.4790 -0.5316  0.0926
 1305TIP3    H2 3873   2.578   5.319   1.977 -0.5098 -1.0598  0.2338
 1306TIP3   OH2 3874   5.461   2.051   1.476 -0.0540 -0.0531 -0.3661
 1306TIP3    H1 3875   5.524   2.119   1.449  0.4199 -0.6483 -0.7834
 1306TIP3    H2 3876   5.509   1.969   1.467 -0.9374 -0.5329 -0.8004
 1307TIP3   OH2 3877   8.236   7.035   6.487  0.0196  0.1216 -0.5813
 1307TIP3    H1 3878   8.147   7.002   6.494 -0.0336 -0.3352 -2.8768
 1307TIP3    H2 3879   8.229   7.116   6.436  0.9836 -0.3672 -1.5397
 1308TIP3   OH2 3880   5.555   3.376   6.505  0.1294 -0.0896 -0.6569
 1308TIP3    H1 3881   5.574   3.456   6.554 -0.6438  0.3480 -1.0653
 1308TIP3    H2 3882   5.641   3.342   6.480  0.5369 -0.2095  0.8074
 1309TIP3   OH2 3883   2.728   1.264   4.794  0.2621 -0.3888 -0.1237
 1309TIP3    H1 3884   2.744   1.357   4.778  0.2134 -0.2332  0.6711
 1309TIP3    H2 3885   2.815   1.225   4.803  0.2967  0.0615  2.0560
 1310TIP3   OH2 3886   7.939   5.877   0.761  0.7213 -0.0571 -0.3349
 1310TIP3    H1 3887   7.891   5.796   0.745  0.3777  0.3173 -1.2405
 1310TIP3    H2 3888   7.933   5.925   0.679 -1.3630  2.0921  0.9691
 1311TIP3   OH2 3889   1.795   5.424   3.629  0.2410 -0.0678  0.0305
 1311TIP3    H1 3890   1.755   5.502   3.592  1.2997  0.8983  0.8444
 1311TIP3    H2 3891   1.887   5.429   3.603  0.6873 -0.1306  1.5090
 1312TIP3   OH2 3892   0.184   6.011   1.658  0.5039  0.1553  0.4731
 1312TIP3    H1 3893   0.171   6.072   1.585  0.2702  1.0977  1.2651
 1312TIP3    H2 3894   0.275   6.024   1.683  1.9384 -3.2094 -2.2392
 1313TIP3   OH2 3895   7.670   3.754   1.139  0.0075  0.6414 -0.4655
 1313TIP3    H1 3896   7.742   3.774   1.079  0.6169 -0.3953 -0.1126
 1313TIP3    H2 3897   7.626   3.838   1.152  2.1017  1.6682  0.5615
 1314TIP3   OH2 3898   8.206   3.299   5.520  0.4045 -0.1754  0.2546
 1314TIP3    H1 3899   8.286   3.247   5.521  0.4517 -0.0980  0.8608
 1314TIP3    H2 3900   8.175   3.294   5.430  1.6608  0.6644 -0.2427
 1315TIP3   OH2 3901   6.771   3.471   1.453  0.1426 -0.1577 -0.1636
 1315TIP3    H1 3902   6.790   3.507   1.539  0.2189 -1.3203  0.3139
 1315TIP3    H2 3903   6.684   3.505   1.431 -0.7111 -1.3726  1.2027
 1316TIP3   OH2 3904   2.852   1.690   3.529 -0.2754 -0.0034 -0.4190
 1316TIP3    H1 3905   2.822   1.599   3.537  0.7926 -0.3907 -0.6351
 1316TIP3    H2 3906   2.873   1.716   3.619  0.9739 -0.5306 -0.5506
 1317TIP3   OH2 3907   7.994   1.559   4.386 -0.1840 -0.3163  0.2146
 1317TIP3    H1 3908   7.972   1.609   4.464 -0.2534  0.4916 -0.3065
 1317TIP3    H2 3909   7.954   1.608   4.314  0.9421 -0.3377 -0.4629
 1318TIP3   OH2 3910   5.032   0.146   1.588  0.4214  0.3343  0.4281
 1318TIP3    H1 3911   5.123   0.176   1.594  0.5147 -0.2176  2.7692
 1318TIP3    H2 3912   5.033   0.058   1.625 -0.8661 -0.2314 -0.7857
 1319TIP3   OH2 3913   5.787   4.996   2.778 -0.1314 -0.2909 -0.4632
 1319TIP3    H1 3914   5.864   5.051   2.759 -0.8746  1.0344  0.1860
 1319TIP3    H2 3915   5.813   4.944   2.853  0.0426  0.3703 -0.0566
 1320TIP3   OH2 3916   1.930   5.138   0.630  0.1027  0.7183 -0.1727
 1320TIP3    H1 3917   1.847   5.099   0.602  0.4079 -0.2479  0.2183
 1320TIP3    H2 3918   1.956   5.195   0.558 -0.2677  0.0477 -0.8516
 1321TIP3   OH2 3919   7.669   1.626   4.576 -0.1690  0.8290  0.6317
 1321TIP3    H1 3920   7.638   1.539   4.601  0.3997  0.5722  0.4770
 1321TIP3    H2 3921   7.640   1.637   4.485 -0.5175  0.9352  0.7555
 1322TIP3   OH2 3922   7.217   0.271   1.015  0.0433  0.3881 -0.2389
 1322TIP3    H1 3923   7.270   0.256   1.094  0.3216  0.8332 -0.3362
 1322TIP3    H2 3924   7.190   0.183   0.988  0.2314  0.2011  0.1554
 1323TIP3   OH2 3925   5.694   4.434   6.097 -0.1820  0.4816  0.2120
 1323TIP3    H1 3926   5.690   4.367   6.028 -0.4220  0.0347  0.6498
 1323TIP3    H2 3927   5.787   4.454   6.106 -0.0496 -0.2051  0.4562
 1324TIP3   OH2 3928   4.134   6.417   3.642  0.0302 -0.0325 -0.2995
 1324TIP3    H1 3929   4.076   6.378   3.707 -2.4031  0.4442 -2.0362
 1324TIP3    H2 3930   4.175   6.491   3.687 -2.2042  0.7855  0.5230
 1325TIP3   OH2 3931   1.679   0.051   2.902 -0.3011  0.2777 -0.1759
 1325TIP3    H1 3932   1.745   0.115   2.875  0.3722 -0.0324  0.6939
 1325TIP3    H2 3933   1.655   0.006   2.821  0.6392  0.3166 -0.4876
 1326TIP3   OH2 3934   5.901   2.365   3.655 -0.1774 -0.0339 -0.3857
 1326TIP3    H1 3935   5.950   2.398   3.731 -0.9198 -0.0605  0.1182
 1326TIP3    H2 3936   5.960   2.376   3.581  0.7881 -0.5465  0.2853
 1327TIP3   OH2 3937   3.900   7.316   3.025  0.3745  0.2435 -0.4745
 1327TIP3    H1 3938   3.832   7.310   2.958  1.5777 -0.5588 -1.6663
 1327TIP3    H2 3939   3.925   7.409   3.024  0.3496  0.2480 -1.0980
 1328TIP3   OH2 3940   3.410   3.622   6.015 -0.0049  0.2958  0.2051
 1328TIP3    H1 3941   3.438   3.636   6.105 -0.0114 -0.3878  0.3217
 1328TIP3    H2 3942   3.486   3.582   5.973  1.0210  3.0833 -0.8475
 1329TIP3   OH2 3943   0.789   2.326   0.942  0.2516  0.4520  0.2678
 1329TIP3    H1 3944   0.698   2.311   0.967 -0.0331  0.1839 -0.8461
 1329TIP3    H2 3945   0.798   2.280   0.858  1.5195  0.1716  0.5447
 1330TIP3   OH2 3946   5.669   1.612   1.261  0.1299  0.4109 -0.0209
 1330TIP3    H1 3947   5.585   1.611   1.216  0.2216 -1.2316 -0.2232
 1330TIP3    H2 3948   5.672   1.530   1.309  1.2237  0.8694  0.7502
 1331TIP3   OH2 3949   0.489   5.567   3.806 -0.3997  0.1825 -0.3680
 1331TIP3    H1 3950   0.581   5.586   3.826  0.0848 -1.8091 -0.4819
 1331TIP3    H2 3951   0.444   5.649   3.822  1.3810  1.1815 -0.1718
 1332TIP3   OH2 3952   1.593   3.025   4.490 -0.2723 -0.2046  0.5601
 1332TIP3    H1 3953   1.636   3.101   4.531  0.5243 -0.9282  1.0987
 1332TIP3    H2 3954   1.661   2.958   4.487 -0.4108 -0.3241 -1.6146
 1333TIP3   OH2 3955   7.497   7.646   1.560  0.6539  0.5155 -1.1682
 1333TIP3    H1 3956   7.582   7.604   1.551  0.9736  1.0684 -0.7975
 1333TIP3    H2 3957   7.464   7.615   1.644  1.4026  1.8748 -0.3424
 1334TIP3   OH2 3958   7.902   6.824   6.238  0.4434  0.2744 -0.0896
 1334TIP3    H1 3959   7.905   6.848   6.145  0.7910  2.0742  0.3399
 1334TIP3    H2 3960   7.980   6.769   6.251  1.9123  2.1641 -0.3720
 1335TIP3   OH2 3961   7.142   6.306   6.685 -0.2446  0.5894  0.4490
 1335TIP3    H1 3962   7.067   6.289   6.742 -0.1704  0.2575  0.4517
 1335TIP3    H2 3963   7.163   6.220   6.647  0.7034  0.4947  1.1449
 1336TIP3   OH2 3964   6.379   4.582   5.887 -0.4060  0.1888  0.0543
 1336TIP3    H1 3965   6.395   4.523   5.813 -0.9846  0.2116 -0.0930
 1336TIP3    H2 3966   6.418   4.536   5.962 -0.5323 -0.2146 -0.1219
 1337TIP3   OH2 3967   6.290   1.956   0.707 -0.3133 -0.4096  0.2233
 1337TIP3    H1 3968   6.368   1.918   0.667 -0.7488  0.0237 -1.0638
 1337TIP3    H2 3969   6.322   1.997   0.788  0.2094 -3.2772  1.6026
 1338TIP3   OH2 3970   6.240   3.864   5.775 -0.8484  0.3044 -0.5174
 1338TIP3    H1 3971   6.187   3.848   5.853  0.6087  1.3269  0.7416
 1338TIP3    H2 3972   6.324   3.823   5.794 -0.3048  1.0164 -1.3136
 1339TIP3   OH2 3973   7.564   2.527   2.897  0.8815 -0.2086 -0.2707
 1339TIP3    H1 3974   7.618   2.539   2.819 -0.1928 -0.0923 -1.0143
 1339TIP3    H2 3975   7.527   2.613   2.914  0.1815 -0.4953 -0.3291
 1340TIP3   OH2 3976   7.903   0.730   1.782 -0.6042 -0.5509 -0.5349
 1340TIP3    H1 3977   7.855   0.741   1.864 -0.1866  4.3295 -0.6295
 1340TIP3    H2 3978   7.995   0.732   1.809 -0.4715  0.1677 -1.0162
 1341TIP3   OH2 3979   3.065   3.773   0.206 -0.3823 -0.0877 -0.7371
 1341TIP3    H1 3980   3.066   3.726   0.122  1.3070  0.5505 -1.1258
 1341TIP3    H2 3981   3.030   3.859   0.184 -1.5984 -0.4863 -0.4181
 1342TIP3   OH2 3982   1.026   6.222   0.492 -0.1775 -0.1294  0.0038
 1342TIP3    H1 3983   0.949   6.238   0.547 -0.2780  1.4046 -0.5440
 1342TIP3    H2 3984   1.071   6.307   0.489  0.9269 -0.7227 -0.6142
 1343TIP3   OH2 3985   2.905   3.868   5.351 -0.4118  0.0495  0.1472
 1343TIP3    H1 3986   2.979   3.875   5.412  0.1211  0.4078 -0.5237
 1343TIP3    H2 3987   2.827   3.879   5.406  0.0043 -0.9448  0.9559
 1344TIP3   OH2 3988   1.676   0.463   0.886  0.6628 -0.4625  0.9194
 1344TIP3    H1 3989   1.593   0.500   0.915  0.3964  0.2175 -0.5872
 1344TIP3    H2 3990   1.743   0.521   0.922  0.5867 -1.5144  2.8934
 1345TIP3   OH2 3991   1.319   2.531   3.616 -0.7696 -0.2809 -0.2427
 1345TIP3    H1 3992   1.276   2.449   3.593  0.0515 -0.3906 -1.4862
 1345TIP3    H2 3993   1.402   2.529   3.570 -0.6760  1.2045 -0.2159
 1346TIP3   OH2 3994   7.824   5.779   1.520 -0.1732 -0.3108 -0.1289
 1346TIP3    H1 3995   7.730   5.772   1.537 -0.0289 -1.2577  0.3272
 1346TIP3    H2 3996   7.843   5.706   1.461  0.5831 -1.2101  1.1745
 1347TIP3   OH2 3997   1.265   3.546   4.075  0.4646  0.3277 -0.4204
 1347TIP3    H1 3998   1.256   3.582   3.987 -0.3472 -1.8948 -1.3086
 1347TIP3    H2 3999   1.287   3.621   4.130 -1.4150  2.1852 -2.0888
 1348TIP3   OH2 4000   3.861   5.375   5.569 -0.1237  0.2235 -0.0403
 1348TIP3    H1 4001   3.770   5.352   5.585  0.3381 -1.1320  0.8282
 1348TIP3    H2 4002   3.862   5.412   5.481 -0.8515 -4.0646 -2.1003
 1349TIP3   OH2 4003   4.648   6.016   2.436 -0.0393 -0.3859  0.2670
 1349TIP3    H1 4004   4.661   5.921   2.443 -2.7082 -0.7484  2.9122
 1349TIP3    H2 4005   4.608   6.040   2.520 -0.4040  2.9393 -0.7157
 1350TIP3   OH2 4006   7.574   1.298   1.488 -0.3883  0.3132  0.1567
 1350TIP3    H1 4007   7.584   1.392   1.500 -1.0106  0.6476 -1.7060
 1350TIP3    H2 4008   7.549   1.287   1.397 -0.4420 -1.6630  0.3553
 1351TIP3   OH2 4009   3.449   0.618   3.339 -0.8195 -0.0639  0.4465
 1351TIP3    H1 4010   3.402   0.607   3.422 -1.5914  0.7092  0.1201
 1351TIP3    H2 4011   3.381   0.625   3.273 -0.2879  1.6308  0.0307
 1352TIP3   OH2 4012   0.168   5.688   5.976 -0.4453  0.1688  0.2275
 1352TIP3    H1 4013   0.163   5.765   5.920 -2.5003 -0.5011 -0.6131
 1352TIP3    H2 4014   0.257   5.655   5.964 -0.1245  1.3476 -0.8521
 1353TIP3   OH2 4015   0.803   6.042   0.848 -0.0646  0.4540  0.1346
 1353TIP3    H1 4016   0.740   6.109   0.875  0.9434  1.1509  0.8471
 1353TIP3    H2 4017   0.764   6.003   0.769 -2.4863 -0.7346  1.7827
 1354TIP3   OH2 4018   1.720   3.383   1.105  0.2999 -0.4449  0.3502
 1354TIP3    H1 4019   1.702   3.430   1.023  0.1104  1.5842  1.4936
 1354TIP3    H2 4020   1.801   3.334   1.086 -0.2822 -0.8282 -1.3391
 1355TIP3   OH2 4021   2.170   7.694   3.213 -0.1010  0.0744 -0.4695
 1355TIP3    H1 4022   2.223   7.760   3.258 -1.6324  0.3314  1.0678
 1355TIP3    H2 4023   2.089   7.740   3.191 -0.3736 -0.7526 -1.2412
 1356TIP3   OH2 4024   0.806   6.675   2.984  0.4423 -0.0218 -0.2424
 1356TIP3    H1 4025   0.765   6.661   3.070 -1.9947 -1.2246 -1.4911
 1356TIP3    H2 4026   0.748   6.737   2.939  1.0702 -0.2378 -1.3963
 1357TIP3   OH2 4027   4.924   6.540   2.324 -0.3237 -0.1908  0.1306
 1357TIP3    H1 4028   4.956   6.624   2.291 -1.8521 -0.5011 -2.4000
 1357TIP3    H2 4029   4.993   6.478   2.300  0.1830  0.1128  0.7663
 1358TIP3   OH2 4030   1.714   5.911   0.737 -0.3869  0.2164  0.4501
 1358TIP3    H1 4031   1.653   5.856   0.785 -0.9254  0.0328 -0.4281
 1358TIP3    H2 4032   1.710   5.996   0.782 -0.4404 -0.1088  1.0762
 1359TIP3   OH2 4033   3.978   1.701   6.303  0.0995  0.1541  0.2016
 1359TIP3    H1 4034   4.005   1.791   6.320 -0.4122 -0.0725  2.5683
 1359TIP3    H2 4035   3.883   1.705   6.295  0.2023  0.0342 -1.5898
 1360TIP3   OH2 4036   4.906   2.945   1.444  0.0813  0.1687  0.0583
 1360TIP3    H1 4037   4.899   2.851   1.427 -0.2191  0.3886 -1.1437
 1360TIP3    H2 4038   5.000   2.962   1.445  0.2580 -0.5278  2.7699
 1361TIP3   OH2 4039   7.315   2.831   4.516 -0.3957 -0.1854  0.3836
 1361TIP3    H1 4040   7.360   2.758   4.557 -2.4031 -1.9756 -0.3805
 1361TIP3    H2 4041   7.371   2.856   4.442  0.0335 -1.3933  0.2878
 1362TIP3   OH2 4042   4.315   4.093   1.993  0.6732  0.0758  0.3400
 1362TIP3    H1 4043   4.229   4.134   1.993  0.0999 -1.0236 -1.5898
 1362TIP3    H2 4044   4.308   4.022   2.057  0.1456 -0.0326  0.1635
 1363TIP3   OH2 4045   0.403   2.422   3.954 -0.5337 -0.0156 -0.4605
 1363TIP3    H1 4046   0.431   2.353   4.015 -1.6585 -1.0574 -1.0792
 1363TIP3    H2 4047   0.344   2.377   3.893 -1.0373  1.4357 -1.0731
 1364TIP3   OH2 4048   6.657   2.074   1.143  0.3347  0.0798 -0.2643
 1364TIP3    H1 4049   6.661   2.046   1.234  0.2367  0.3926 -0.1639
 1364TIP3    H2 4050   6.652   2.169   1.147  2.0026  0.2098 -0.6284
 1365TIP3   OH2 4051   3.977   7.007   0.379 -0.4092  0.4157 -0.3823
 1365TIP3    H1 4052   4.040   7.047   0.319 -1.2046  0.0006 -1.5242
 1365TIP3    H2 4053   3.941   6.933   0.330 -0.7079 -0.2369  0.8019
 1366TIP3   OH2 4054   4.542   3.149   0.823 -0.3076 -0.1357  0.8213
 1366TIP3    H1 4055   4.513   3.140   0.732  0.3754 -0.0922  0.5938
 1366TIP3    H2 4056   4.586   3.233   0.826  1.2437 -0.9087  0.7445
 1367TIP3   OH2 4057   1.427   3.244   4.546 -0.4561 -0.1515 -0.1326
 1367TIP3    H1 4058   1.482   3.167   4.535 -1.1190 -0.7204  0.4979
 1367TIP3    H2 4059   1.359   3.217   4.607 -0.1210  1.2268  0.9134
 1368TIP3   OH2 4060   8.089   5.515   2.899  0.0379 -0.2466  0.2495
 1368TIP3    H1 4061   8.101   5.610   2.892  0.7529 -0.3272  0.2888
 1368TIP3    H2 4062   7.997   5.501   2.877 -0.0823  0.4561  0.2607
 1369TIP3   OH2 4063   2.920   2.884   4.689  0.4039  0.3795 -0.1565
 1369TIP3    H1 4064   2.871   2.957   4.726 -0.0160 -0.3807  0.8350
 1369TIP3    H2 4065   2.978   2.924   4.624  0.2144  1.5898  0.3968
 1370TIP3   OH2 4066   6.412   5.110   3.160 -0.0038 -0.5006  0.5654
 1370TIP3    H1 4067   6.371   5.050   3.099  1.3954  0.1806 -1.1343
 1370TIP3    H2 4068   6.344   5.129   3.225 -1.9428 -0.4154 -1.3697
 1371TIP3   OH2 4069   2.217   1.574   6.082 -0.5102  0.0973 -0.3933
 1371TIP3    H1 4070   2.125   1.577   6.059 -0.3128  1.5503 -1.0851
 1371TIP3    H2 4071   2.243   1.666   6.091  0.7408 -0.3001  0.3259
 1372TIP3   OH2 4072   2.430   3.486   1.674  0.2253 -0.3860 -0.8558
 1372TIP3    H1 4073   2.348   3.453   1.711 -0.1587  1.3172 -0.0836
 1372TIP3    H2 4074   2.491   3.489   1.747  0.0111  1.2828 -0.7059
 1373TIP3   OH2 4075   3.774   3.751   5.834 -0.1939  0.2211 -0.6644
 1373TIP3    H1 4076   3.815   3.834   5.859 -1.0929  0.5951 -0.3845
 1373TIP3    H2 4077   3.800   3.690   5.903  1.8888 -0.2179 -1.7504
 1374TIP3   OH2 4078   4.824   3.090   3.534 -0.4196 -0.3105  0.2244
 1374TIP3    H1 4079   4.812   3.107   3.441 -2.2754  0.7729  0.6136
 1374TIP3    H2 4080   4.896   3.027   3.538  0.1180  0.0940 -1.8863
 1375TIP3   OH2 4081   2.578   4.925   2.322 -0.2422 -0.4625 -0.0674
 1375TIP3    H1 4082   2.577   5.009   2.276  0.4295  0.5910  1.7499
 1375TIP3    H2 4083   2.661   4.885   2.296  1.0397  0.9621  1.5360
 1376TIP3   OH2 4084   6.811   6.025   5.873 -0.1581  0.4851  0.1964
 1376TIP3    H1 4085   6.865   5.964   5.922  1.3861 -0.1629 -2.1333
 1376TIP3    H2 4086   6.843   6.111   5.898  0.0092  0.2141  0.9394
 1377TIP3   OH2 4087   6.988   6.709   3.100  0.0070  0.2428  0.2823
 1377TIP3    H1 4088   6.958   6.797   3.078 -1.2627 -0.8489 -2.8988
 1377TIP3    H2 4089   7.081   6.709   3.075  0.4104  1.0547  1.6933
 1378TIP3   OH2 4090   0.250   1.804   3.187  0.3634 -0.5240 -0.0292
 1378TIP3    H1 4091   0.157   1.824   3.176  0.4324 -0.5014 -0.5746
 1378TIP3    H2 4092   0.289   1.822   3.101  1.3093  1.8810  0.8081
 1379TIP3   OH2 4093   3.500   4.657   5.575 -0.3302 -0.5188  0.7307
 1379TIP3    H1 4094   3.526   4.740   5.613  0.3871 -1.8038  3.3012
 1379TIP3    H2 4095   3.563   4.641   5.505  0.9499  0.0787  1.7082
 1380TIP3   OH2 4096   2.895   5.929   6.579 -0.0830  0.1016 -0.2863
 1380TIP3    H1 4097   2.973   5.886   6.614  0.0113 -1.0853 -1.8439
 1380TIP3    H2 4098   2.822   5.874   6.607 -0.2605  0.5850  0.2164
 1381TIP3   OH2 4099   4.089   4.584   0.762  0.0917 -0.1700 -0.8485
 1381TIP3    H1 4100   4.122   4.496   0.747  0.0951 -0.3695  0.2650
 1381TIP3    H2 4101   4.167   4.639   0.762 -0.0267  0.0690 -2.9617
 1382TIP3   OH2 4102   1.782   0.953   0.395  0.3806 -0.5469  0.3640
 1382TIP3    H1 4103   1.714   0.982   0.456  0.2016 -0.1241 -0.0295
 1382TIP3    H2 4104   1.859   0.940   0.450  0.5863  1.1146  0.5052
 1383TIP3   OH2 4105   6.677   1.801   4.494  0.4593  0.0832  0.0068
 1383TIP3    H1 4106   6.639   1.889   4.501  0.8482  0.2508  0.0136
 1383TIP3    H2 4107   6.639   1.765   4.414 -0.0691  0.0751  0.2547
 1384TIP3   OH2 4108   8.105   1.612   0.400  0.0937 -0.9198 -0.1905
 1384TIP3    H1 4109   8.130   1.695   0.441  1.2233 -0.3520 -1.8983
 1384TIP3    H2 4110   8.040   1.636   0.334  1.5816 -1.0888 -1.7987
 1385TIP3   OH2 4111   7.038   0.060   2.352 -0.2264 -0.3207 -0.0430
 1385TIP3    H1 4112   7.057  -0.004   2.284  0.2222 -1.3527  1.0179
 1385TIP3    H2 4113   6.943   0.066   2.354 -0.2455 -0.3345 -0.7068
 1386TIP3   OH2 4114   5.513   0.592   6.011 -0.5554  0.9040  0.5775
 1386TIP3    H1 4115   5.540   0.567   6.099 -0.3851 -0.0060  0.2786
 1386TIP3    H2 4116   5.472   0.514   5.975  3.6134 -0.4606 -1.8689
 1387TIP3   OH2 4117   4.827   3.598   6.543 -0.7054  0.2496  0.4277
 1387TIP3    H1 4118   4.789   3.685   6.529 -1.5899 -0.3890 -1.5050
 1387TIP3    H2 4119   4.753   3.545   6.576 -0.1002  0.2694  1.8932
 1388TIP3   OH2 4120   5.275   6.434   0.391 -0.1509  0.2803 -0.0197
 1388TIP3    H1 4121   5.236   6.410   0.307 -0.0232  0.5033 -0.1447
 1388TIP3    H2 4122   5.219   6.392   0.457 -0.5398  0.5026 -0.2027
 1389TIP3   OH2 4123   7.391   6.402   2.852  0.1834  0.1769  0.6123
 1389TIP3    H1 4124   7.341   6.324   2.825  0.6558 -0.0771  0.4488
 1389TIP3    H2 4125   7.367   6.469   2.788  2.7592 -0.9603 -1.7988
 1390TIP3   OH2 4126   0.785   5.256   5.030 -0.2186  0.0041  0.5090
 1390TIP3    H1 4127   0.757   5.331   5.083 -1.8235 -0.0713 -0.1730
 1390TIP3    H2 4128   0.798   5.185   5.094  1.1166  0.7894  1.1379
 1391TIP3   OH2 4129   2.049   2.715   2.887 -0.1261  0.0633  0.7892
 1391TIP3    H1 4130   2.125   2.735   2.941  2.0757 -1.4151 -1.5197
 1391TIP3    H2 4131   2.047   2.786   2.822  0.6936 -0.9894 -0.4521
 1392TIP3   OH2 4132   1.838   0.335   6.554  0.1100 -0.1627 -0.0504
 1392TIP3    H1 4133   1.906   0.337   6.621  0.7886  1.4739 -0.7434
 1392TIP3    H2 4134   1.883   0.356   6.472 -1.1590  0.6679 -0.5756
 1393TIP3   OH2 4135   1.069   4.039   0.064 -0.8080 -0.4020 -0.8443
 1393TIP3    H1 4136   1.140   3.976   0.077 -0.1859 -0.0543 -2.3333
 1393TIP3    H2 4137   1.015   4.001  -0.006  0.0436  1.0237 -2.3641
 1394TIP3   OH2 4138   4.606   7.447   5.514 -0.3084  0.0255 -0.5770
 1394TIP3    H1 4139   4.650   7.521   5.555 -1.0757 -0.7878  1.9177
 1394TIP3    H2 4140   4.673   7.378   5.510 -0.6928 -0.4714  1.0649
 1395TIP3   OH2 4141   1.799   2.991   5.500  0.4502 -0.6995  0.4112
 1395TIP3    H1 4142   1.842   2.959   5.579 -2.4084 -1.2767  1.8715
 1395TIP3    H2 4143   1.830   3.081   5.490  3.2325 -1.5783  0.2997
 1396TIP3   OH2 4144   0.210   1.387   5.161 -0.4836 -0.1507 -0.4589
 1396TIP3    H1 4145   0.178   1.309   5.206 -0.6050 -0.4001 -0.9711
 1396TIP3    H2 4146   0.277   1.423   5.220 -1.0945 -0.1011  0.2143
 1397TIP3   OH2 4147   2.183   0.090   6.561  0.0215 -0.0916 -0.1203
 1397TIP3    H1 4148   2.228   0.154   6.615  0.5505  0.7890 -1.5493
 1397TIP3    H2 4149   2.232   0.089   6.479 -0.7452 -1.3943 -0.5933
 1398TIP3   OH2 4150   4.883   5.949   5.847 -0.3601 -0.1293 -0.7043
 1398TIP3    H1 4151   4.881   5.864   5.891  1.6858 -0.9338 -2.0352
 1398TIP3    H2 4152   4.854   5.931   5.758 -1.9809  1.0142 -0.4601
 1399TIP3   OH2 4153   1.557   3.478   4.462  0.0290 -0.2299 -0.0486
 1399TIP3    H1 4154   1.620   3.471   4.390  0.9905 -0.3982  0.7783
 1399TIP3    H2 4155   1.524   3.389   4.473  2.2385 -0.9475  1.7159
 1400TIP3   OH2 4156   4.986   7.647   3.744 -0.1182 -0.8074  0.0822
 1400TIP3    H1 4157   4.891   7.639   3.734  0.0845 -1.1018 -2.0006
 1400TIP3    H2 4158   4.998   7.668   3.836 -2.1469 -1.7873  0.6428
 1401TIP3   OH2 4159   6.350   5.056   1.225  0.0811  0.7846 -0.4242
 1401TIP3    H1 4160   6.380   4.993   1.159  0.5839 -2.1812  2.3650
 1401TIP3    H2 4161   6.431   5.091   1.262 -0.0719  0.1463  0.5567
 1402TIP3   OH2 4162   0.302   5.718   1.849  0.9352 -0.9673 -0.7519
 1402TIP3    H1 4163   0.335   5.771   1.921 -0.8362 -0.3390 -0.3458
 1402TIP3    H2 4164   0.325   5.768   1.770 -0.5150  0.3560 -0.3853
 1403TIP3   OH2 4165   4.677   2.385   4.180  0.0784 -0.2233  0.4713
 1403TIP3    H1 4166   4.763   2.370   4.141 -0.1128 -0.2335  0.0560
 1403TIP3    H2 4167   4.621   2.318   4.142  0.5385 -2.1762  2.9703
 1404TIP3   OH2 4168   2.591   2.778   4.503 -0.0415  0.7710 -0.0911
 1404TIP3    H1 4169   2.584   2.683   4.512 -0.1248  0.7654 -0.2149
 1404TIP3    H2 4170   2.570   2.795   4.411  0.2782  0.8777 -0.1464
 1405TIP3   OH2 4171   0.069   3.943   1.450  0.2753 -0.3719 -0.2811
 1405TIP3    H1 4172   0.089   4.035   1.468 -0.6181 -0.2091 -0.0599
 1405TIP3    H2 4173   0.062   3.902   1.536  1.0175 -0.7333 -0.3856
 1406TIP3   OH2 4174   3.570   6.696   4.795 -0.7305 -0.3358 -0.3146
 1406TIP3    H1 4175   3.639   6.712   4.860 -0.8372  0.5156 -0.4013
 1406TIP3    H2 4176   3.606   6.628   4.738  0.4325  0.7455 -0.9204
 1407TIP3   OH2 4177   4.992   3.306   2.905  0.5041  0.3119 -0.3770
 1407TIP3    H1 4178   5.079   3.302   2.944  0.8124  2.1222 -0.8341
 1407TIP3    H2 4179   4.947   3.376   2.953 -0.1158  0.5490 -1.2929
 1408TIP3   OH2 4180   1.004  -0.002   1.272 -0.3627  0.0813  0.0551
 1408TIP3    H1 4181   1.043   0.073   1.318 -0.3520 -0.0071  0.1905
 1408TIP3    H2 4182   0.986   0.031   1.184  2.9077 -0.7315 -1.0505
 1409TIP3   OH2 4183   7.054   5.455   2.697 -0.3323  0.2902 -0.3753
 1409TIP3    H1 4184   7.031   5.477   2.607  0.3180  0.2790 -0.5486
 1409TIP3    H2 4185   7.144   5.425   2.692  0.3085  1.9571  0.5235
 1410TIP3   OH2 4186   3.521   1.439   1.008 -0.4751 -0.3849 -0.0201
 1410TIP3    H1 4187   3.555   1.512   1.060  0.7598 -0.4552 -0.6786
 1410TIP3    H2 4188   3.514   1.367   1.071  0.2924 -0.2694  0.2106
 1411TIP3   OH2 4189   2.208   5.125   5.608 -0.1383  0.0580  0.2721
 1411TIP3    H1 4190   2.200   5.189   5.678 -0.1703  0.9716 -0.5465
 1411TIP3    H2 4191   2.137   5.147   5.547 -1.2137 -1.7851  0.7640
 1412TIP3   OH2 4192   6.556   0.169   3.520  0.4293  0.3143  0.8970
 1412TIP3    H1 4193   6.474   0.144   3.562 -0.3003  1.3021  0.0946
 1412TIP3    H2 4194   6.619   0.102   3.549 -1.0347 -1.4451  0.1887
 1413TIP3   OH2 4195   7.998   5.410   5.900  0.0753 -0.1306 -0.2416
 1413TIP3    H1 4196   8.067   5.460   5.943  0.6237 -0.6243 -0.5383
 1413TIP3    H2 4197   7.981   5.336   5.959 -0.6487  0.3272  0.1368
 1414TIP3   OH2 4198   8.128   2.762   2.902  0.3937 -0.0374 -0.6576
 1414TIP3    H1 4199   8.099   2.690   2.958 -0.3235  1.8426  1.5685
 1414TIP3    H2 4200   8.088   2.744   2.817 -2.2556 -0.7837  0.6264
 1415TIP3   OH2 4201   0.922   1.494   5.669  0.1176  0.1506 -0.0588
 1415TIP3    H1 4202   0.947   1.435   5.740 -0.5051 -0.0416 -0.0001
 1415TIP3    H2 4203   1.006   1.521   5.630  0.4365 -3.4795 -2.3710
 1416TIP3   OH2 4204   5.289   6.939   4.891  0.7806  0.2781  0.2087
 1416TIP3    H1 4205   5.317   6.960   4.980 -3.0286 -0.7327  1.8424
 1416TIP3    H2 4206   5.271   6.845   4.893  1.4937  0.0453 -1.9474
 1417TIP3   OH2 4207   4.620   1.392   2.935  0.1167  0.2540 -0.0463
 1417TIP3    H1 4208   4.700   1.390   2.883 -0.3696 -0.0356 -0.7914
 1417TIP3    H2 4209   4.550   1.401   2.872 -0.5425 -0.9218  0.4909
 1418TIP3   OH2 4210   2.972   1.381   3.021  0.4039 -0.1642 -0.3320
 1418TIP3    H1 4211   3.028   1.449   2.983 -0.0952  0.1956 -0.4197
 1418TIP3    H2 4212   2.949   1.414   3.108  0.4219 -0.3693 -0.2468
 1419TIP3   OH2 4213   3.153   4.360   5.657  0.7263  0.8175 -0.0655
 1419TIP3    H1 4214   3.062   4.368   5.630  1.0255  1.3074 -0.9845
 1419TIP3    H2 4215   3.153   4.289   5.721 -0.0790 -0.2074 -1.1497
 1420TIP3   OH2 4216   5.974   5.194   2.736  0.3014  0.3863  0.2441
 1420TIP3    H1 4217   5.976   5.259   2.665 -0.8901 -0.4250 -0.5665
 1420TIP3    H2 4218   6.029   5.232   2.805  0.5906  1.7020 -0.6739
 1421TIP3   OH2 4219   0.917   6.097   5.252 -0.0209  0.0518 -0.1226
 1421TIP3    H1 4220   0.821   6.103   5.251 -0.1274 -1.2246 -0.7578
 1421TIP3    H2 4221   0.944   6.149   5.328 -1.2660 -0.1078  0.4574
 1422TIP3   OH2 4222   1.684   5.676   6.718 -0.3061  0.2493 -0.5136
 1422TIP3    H1 4223   1.593   5.679   6.748 -0.4564 -0.8229 -0.8005
 1422TIP3    H2 4224   1.680   5.626   6.637  0.6030 -0.2570 -0.2617
 1423TIP3   OH2 4225   4.645   7.428   3.471 -0.1425 -0.4148 -0.5568
 1423TIP3    H1 4226   4.565   7.381   3.449 -0.2229 -0.0550 -1.0525
 1423TIP3    H2 4227   4.716   7.371   3.440 -0.2322 -0.3815 -0.8320
 1424TIP3   OH2 4228   0.040   5.420   0.236  0.2625 -0.0064  0.0904
 1424TIP3    H1 4229  -0.008   5.340   0.257 -0.7648  0.5040 -0.2808
 1424TIP3    H2 4230   0.015   5.442   0.147  0.5671  0.7131  0.1692
 1425TIP3   OH2 4231   6.908   3.855   2.913 -0.3226 -0.2340  0.0483
 1425TIP3    H1 4232   6.989   3.812   2.941 -0.1007 -0.7136 -1.2735
 1425TIP3    H2 4233   6.906   3.843   2.818 -0.7550  1.8256 -0.2484
 1426TIP3   OH2 4234   6.611   6.343   5.847 -0.0330 -0.1310  0.3470
 1426TIP3    H1 4235   6.616   6.429   5.889  2.8021  0.0327 -0.1604
 1426TIP3    H2 4236   6.699   6.306   5.856 -0.7176 -2.2732 -0.9542
 1427TIP3   OH2 4237   8.139   5.842   2.047  0.4716  0.0437 -0.4458
 1427TIP3    H1 4238   8.207   5.887   1.996 -0.2705 -0.0305 -1.5283
 1427TIP3    H2 4239   8.121   5.761   1.999  2.4031 -1.9548  1.9277
 1428TIP3   OH2 4240   2.273   6.312   5.765 -0.1421  0.1930 -0.4048
 1428TIP3    H1 4241   2.231   6.384   5.717 -0.2592  0.6591  0.3825
 1428TIP3    H2 4242   2.236   6.233   5.727 -1.1397  0.5808 -0.2639
 1429TIP3   OH2 4243   5.903   6.366   2.476 -0.0373 -0.3947  0.1815
 1429TIP3    H1 4244   5.982   6.341   2.525  0.0166  0.5312  0.5794
 1429TIP3    H2 4245   5.861   6.433   2.530  0.5095  1.3495 -1.4516
 1430TIP3   OH2 4246   7.854   1.846   1.432  0.2499  0.0393  0.1517
 1430TIP3    H1 4247   7.787   1.864   1.498  0.3276 -1.5422  0.6906
 1430TIP3    H2 4248   7.935   1.877   1.472 -0.0511  1.4565 -0.2808
 1431TIP3   OH2 4249   2.479   1.106   6.509  0.4271  0.2187 -0.1248
 1431TIP3    H1 4250   2.425   1.028   6.503 -1.2023  1.1966  1.0829
 1431TIP3    H2 4251   2.450   1.162   6.437  0.4375  0.3867 -0.0003
 1432TIP3   OH2 4252   6.947   2.276   1.257  0.5369 -0.8112  0.0682
 1432TIP3    H1 4253   6.867   2.266   1.206 -0.1584  1.0535  0.6935
 1432TIP3    H2 4254   7.013   2.307   1.195 -0.0554  0.5457  0.0863
 1433TIP3   OH2 4255   6.893   7.137   3.873 -1.5789 -0.6016  0.1638
 1433TIP3    H1 4256   6.973   7.173   3.911 -0.8526 -1.1575 -0.7930
 1433TIP3    H2 4257   6.831   7.136   3.945 -0.6031 -0.5392  1.0348
 1434TIP3   OH2 4258   0.783   4.103   3.884 -0.0826  0.0611 -0.1659
 1434TIP3    H1 4259   0.836   4.183   3.878 -0.7325  0.3821 -2.2618
 1434TIP3    H2 4260   0.749   4.105   3.974  1.4498  1.1166  0.4431
 1435TIP3   OH2 4261   2.747   6.781   0.169  0.0149 -0.3400 -0.0251
 1435TIP3    H1 4262   2.754   6.788   0.074 -1.0923 -0.8581 -0.1581
 1435TIP3    H2 4263   2.755   6.871   0.200  0.9800 -0.2299 -0.5572
 1436TIP3   OH2 4264   5.216   5.848   4.884  0.0716 -0.3498 -0.3627
 1436TIP3    H1 4265   5.200   5.769   4.834  1.4963 -1.2754  0.5672
 1436TIP3    H2 4266   5.309   5.844   4.908 -0.2213  0.7281  1.1645
 1437TIP3   OH2 4267   2.021   3.099   0.603 -0.3442  0.6019  0.0882
 1437TIP3    H1 4268   2.030   3.190   0.573  0.4068  0.9795  1.3711
 1437TIP3    H2 4269   2.048   3.047   0.527  2.0300  1.5321  0.1944
 1438TIP3   OH2 4270   1.675   7.772   4.502  0.6093  0.3895  0.2367
 1438TIP3    H1 4271   1.700   7.809   4.586  1.0866  0.7590 -0.0640
 1438TIP3    H2 4272   1.753   7.726   4.471  0.2328 -0.2924  0.2933
 1439TIP3   OH2 4273   2.864   3.334   0.675  0.4525 -0.2087 -0.4370
 1439TIP3    H1 4274   2.935   3.322   0.738 -0.5170  1.3025  1.0092
 1439TIP3    H2 4275   2.796   3.274   0.705  0.3346 -0.1461 -0.5817
 1440TIP3   OH2 4276   0.313   0.614   3.318 -0.0107 -0.5434  0.4578
 1440TIP3    H1 4277   0.406   0.633   3.302  0.2164 -1.9157 -0.0295
 1440TIP3    H2 4278   0.266   0.686   3.278  0.6995 -1.7520 -2.8584
 1441TIP3   OH2 4279   5.486   4.888   6.800 -0.0019  0.1445 -0.0147
 1441TIP3    H1 4280   5.416   4.844   6.753 -0.0235 -0.3268  0.4476
 1441TIP3    H2 4281   5.564   4.876   6.745 -0.5627  2.0096 -1.3099
 1442TIP3   OH2 4282   1.458   3.824   0.312 -0.7392 -0.5497 -0.3628
 1442TIP3    H1 4283   1.475   3.870   0.394  1.1448  1.4225 -1.7618
 1442TIP3    H2 4284   1.518   3.749   0.314 -0.5871 -0.4204  0.0040
 1443TIP3   OH2 4285   4.584   5.975   2.159  0.1481 -0.5169 -0.1203
 1443TIP3    H1 4286   4.571   5.975   2.254  3.7870  1.5861  0.5489
 1443TIP3    H2 4287   4.588   6.068   2.136  0.0186 -0.9955 -2.2709
 1444TIP3   OH2 4288   0.335   3.157   3.223 -0.3209  0.5622  0.3868
 1444TIP3    H1 4289   0.326   3.193   3.134  0.1461  0.6762  0.3832
 1444TIP3    H2 4290   0.341   3.063   3.210 -0.5500  0.5568  0.3189
 1445TIP3   OH2 4291   4.714   4.671   4.022  0.1883 -0.1552 -0.3008
 1445TIP3    H1 4292   4.770   4.654   4.097 -0.2277  0.1937  0.1010
 1445TIP3    H2 4293   4.713   4.589   3.972  0.1575 -0.5104  0.2807
 1446TIP3   OH2 4294   2.946   0.070   5.872 -0.0489  0.9681 -0.0209
 1446TIP3    H1 4295   2.968   0.079   5.965  0.2620  1.6223 -0.1541
 1446TIP3    H2 4296   2.922  -0.022   5.863 -0.1161  0.9028  0.7160
 1447TIP3   OH2 4297   6.010   3.101   3.772 -0.1638  0.0305  0.2831
 1447TIP3    H1 4298   6.005   3.015   3.814  0.8831  0.9972  2.5891
 1447TIP3    H2 4299   5.964   3.159   3.832 -1.1487  1.0691 -1.4078
 1448TIP3   OH2 4300   5.786   7.411   5.467  0.0787  0.2845 -0.2290
 1448TIP3    H1 4301   5.810   7.487   5.519  1.6882 -0.3414  0.0030
 1448TIP3    H2 4302   5.782   7.444   5.377 -0.2388  0.8475 -0.0137
 1449TIP3   OH2 4303   6.425   4.461   0.235  0.2372  0.3205  0.3550
 1449TIP3    H1 4304   6.354   4.408   0.198  0.4819  1.6539 -2.2467
 1449TIP3    H2 4305   6.501   4.402   0.236  0.2981  0.3049 -1.6851
 1450TIP3   OH2 4306   7.171   3.326   3.221  0.4815 -0.2810 -0.1020
 1450TIP3    H1 4307   7.105   3.258   3.213  0.0830 -0.0909  1.2798
 1450TIP3    H2 4308   7.124   3.402   3.256  1.3171  0.0376  0.3778
 1451TIP3   OH2 4309   3.242   1.192   4.411 -0.3893 -0.0217 -0.7497
 1451TIP3    H1 4310   3.244   1.206   4.505 -0.6312  2.8664 -1.0805
 1451TIP3    H2 4311   3.221   1.278   4.374 -2.6838 -1.5100 -3.3301
 1452TIP3   OH2 4312   2.446   1.370   6.345 -0.3702  0.1732 -0.1461
 1452TIP3    H1 4313   2.539   1.371   6.321 -0.3520  0.1188 -0.0785
 1452TIP3    H2 4314   2.402   1.416   6.273 -0.3455 -0.2069 -0.4103
 1453TIP3   OH2 4315   0.465   4.194   0.844 -0.1319 -0.2473 -0.4006
 1453TIP3    H1 4316   0.524   4.151   0.782 -0.7897 -0.1407 -1.1089
 1453TIP3    H2 4317   0.378   4.181   0.807 -0.4502  0.6156  0.0278
 1454TIP3   OH2 4318   8.238   1.147   2.071 -0.4840 -0.2470  0.3156
 1454TIP3    H1 4319   8.288   1.147   2.153  0.8935 -0.2970 -0.4950
 1454TIP3    H2 4320   8.278   1.078   2.019  0.2242  1.3099 -1.3029
 1455TIP3   OH2 4321   8.128   6.733   0.954 -0.3768  0.2136 -0.2727
 1455TIP3    H1 4322   8.202   6.759   0.899 -0.2582 -1.0443 -0.7544
 1455TIP3    H2 4323   8.168   6.709   1.037 -0.4646  1.3187  0.1011
 1456TIP3   OH2 4324   2.633   4.999   5.170  0.6188  0.2844  0.0019
 1456TIP3    H1 4325   2.669   5.002   5.259  0.8667 -0.7029 -0.0558
 1456TIP3    H2 4326   2.556   4.941   5.178  1.1714 -0.5538 -0.6016
 1457TIP3   OH2 4327   3.049   1.802   5.895  0.0448  0.2625 -0.1636
 1457TIP3    H1 4328   2.966   1.774   5.934  0.2419  1.3846  1.1638
 1457TIP3    H2 4329   3.028   1.818   5.803 -1.2917  0.7660  0.1972
 1458TIP3   OH2 4330   4.040   2.731   4.709  0.5768 -0.3448 -0.0973
 1458TIP3    H1 4331   4.081   2.668   4.650  1.8068  0.1760  0.1791
 1458TIP3    H2 4332   4.059   2.697   4.796  1.6825  0.6437  0.0681
 1459TIP3   OH2 4333   2.739   3.326   4.418  0.0908 -0.2365 -0.0867
 1459TIP3    H1 4334   2.690   3.352   4.340  0.7169  1.5626  0.0715
 1459TIP3    H2 4335   2.751   3.232   4.409 -0.4113 -0.1641 -1.8412
 1460TIP3   OH2 4336   0.055   1.531   4.764  0.2834  0.2127 -0.0672
 1460TIP3    H1 4337   0.099   1.606   4.725 -0.0745  0.4146 -0.0894
 1460TIP3    H2 4338   0.102   1.455   4.731  1.1705  0.4494  0.6051
 1461TIP3   OH2 4339   2.257   5.680   6.225 -0.5008  0.5220  0.1578
 1461TIP3    H1 4340   2.230   5.770   6.207 -1.2175  0.3201  0.1636
 1461TIP3    H2 4341   2.304   5.653   6.146  0.2726  1.1041  0.4118
 1462TIP3   OH2 4342   6.631   6.701   3.152  0.8738 -0.3108  0.3063
 1462TIP3    H1 4343   6.684   6.697   3.231  1.4309  0.4296 -0.0160
 1462TIP3    H2 4344   6.599   6.612   3.140  2.3299 -0.8659  0.3186
 1463TIP3   OH2 4345   4.447   5.753   6.745  0.4171 -0.1970  0.4434
 1463TIP3    H1 4346   4.406   5.671   6.773 -0.8617  0.0363 -0.6568
 1463TIP3    H2 4347   4.539   5.729   6.730 -0.2734 -1.8799 -1.5326
 1464TIP3   OH2 4348   3.908   6.976   3.003 -0.9931 -0.5734 -0.4627
 1464TIP3    H1 4349   3.860   6.944   2.927 -0.6927  0.3381 -1.0412
 1464TIP3    H2 4350   3.844   7.028   3.052 -0.8634 -0.1901 -0.7042
 1465TIP3   OH2 4351   6.527   4.812   1.326 -0.6149 -0.0299  0.0621
 1465TIP3    H1 4352   6.571   4.830   1.409 -0.0374 -2.2731  0.3177
 1465TIP3    H2 4353   6.566   4.874   1.264  0.1806  0.5347  1.0850
 1466TIP3   OH2 4354   6.189   5.349   1.388 -0.0457  0.2119  0.2917
 1466TIP3    H1 4355   6.142   5.272   1.355  0.6471 -0.3779  0.6689
 1466TIP3    H2 4356   6.119   5.408   1.417 -0.7364  0.8435 -2.3113
 1467TIP3   OH2 4357   5.170   0.348   5.079  0.1050 -0.0030  0.2745
 1467TIP3    H1 4358   5.218   0.266   5.089 -0.0945 -0.0661  0.7730
 1467TIP3    H2 4359   5.214   0.409   5.138 -1.0431 -0.3504  1.5531
 1468TIP3   OH2 4360   3.071   6.712   5.014  0.3848  0.4301 -0.2307
 1468TIP3    H1 4361   3.019   6.729   4.935 -1.1877  0.4070  0.7465
 1468TIP3    H2 4362   3.058   6.790   5.068 -1.1879 -0.8490  1.3305
 1469TIP3   OH2 4363   1.065   6.022   2.756 -0.0168 -0.2868 -0.1734
 1469TIP3    H1 4364   1.071   6.009   2.851  1.2073  2.5829  0.2330
 1469TIP3    H2 4365   1.093   5.939   2.718 -0.8865 -1.6280  1.9302
 1470TIP3   OH2 4366   0.551   5.574   5.349 -0.1405  0.2831  0.2864
 1470TIP3    H1 4367   0.561   5.603   5.440 -2.5679 -0.4581  0.8443
 1470TIP3    H2 4368   0.483   5.631   5.312 -2.1071 -1.9609  0.2176
 1471TIP3   OH2 4369   1.100   0.438   3.068  0.2964 -0.3594 -0.1016
 1471TIP3    H1 4370   1.045   0.360   3.071 -0.0172 -0.1411 -0.1169
 1471TIP3    H2 4371   1.048   0.506   3.112  1.0160 -0.4336  0.9006
 1472TIP3   OH2 4372   1.459   2.366   1.209 -0.2967  0.1111 -0.0749
 1472TIP3    H1 4373   1.529   2.340   1.268 -0.2902 -1.3442 -0.6753
 1472TIP3    H2 4374   1.397   2.413   1.264 -0.0751 -0.8207  1.0061
 1473TIP3   OH2 4375   3.288   6.781   4.179  0.0125 -0.1837 -0.2628
 1473TIP3    H1 4376   3.303   6.808   4.270 -0.1495  1.1874 -0.6152
 1473TIP3    H2 4377   3.360   6.821   4.131  0.1027 -0.9177 -0.7469
 1474TIP3   OH2 4378   3.164   0.093   1.411 -0.0231 -0.2013  0.2081
 1474TIP3    H1 4379   3.219   0.036   1.464  1.3358  1.1535  0.3190
 1474TIP3    H2 4380   3.188   0.182   1.437 -1.6400  0.4564 -0.3903
 1475TIP3   OH2 4381   7.565   1.930   1.865  0.2145  0.3208  0.5218
 1475TIP3    H1 4382   7.559   1.849   1.916  0.2409 -1.3691 -1.9654
 1475TIP3    H2 4383   7.570   2.000   1.930  2.8066 -1.8162  2.8610
 1476TIP3   OH2 4384   2.116   4.778   4.132 -0.1034 -0.0710  0.5283
 1476TIP3    H1 4385   2.110   4.856   4.188  0.5476 -0.1724  0.7495
 1476TIP3    H2 4386   2.145   4.708   4.191  3.1289  0.3597 -0.3212
 1477TIP3   OH2 4387   3.560   4.340   2.143 -0.3365  0.7840  0.4643
 1477TIP3    H1 4388   3.579   4.367   2.233 -0.0172 -1.9684  1.3380
 1477TIP3    H2 4389   3.633   4.375   2.092  0.0744  1.4561  1.4776
 1478TIP3   OH2 4390   2.561   0.911   4.324  1.0759  0.2417 -0.3187
 1478TIP3    H1 4391   2.500   0.903   4.397  1.7468  0.7728  0.3124
 1478TIP3    H2 4392   2.619   0.835   4.333  0.4525 -0.3201 -0.9792
 1479TIP3   OH2 4393   6.732   5.604   3.561  0.1786  0.0558  0.0506
 1479TIP3    H1 4394   6.822   5.634   3.549  0.5105 -0.9207  0.0028
 1479TIP3    H2 4395   6.701   5.651   3.638  1.4145 -1.0534  1.2884
 1480TIP3   OH2 4396   4.229   3.439   2.028  0.6399 -0.1576  0.0509
 1480TIP3    H1 4397   4.295   3.373   2.052  0.0736 -0.1878  1.6909
 1480TIP3    H2 4398   4.191   3.406   1.947 -0.0644 -2.2299  1.1577
 1481TIP3   OH2 4399   2.709   7.776   5.139  0.4576  0.5354  0.1450
 1481TIP3    H1 4400   2.758   7.787   5.058 -1.2023 -0.8213 -1.1214
 1481TIP3    H2 4401   2.680   7.685   5.137  0.1041  0.5578  2.1236
 1482TIP3   OH2 4402   8.130   1.076   6.103  0.2089  0.0657 -0.5369
 1482TIP3    H1 4403   8.156   1.128   6.179  0.0997 -1.5348  0.6573
 1482TIP3    H2 4404   8.211   1.034   6.074 -0.1359 -1.0948  0.1320
 1483TIP3   OH2 4405   7.801   0.763   4.438  0.1914  0.5398  0.0245
 1483TIP3    H1 4406   7.861   0.837   4.443  1.3734 -0.4490  0.9446
 1483TIP3    H2 4407   7.763   0.769   4.350  0.5415  2.0096 -0.0458
 1484TIP3   OH2 4408   4.097   7.273   1.504  0.4741 -0.0155 -0.3382
 1484TIP3    H1 4409   4.045   7.192   1.497  1.2114 -0.8116  2.2115
 1484TIP3    H2 4410   4.182   7.250   1.467  0.7789 -0.5504  0.6512
 1485TIP3   OH2 4411   7.243   0.688   5.326  0.5267 -0.5452 -0.3413
 1485TIP3    H1 4412   7.281   0.722   5.407  1.7348 -1.0997 -0.6627
 1485TIP3    H2 4413   7.149   0.686   5.343  0.4293  2.2475 -0.0313
 1486TIP3   OH2 4414   6.143   7.258   3.195  0.2964  0.3615  0.7350
 1486TIP3    H1 4415   6.157   7.286   3.105  0.9949  0.9235  1.0057
 1486TIP3    H2 4416   6.154   7.338   3.247  1.3210 -0.2130  1.4318
 1487TIP3   OH2 4417   3.656   0.982   2.964  0.0548 -0.3022  0.1371
 1487TIP3    H1 4418   3.625   0.893   2.948  4.1274 -1.6133 -1.8875
 1487TIP3    H2 4419   3.699   0.977   3.050  0.0205 -0.2249  0.1584
 1488TIP3   OH2 4420   0.536   3.419   4.153  0.1664  0.0701 -0.1841
 1488TIP3    H1 4421   0.588   3.340   4.164 -0.6765 -0.8211 -2.0589
 1488TIP3    H2 4422   0.456   3.390   4.109 -1.9063  1.4049  2.3634
 1489TIP3   OH2 4423   8.128   2.629   1.981  0.1662  0.2444  0.1233
 1489TIP3    H1 4424   8.157   2.718   2.002 -1.1064  0.8978 -0.7497
 1489TIP3    H2 4425   8.033   2.633   1.985 -0.0405 -0.4181 -2.2844
 1490TIP3   OH2 4426   1.345   1.821   0.502  0.0138  0.5858  0.3372
 1490TIP3    H1 4427   1.352   1.740   0.552  0.0524  0.3810  0.0026
 1490TIP3    H2 4428   1.330   1.889   0.568  2.5570  0.7087  0.8942
 1491TIP3   OH2 4429   6.139   6.008   3.030 -0.3984  0.5068 -0.4264
 1491TIP3    H1 4430   6.088   5.928   3.046 -0.1528  0.2718 -0.7831
 1491TIP3    H2 4431   6.167   6.000   2.939  0.0249  0.7764 -0.3239
 1492TIP3   OH2 4432   6.150   2.215   6.443  0.1353  0.3377 -0.5814
 1492TIP3    H1 4433   6.183   2.177   6.362  0.5563  0.9800 -0.7180
 1492TIP3    H2 4434   6.119   2.140   6.494  0.0009 -0.0825 -1.2688
 1493TIP3   OH2 4435   8.208   6.874   1.386  0.0875  0.2651  0.0531
 1493TIP3    H1 4436   8.191   6.912   1.300 -0.5317 -1.7353 -0.7555
 1493TIP3    H2 4437   8.303   6.866   1.390  0.0618 -1.1503 -1.1875
 1494TIP3   OH2 4438   2.533   2.882   1.732 -0.0607  0.2118 -0.3341
 1494TIP3    H1 4439   2.628   2.869   1.737 -0.3915 -2.3985  3.0219
 1494TIP3    H2 4440   2.517   2.959   1.786  0.0183 -1.0952  1.6493
 1495TIP3   OH2 4441   4.141   3.132   4.142  0.1998  0.1785  0.2935
 1495TIP3    H1 4442   4.135   3.223   4.113  0.0735  0.7188  1.9290
 1495TIP3    H2 4443   4.217   3.129   4.199  1.3059 -1.1878 -1.1597
 1496TIP3   OH2 4444   0.492   2.353   2.650  0.3098  0.3178 -0.2059
 1496TIP3    H1 4445   0.485   2.281   2.712 -1.8464 -1.9501 -2.8021
 1496TIP3    H2 4446   0.435   2.421   2.685  0.0208 -0.4433  0.8317
 1497TIP3   OH2 4447   4.098   3.569   2.447 -0.1801 -0.2600  0.0536
 1497TIP3    H1 4448   4.037   3.538   2.379  0.0354 -0.5286 -0.0211
 1497TIP3    H2 4449   4.046   3.567   2.528 -1.0495  1.9643 -0.3885
 1498TIP3   OH2 4450   8.119   1.046   5.327  0.6265  0.1397  0.8237
 1498TIP3    H1 4451   8.093   1.135   5.304  0.9785  0.8076  2.8788
 1498TIP3    H2 4452   8.153   1.052   5.416  2.0361 -1.8049  0.4862
 1499TIP3   OH2 4453   3.278   1.399   0.794 -0.2366  0.1638  0.0957
 1499TIP3    H1 4454   3.316   1.486   0.808  1.0132  0.0748 -2.3151
 1499TIP3    H2 4455   3.331   1.360   0.725 -1.6740 -1.9704  0.1051
 1500TIP3   OH2 4456   2.098   4.501   3.564  0.2642 -0.2339 -0.3630
 1500TIP3    H1 4457   2.049   4.438   3.616  1.8039 -0.7217  0.5505
 1500TIP3    H2 4458   2.083   4.585   3.607 -1.3423 -0.0255 -1.2624
 1501TIP3   OH2 4459   1.852   0.495   1.504 -0.1810 -0.2441  0.6657
 1501TIP3    H1 4460   1.909   0.520   1.431 -0.6965  3.1068  1.2293
 1501TIP3    H2 4461   1.768   0.475   1.462 -0.6395  2.2014  0.2339
 1502TIP3   OH2 4462   6.084   6.966   3.235 -0.1410 -0.1209  0.2655
 1502TIP3    H1 4463   6.088   7.061   3.243 -1.0551 -0.1477  1.2390
 1502TIP3    H2 4464   6.148   6.934   3.299  0.0114 -0.1734  0.0898
 1503TIP3   OH2 4465   1.539   7.088   0.055  0.3738  0.5603  0.7881
 1503TIP3    H1 4466   1.597   7.062   0.126 -1.0789 -0.9396  1.4734
 1503TIP3    H2 4467   1.584   7.058  -0.025 -0.1721 -2.1271  1.4095
 1504TIP3   OH2 4468   0.944   4.516   1.344  0.0356  0.4237 -0.3309
 1504TIP3    H1 4469   0.921   4.520   1.251  1.7167 -0.2839 -0.8069
 1504TIP3    H2 4470   0.866   4.548   1.389 -1.1404 -0.0641 -1.9351
 1505TIP3   OH2 4471   3.456   4.095   5.579  0.4762  0.1572  0.8410
 1505TIP3    H1 4472   3.366   4.090   5.549  0.1024  1.6955  1.6452
 1505TIP3    H2 4473   3.505   4.044   5.515 -0.9288 -0.5927  0.3203
 1506TIP3   OH2 4474   4.404   4.116   6.159  0.8531 -0.8435  0.2220
 1506TIP3    H1 4475   4.442   4.204   6.169 -0.4826 -0.2300  0.1277
 1506TIP3    H2 4476   4.406   4.099   6.065  0.6176 -0.6775  0.1856
 1507TIP3   OH2 4477   1.963   7.347   3.833 -0.9714  0.0873 -0.7354
 1507TIP3    H1 4478   2.006   7.395   3.903 -2.6928 -1.2702  1.4097
 1507TIP3    H2 4479   1.875   7.384   3.829 -1.5951 -1.2837 -0.5925
 1508TIP3   OH2 4480   0.556   3.732   2.248 -0.0617  0.1634 -0.0534
 1508TIP3    H1 4481   0.505   3.679   2.310  1.9364  0.9978  2.4781
 1508TIP3    H2 4482   0.559   3.819   2.287  0.6306  0.9603 -1.7752
 1509TIP3   OH2 4483   3.988   7.493   0.966 -0.1048 -0.6374  0.3577
 1509TIP3    H1 4484   4.067   7.543   0.944 -2.1846  1.6817 -2.9030
 1509TIP3    H2 4485   3.947   7.542   1.037  0.6548 -1.0323  1.0789
 1510TIP3   OH2 4486   1.955   2.726   6.054 -0.0326 -0.3718  0.5628
 1510TIP3    H1 4487   1.951   2.819   6.029 -1.3705 -0.2778  1.0556
 1510TIP3    H2 4488   2.046   2.712   6.076  0.6733  0.2594 -1.6292
 1511TIP3   OH2 4489   6.430   4.206   5.233 -0.4442  0.3937 -0.1956
 1511TIP3    H1 4490   6.386   4.198   5.317 -0.0063 -3.2739 -0.1707
 1511TIP3    H2 4491   6.378   4.271   5.185 -1.2269  1.8908  2.4970
 1512TIP3   OH2 4492   6.429   0.440   2.957  0.3359 -0.4489  0.4206
 1512TIP3    H1 4493   6.498   0.379   2.980  1.1284  0.1532 -0.2896
 1512TIP3    H2 4494   6.424   0.436   2.861 -0.0101  0.1451  0.4071
 1513TIP3   OH2 4495   4.140   4.350   1.655 -0.4212  0.2084 -0.0312
 1513TIP3    H1 4496   4.054   4.311   1.669 -0.4657  0.0690 -0.6623
 1513TIP3    H2 4497   4.167   4.319   1.568 -1.3944  3.2673 -1.5666
 1514TIP3   OH2 4498   0.556   1.918   1.964  0.7606  0.1875  0.1454
 1514TIP3    H1 4499   0.587   1.903   1.875  0.5686  1.8473 -0.2398
 1514TIP3    H2 4500   0.506   1.839   1.986  0.4851 -0.0890 -1.3704
 1515TIP3   OH2 4501   3.053   3.694   1.613  0.1508 -0.3174 -0.4356
 1515TIP3    H1 4502   3.039   3.625   1.677 -0.6729 -0.8106 -1.1291
 1515TIP3    H2 4503   3.053   3.775   1.664  0.5273 -0.7737  0.3016
 1516TIP3   OH2 4504   7.754   4.530   6.056 -0.3939  0.2473  0.5968
 1516TIP3    H1 4505   7.844   4.540   6.026 -0.7699 -0.3340 -0.8233
 1516TIP3    H2 4506   7.722   4.620   6.065 -0.8238  0.5363 -2.6841
 1517TIP3   OH2 4507   1.941   5.531   6.507 -0.0477 -0.5960  0.0136
 1517TIP3    H1 4508   1.926   5.462   6.570  0.7099 -0.7262  0.0639
 1517TIP3    H2 4509   2.036   5.543   6.506 -0.2556  2.0534  1.7306
 1518TIP3   OH2 4510   3.421   2.397   6.315 -0.0314 -0.0385  0.5313
 1518TIP3    H1 4511   3.485   2.343   6.361  0.7348  1.2867  1.0732
 1518TIP3    H2 4512   3.390   2.341   6.243  2.0034 -0.5944  0.0219
 1519TIP3   OH2 4513   2.851   1.196   1.636 -0.0642  0.1244  0.4630
 1519TIP3    H1 4514   2.781   1.261   1.635  1.4054  1.7876  1.3191
 1519TIP3    H2 4515   2.857   1.169   1.728 -0.4543 -1.0365  0.1674
 1520TIP3   OH2 4516   6.315   4.006   1.674 -0.1324 -0.6527  0.6353
 1520TIP3    H1 4517   6.286   3.940   1.611  0.6745  0.7448 -1.2984
 1520TIP3    H2 4518   6.400   3.976   1.704  0.1888 -0.5533 -0.1672
 1521TIP3   OH2 4519   5.757   3.710   1.069 -0.3853 -0.7623 -0.1259
 1521TIP3    H1 4520   5.662   3.707   1.056 -0.1826 -0.9209 -1.7323
 1521TIP3    H2 4521   5.781   3.619   1.084 -0.2532 -1.0546 -1.8516
 1522TIP3   OH2 4522   5.371   5.030   3.706 -0.0108  0.8318  0.0889
 1522TIP3    H1 4523   5.375   5.074   3.621  0.8041  1.4465  0.4260
 1522TIP3    H2 4524   5.398   4.940   3.689  0.1665  0.9582 -0.3024
 1523TIP3   OH2 4525   3.169   4.741   0.505 -0.4656 -0.2146  0.1249
 1523TIP3    H1 4526   3.215   4.732   0.421 -1.9889 -1.1164 -0.6708
 1523TIP3    H2 4527   3.109   4.814   0.492 -0.9330 -0.5577  0.2896
 1524TIP3   OH2 4528   7.381   5.632   1.825  0.3754 -0.2314 -0.2962
 1524TIP3    H1 4529   7.373   5.606   1.733  3.3151  1.7202 -1.2360
 1524TIP3    H2 4530   7.404   5.552   1.871  0.2061 -0.9861 -1.4966
 1525TIP3   OH2 4531   3.749   3.089   2.649  0.5937  0.4729 -0.2317
 1525TIP3    H1 4532   3.677   3.026   2.652 -0.3202  1.5113  1.2311
 1525TIP3    H2 4533   3.757   3.113   2.557 -0.2032 -0.4700 -0.5640
 1526TIP3   OH2 4534   7.584   2.289   5.575  0.7769 -0.1577  0.3039
 1526TIP3    H1 4535   7.579   2.319   5.484  2.7726  1.2707  0.5932
 1526TIP3    H2 4536   7.660   2.230   5.576  0.7827 -0.1409  1.0356
 1527TIP3   OH2 4537   7.886   7.760   4.194 -0.4788 -0.4508 -0.3454
 1527TIP3    H1 4538   7.862   7.853   4.185  0.0319 -0.4641 -2.4758
 1527TIP3    H2 4539   7.973   7.761   4.234  0.0916  0.0835 -1.5535
 1528TIP3   OH2 4540   0.191   2.320   6.349 -0.5932  0.2202  0.5917
 1528TIP3    H1 4541   0.136   2.394   6.373  0.0071  0.0277  2.7828
 1528TIP3    H2 4542   0.267   2.360   6.306 -1.3553  0.6486 -0.4058
 1529TIP3   OH2 4543   5.511   1.148   2.995 -0.1213 -0.0944  0.0493
 1529TIP3    H1 4544   5.528   1.196   2.914 -0.4974  0.2119  0.1484
 1529TIP3    H2 4545   5.590   1.160   3.047  0.2451 -0.5439 -0.3884
 1530TIP3   OH2 4546   3.567   5.421   2.062  0.6861 -0.0433  0.8738
 1530TIP3    H1 4547   3.609   5.409   1.977  2.5439 -1.4216  1.9209
 1530TIP3    H2 4548   3.595   5.507   2.092  2.6231 -0.8187  1.4208
 1531TIP3   OH2 4549   4.805   4.456   6.296 -0.2611  0.1621 -0.2685
 1531TIP3    H1 4550   4.873   4.478   6.361 -1.0292  1.0588  0.2587
 1531TIP3    H2 4551   4.797   4.535   6.243  0.3243 -0.5496 -1.4571
 1532TIP3   OH2 4552   6.941   3.801   6.033 -0.1744  0.1967 -0.1091
 1532TIP3    H1 4553   6.971   3.712   6.014  1.0312  0.5845 -0.1482
 1532TIP3    H2 4554   6.891   3.826   5.955  0.9190  0.1488 -0.8506
 1533TIP3   OH2 4555   1.585   1.568   0.840 -0.0047  0.3277 -0.5429
 1533TIP3    H1 4556   1.584   1.664   0.836 -0.4760  0.3014 -1.1786
 1533TIP3    H2 4557   1.665   1.543   0.795  1.2354  0.4839  1.4766
 1534TIP3   OH2 4558   7.466   5.098   0.215  0.4077 -1.0839  0.6445
 1534TIP3    H1 4559   7.531   5.152   0.260  1.1626 -1.6524  0.2515
 1534TIP3    H2 4560   7.384   5.147   0.224  1.5252  1.5830 -2.0897
 1535TIP3   OH2 4561   2.411   1.123   3.976 -0.4544  0.1911 -0.2048
 1535TIP3    H1 4562   2.361   1.149   3.898  0.4267  0.0547 -0.8241
 1535TIP3    H2 4563   2.442   1.034   3.956  0.3021  0.3934  0.0425
 1536TIP3   OH2 4564   4.915   3.439   6.336 -0.1520 -0.2426  0.0325
 1536TIP3    H1 4565   4.912   3.513   6.396 -0.2584  0.8265 -1.2504
 1536TIP3    H2 4566   4.978   3.379   6.375 -0.0367  0.5261  1.0796
 1537TIP3   OH2 4567   7.130   4.432   0.551  0.2131 -0.1839  0.0296
 1537TIP3    H1 4568   7.037   4.448   0.534  0.2581  1.1769  0.9298
 1537TIP3    H2 4569   7.131   4.376   0.628  0.1400  0.8030  0.7645
 1538TIP3   OH2 4570   4.518   3.574   5.289 -0.3576 -0.2661  0.3259
 1538TIP3    H1 4571   4.517   3.602   5.198  0.1972  0.6511  0.5846
 1538TIP3    H2 4572   4.559   3.487   5.287 -1.9003 -1.0045 -0.4678
 1539TIP3   OH2 4573   4.438   2.858   2.961 -0.0720  0.1359  0.0596
 1539TIP3    H1 4574   4.376   2.922   2.995  0.2840  1.5964 -1.8580
 1539TIP3    H2 4575   4.386   2.778   2.950 -2.2777  1.7955 -3.2763
 1540TIP3   OH2 4576   3.795   5.561   4.728 -0.6019 -0.2534  0.5925
 1540TIP3    H1 4577   3.769   5.536   4.640 -0.3393 -0.3056  0.5294
 1540TIP3    H2 4578   3.884   5.597   4.718 -0.3210 -0.8381  0.9257
 1541TIP3   OH2 4579   1.571   4.699   3.610 -0.2365 -0.5587  0.1208
 1541TIP3    H1 4580   1.632   4.629   3.635 -1.3253 -1.3595  0.5974
 1541TIP3    H2 4581   1.614   4.779   3.639  0.9385 -1.0353 -0.2326
 1542TIP3   OH2 4582   3.732   5.272   2.257 -0.3478  0.0323  0.1180
 1542TIP3    H1 4583   3.671   5.295   2.187  0.8504  0.0047 -0.9779
 1542TIP3    H2 4584   3.818   5.289   2.221  0.3119  0.2627  1.7013
 1543TIP3   OH2 4585   6.272   1.185   0.613  0.1276  0.5980 -0.3418
 1543TIP3    H1 4586   6.335   1.133   0.563 -0.5296 -0.9898  0.4439
 1543TIP3    H2 4587   6.187   1.166   0.573 -0.3107 -0.1193  0.8783
 1544TIP3   OH2 4588   1.342   3.073   1.739 -0.0947  0.2535 -0.3957
 1544TIP3    H1 4589   1.436   3.063   1.728 -0.1953 -1.5480  0.0100
 1544TIP3    H2 4590   1.329   3.082   1.833 -0.3637 -0.1708 -0.3886
 1545TIP3   OH2 4591   7.348   2.051   2.219 -0.3095  0.5031  0.2025
 1545TIP3    H1 4592   7.312   2.139   2.229  0.4639  0.9473 -0.6767
 1545TIP3    H2 4593   7.282   2.003   2.169 -0.5778  0.6949  0.3753
 1546TIP3   OH2 4594   3.220   5.017   6.775 -0.4649 -0.2917  0.5019
 1546TIP3    H1 4595   3.248   5.090   6.830 -1.4265 -1.3664  2.5101
 1546TIP3    H2 4596   3.252   5.040   6.687  0.5284  1.8102  1.3407
 1547TIP3   OH2 4597   2.994   2.941   0.576  0.1194 -0.1302 -0.2560
 1547TIP3    H1 4598   3.001   2.849   0.599  0.5447 -0.2103 -0.7085
 1547TIP3    H2 4599   3.053   2.953   0.502  0.9321  0.7516  0.4985
 1548TIP3   OH2 4600   5.765   1.396   2.981  0.1556  0.7119 -0.2127
 1548TIP3    H1 4601   5.698   1.446   3.028 -1.4647 -1.5046  0.0098
 1548TIP3    H2 4602   5.720   1.361   2.904  1.9439  1.6990 -1.7714
 1549TIP3   OH2 4603   0.666   0.056   1.770  0.6831  0.0956 -0.0067
 1549TIP3    H1 4604   0.686   0.126   1.832  0.5213 -0.3772  0.5846
 1549TIP3    H2 4605   0.717   0.078   1.692 -0.2670  1.5178 -0.2671
 1550TIP3   OH2 4606   2.089   3.907   2.394 -0.0848 -0.0430  0.0384
 1550TIP3    H1 4607   2.076   3.902   2.489  2.4733 -0.5767  0.4468
 1550TIP3    H2 4608   2.078   3.816   2.364 -1.1490  0.1678 -0.2382
 1551TIP3   OH2 4609   1.166   5.871   3.321 -0.1684  0.0466  0.4587
 1551TIP3    H1 4610   1.215   5.902   3.398  0.1429 -2.3233  1.3004
 1551TIP3    H2 4611   1.125   5.950   3.286  0.3824  1.3584  2.5490
 1552TIP3   OH2 4612   6.345   7.735   2.179  0.4540  0.2033 -0.6280
 1552TIP3    H1 4613   6.369   7.823   2.151 -0.5911  0.5003 -0.6473
 1552TIP3    H2 4614   6.292   7.749   2.257  2.0599 -0.5404  0.6433
 1553TIP3   OH2 4615   5.184   4.227   4.351 -0.0766 -0.4600 -0.3130
 1553TIP3    H1 4616   5.190   4.238   4.446  0.5698 -1.2367 -0.2546
 1553TIP3    H2 4617   5.275   4.218   4.322 -0.3403 -1.7285 -0.8019
 1554TIP3   OH2 4618   6.188   6.716   2.959 -0.5007 -0.9250 -0.6881
 1554TIP3    H1 4619   6.177   6.644   3.020  1.6887 -0.7385  0.0323
 1554TIP3    H2 4620   6.264   6.691   2.906  0.2618  0.7812 -0.4754
 1555TIP3   OH2 4621   1.575   6.145   1.206  0.3619  0.1184  0.2352
 1555TIP3    H1 4622   1.630   6.110   1.276  0.2624  0.3605  0.4338
 1555TIP3    H2 4623   1.565   6.238   1.227 -1.1580 -0.1688  0.8951
 1556TIP3   OH2 4624   7.339   7.634   0.790  0.2487  1.2151 -0.2873
 1556TIP3    H1 4625   7.376   7.626   0.702 -0.5720 -1.3133 -0.5057
 1556TIP3    H2 4626   7.395   7.697   0.835  1.2948  1.7952 -2.3041
 1557TIP3   OH2 4627   1.376   5.263   5.921  0.5658 -0.7228  0.3383
 1557TIP3    H1 4628   1.372   5.346   5.968  1.4049 -1.2663  1.3969
 1557TIP3    H2 4629   1.308   5.271   5.853  0.5726  0.7780  0.4717
 1558TIP3   OH2 4630   0.474   4.865   1.306  0.2152  0.0241  0.6611
 1558TIP3    H1 4631   0.418   4.923   1.359  0.2166 -0.0445  0.7370
 1558TIP3    H2 4632   0.513   4.923   1.241  0.1831  0.1016  0.7105
 1559TIP3   OH2 4633   5.068   3.144   6.644  0.6113 -0.0953 -0.5906
 1559TIP3    H1 4634   5.081   3.056   6.679 -1.4473  0.4444  1.8243
 1559TIP3    H2 4635   5.126   3.200   6.696  0.5442  0.1995 -0.8305
 1560TIP3   OH2 4636   4.965   4.579   2.201  0.1187 -0.2187 -0.0395
 1560TIP3    H1 4637   4.907   4.504   2.211 -0.2448 -0.1748 -1.6135
 1560TIP3    H2 4638   4.938   4.620   2.119  0.6957  1.3072  0.4903
 1561TIP3   OH2 4639   3.606   5.872   3.718 -0.2588  0.4849 -0.0922
 1561TIP3    H1 4640   3.644   5.908   3.637 -0.6738 -0.2394 -0.6141
 1561TIP3    H2 4641   3.581   5.950   3.768 -0.3008  0.9426 -0.8025
 1562TIP3   OH2 4642   1.364   1.546   1.675 -0.7565  0.5779  0.0453
 1562TIP3    H1 4643   1.279   1.537   1.632 -0.7756 -0.2276  0.2375
 1562TIP3    H2 4644   1.406   1.461   1.664  0.1405  1.0456 -0.2772
 1563TIP3   OH2 4645   1.027   7.426   3.286 -0.1492  0.6628 -0.2463
 1563TIP3    H1 4646   0.949   7.470   3.255  0.2405  0.5469 -1.4562
 1563TIP3    H2 4647   1.100   7.477   3.250  0.3912  1.4000  1.7298
 1564TIP3   OH2 4648   0.762   2.113   3.643  0.2485 -0.8995 -0.0104
 1564TIP3    H1 4649   0.678   2.159   3.643  0.0775 -1.1484  1.4324
 1564TIP3    H2 4650   0.806   2.142   3.563 -0.7795  0.0365 -0.2567
 1565TIP3   OH2 4651   1.111   1.550   1.573  0.1605  0.5584  0.2977
 1565TIP3    H1 4652   1.168   1.600   1.515 -1.1217  0.9412 -0.6957
 1565TIP3    H2 4653   1.024   1.559   1.534 -0.3788 -1.0793  1.0266
 1566TIP3   OH2 4654   7.308   5.328   1.630 -0.0178 -0.5378 -0.6387
 1566TIP3    H1 4655   7.257   5.271   1.688  0.5186 -0.0972  0.2872
 1566TIP3    H2 4656   7.396   5.325   1.666 -0.3140  2.2608  0.5535
 1567TIP3   OH2 4657   5.079   1.592   2.126 -0.1567  0.0355  0.0950
 1567TIP3    H1 4658   5.096   1.685   2.139  1.2308 -0.4671  2.6043
 1567TIP3    H2 4659   4.988   1.580   2.154 -0.8893  0.8471 -1.8137
 1568TIP3   OH2 4660   4.867   1.179   5.428  0.0848  0.4371 -0.1988
 1568TIP3    H1 4661   4.837   1.089   5.418 -1.0900  0.7388  0.4568
 1568TIP3    H2 4662   4.795   1.233   5.397  1.4275  1.1830 -2.2504
 1569TIP3   OH2 4663   1.618   6.091   6.117 -0.2400 -0.7016  0.3202
 1569TIP3    H1 4664   1.568   6.014   6.143 -0.8227 -0.9136 -1.3255
 1569TIP3    H2 4665   1.684   6.058   6.056 -0.6847  0.1188 -0.6319
 1570TIP3   OH2 4666   7.884   3.647  -0.008 -0.1985  0.1892  0.0062
 1570TIP3    H1 4667   7.912   3.655   0.084  0.3798  0.8648 -0.2238
 1570TIP3    H2 4668   7.846   3.559  -0.013  0.4064 -0.1290  0.7246
 1571TIP3   OH2 4669   0.916   7.684   5.974  0.4458  0.0846 -0.1229
 1571TIP3    H1 4670   0.926   7.776   5.950  0.5933  0.7630  2.2874
 1571TIP3    H2 4671   0.995   7.664   6.024  0.2287 -1.2497 -0.2876
 1572TIP3   OH2 4672   5.812   2.582   1.389  0.3021  0.0377  0.1843
 1572TIP3    H1 4673   5.892   2.540   1.358  0.3708  0.6124 -0.4405
 1572TIP3    H2 4674   5.764   2.604   1.309  0.1460  0.9029  0.5054
 1573TIP3   OH2 4675   7.832   1.984   5.904 -0.1395  0.0542 -0.0457
 1573TIP3    H1 4676   7.829   1.974   5.809  0.9915  0.1799 -0.1064
 1573TIP3    H2 4677   7.891   1.914   5.934  0.0745  0.4522  0.4878
 1574TIP3   OH2 4678   7.126   4.689   3.317 -0.5254  0.0047  0.1680
 1574TIP3    H1 4679   7.215   4.660   3.300  0.2554  2.9364 -1.3606
 1574TIP3    H2 4680   7.072   4.613   3.296  1.5357 -1.5822  0.3481
 1575TIP3   OH2 4681   2.967   2.962   2.831 -0.2483  0.2517  0.1361
 1575TIP3    H1 4682   2.916   3.031   2.873  2.8214  1.9870  1.3869
 1575TIP3    H2 4683   3.036   3.008   2.783  0.9959 -1.9025 -0.3221
 1576TIP3   OH2 4684   0.613   4.313   0.546  0.7752  0.2322 -0.0867
 1576TIP3    H1 4685   0.575   4.372   0.611  0.0255  0.3004 -0.5818
 1576TIP3    H2 4686   0.649   4.241   0.598 -1.3875 -0.6143  0.3380
 1577TIP3   OH2 4687   0.379   5.884   5.101  0.6541  0.2861  0.1920
 1577TIP3    H1 4688   0.316   5.940   5.057  1.3388  0.3399 -0.7501
 1577TIP3    H2 4689   0.328   5.807   5.128  0.0539  0.6362  0.0683
 1578TIP3   OH2 4690   4.765   0.693   2.834 -0.8030 -1.3559 -0.2977
 1578TIP3    H1 4691   4.804   0.692   2.747  3.5751  0.8514  1.3293
 1578TIP3    H2 4692   4.698   0.762   2.830 -1.4317 -2.0202 -2.1049
 1579TIP3   OH2 4693   3.396   1.836   3.309  0.4241 -0.0362 -0.3776
 1579TIP3    H1 4694   3.373   1.852   3.218  0.0049  2.9833  0.1449
 1579TIP3    H2 4695   3.334   1.889   3.359  2.4783  0.7469  1.5053
 1580TIP3   OH2 4696   1.328   3.485   0.668 -0.3345 -0.4880 -0.0649
 1580TIP3    H1 4697   1.337   3.511   0.576 -1.6138 -0.0712 -0.0999
 1580TIP3    H2 4698   1.417   3.480   0.701  0.0780  1.0900 -0.8646
 1581TIP3   OH2 4699   5.997   4.131   0.842 -0.1051  0.1842  0.6904
 1581TIP3    H1 4700   5.926   4.086   0.889  0.2770 -0.4232  0.6863
 1581TIP3    H2 4701   5.955   4.166   0.763 -0.9345  1.8595  1.7973
 1582TIP3   OH2 4702   7.807   6.597   2.882  0.0874 -0.7937  0.0199
 1582TIP3    H1 4703   7.865   6.638   2.947 -2.1375  1.7419  0.5795
 1582TIP3    H2 4704   7.786   6.668   2.821 -1.8127 -1.8185 -0.5791
 1583TIP3   OH2 4705   4.114   2.875   1.015  0.3797  0.8935  0.0908
 1583TIP3    H1 4706   4.202   2.911   1.025  0.1784  1.7525 -1.0621
 1583TIP3    H2 4707   4.063   2.947   0.979 -0.4660 -0.0086 -0.5493
 1584TIP3   OH2 4708   8.017   4.666   6.200  0.0376  0.2340  0.0064
 1584TIP3    H1 4709   8.081   4.620   6.254 -1.7408 -0.5870  1.5669
 1584TIP3    H2 4710   8.010   4.614   6.120  0.1556 -0.5793  0.5161
 1585TIP3   OH2 4711   3.685   0.447   2.283  0.0170  0.3159 -0.5179
 1585TIP3    H1 4712   3.656   0.416   2.197  0.3094 -0.7552 -0.2537
 1585TIP3    H2 4713   3.778   0.422   2.287  0.0095  0.3762  0.0920
 1586TIP3   OH2 4714   0.132   6.784   0.859  0.3159 -0.0446 -0.4378
 1586TIP3    H1 4715   0.219   6.808   0.829  0.0880 -0.0916 -1.1383
 1586TIP3    H2 4716   0.146   6.751   0.948  0.6818  2.4307  0.4937
 1587TIP3   OH2 4717   3.710   2.666   1.602  0.1321  0.5494  0.5143
 1587TIP3    H1 4718   3.625   2.702   1.575  0.6508  1.1369 -0.3744
 1587TIP3    H2 4719   3.723   2.591   1.544  0.6652  1.0497 -0.0207
 1588TIP3   OH2 4720   0.668   0.072   2.781  0.4968 -0.0527  0.8093
 1588TIP3    H1 4721   0.684  -0.014   2.821 -0.1410 -0.1852  0.7889
 1588TIP3    H2 4722   0.697   0.063   2.691 -1.2467 -0.8196  0.2888
 1589TIP3   OH2 4723   6.487   7.241   5.532 -0.0299 -0.5270 -0.0524
 1589TIP3    H1 4724   6.578   7.231   5.561 -0.2353 -1.9871  0.1211
 1589TIP3    H2 4725   6.491   7.239   5.437  0.2036  0.3588 -0.0755
 1590TIP3   OH2 4726   5.569   0.967   3.636  0.4551  0.3791 -0.0207
 1590TIP3    H1 4727   5.574   0.996   3.545  0.6287  0.8143  0.1210
 1590TIP3    H2 4728   5.501   1.022   3.675 -0.6994 -0.8577 -0.2556
 1591TIP3   OH2 4729   2.448   0.647   3.462  0.2835 -0.0802  0.5057
 1591TIP3    H1 4730   2.386   0.596   3.409  0.1645  0.0819  0.4863
 1591TIP3    H2 4731   2.469   0.590   3.535  2.8111 -1.5637 -1.2189
 1592TIP3   OH2 4732   7.081   5.947   0.908 -0.2638 -0.0943  0.4576
 1592TIP3    H1 4733   7.114   5.961   0.997 -0.0933 -2.3766  0.8231
 1592TIP3    H2 4734   7.007   5.887   0.920 -0.0515 -0.6715 -0.9511
 1593TIP3   OH2 4735   2.671   6.651   1.124  0.3435  0.8055 -0.4356
 1593TIP3    H1 4736   2.649   6.740   1.154  0.7512  0.7827 -0.0500
 1593TIP3    H2 4737   2.744   6.625   1.180  0.0584  0.1234 -0.3747
 1594TIP3   OH2 4738   4.826   1.904   0.987  0.4243 -0.4415  0.4762
 1594TIP3    H1 4739   4.874   1.961   0.927  0.2805 -0.4484  0.3532
 1594TIP3    H2 4740   4.757   1.961   1.023  0.7668 -0.3239  0.9491
 1595TIP3   OH2 4741   2.885   7.500   5.077 -0.1451  0.3707  0.6758
 1595TIP3    H1 4742   2.853   7.439   5.143  0.6321 -1.9165 -0.9275
 1595TIP3    H2 4743   2.844   7.469   4.995  0.6074  1.7654 -0.2551
 1596TIP3   OH2 4744   0.914   4.219   1.552  0.0106 -0.3279 -0.4332
 1596TIP3    H1 4745   0.853   4.292   1.540 -0.3244  0.0015  2.4641
 1596TIP3    H2 4746   0.990   4.242   1.499 -1.5618  0.2004 -2.6089
 1597TIP3   OH2 4747   3.608   1.714   4.862  0.0477 -0.2147  0.3792
 1597TIP3    H1 4748   3.583   1.627   4.834  0.6045 -0.7005  1.3297
 1597TIP3    H2 4749   3.565   1.773   4.800  1.7503 -1.2116 -1.9302
 1598TIP3   OH2 4750   7.328   2.642   5.878 -0.0857 -0.2621 -0.2383
 1598TIP3    H1 4751   7.372   2.558   5.865 -1.6481 -1.3780  1.3348
 1598TIP3    H2 4752   7.272   2.652   5.801  0.3472 -0.4681 -0.5896
 1599TIP3   OH2 4753   1.104   1.418   0.742  0.7095 -0.1185  0.1740
 1599TIP3    H1 4754   1.017   1.394   0.711  0.5586  1.1320 -0.4556
 1599TIP3    H2 4755   1.163   1.359   0.696  0.2409 -0.5625  0.1353
 1600TIP3   OH2 4756   0.552   7.058   6.638 -0.2954  0.3016 -0.2730
 1600TIP3    H1 4757   0.551   7.044   6.543  0.9507  0.5762 -0.3394
 1600TIP3    H2 4758   0.468   7.023   6.668 -1.4605  1.7027 -1.6786
 1601TIP3   OH2 4759   0.848   4.559   5.525 -0.7398 -0.2420  0.1722
 1601TIP3    H1 4760   0.765   4.605   5.509  0.2945  1.0063 -2.1164
 1601TIP3    H2 4761   0.912   4.606   5.471  1.3443 -1.5982  1.3201
 1602TIP3   OH2 4762   4.587   7.567   1.639  0.3060  0.4299  0.1839
 1602TIP3    H1 4763   4.533   7.556   1.718  0.8006  0.5560  0.5419
 1602TIP3    H2 4764   4.650   7.635   1.663 -1.3040  2.5680 -1.2373
 1603TIP3   OH2 4765   3.066   0.111   4.710  0.4544  0.0095  0.0710
 1603TIP3    H1 4766   2.996   0.175   4.698  0.3525 -0.3326 -1.2912
 1603TIP3    H2 4767   3.054   0.047   4.639  1.8563 -0.3191  0.0858
 1604TIP3   OH2 4768   6.746   5.364   2.425 -0.8142 -0.1009 -0.5397
 1604TIP3    H1 4769   6.673   5.353   2.487 -1.6733 -0.0643 -1.5260
 1604TIP3    H2 4770   6.768   5.274   2.399 -0.6860 -0.0952 -0.4509
 1605TIP3   OH2 4771   6.762   3.098   2.960 -0.4244  0.4618 -0.2257
 1605TIP3    H1 4772   6.739   3.054   2.878  0.5378 -1.3097  0.3922
 1605TIP3    H2 4773   6.681   3.099   3.011 -0.5745 -0.2463 -0.4353
 1606TIP3   OH2 4774   4.853   7.419   4.048 -0.4507 -0.1825 -0.4117
 1606TIP3    H1 4775   4.812   7.441   3.965 -2.9154 -2.3188  0.1205
 1606TIP3    H2 4776   4.889   7.331   4.034  0.4322  0.0337  0.3753
 1607TIP3   OH2 4777   1.859   1.853   2.252  0.1196 -0.4387  0.2195
 1607TIP3    H1 4778   1.866   1.886   2.163 -0.7589 -2.8433 -0.7943
 1607TIP3    H2 4779   1.940   1.804   2.267 -0.3752 -1.2837  0.1828
 1608TIP3   OH2 4780   4.676   5.954   0.359  0.4780  0.1699 -0.2805
 1608TIP3    H1 4781   4.659   5.860   0.348 -0.1215  0.3565 -1.0521
 1608TIP3    H2 4782   4.596   5.988   0.399  1.2131  0.1407  1.2660
 1609TIP3   OH2 4783   3.721   7.384   0.313 -0.3680 -0.3717  0.0925
 1609TIP3    H1 4784   3.635   7.375   0.273 -1.1834  0.8254  1.4827
 1609TIP3    H2 4785   3.745   7.295   0.339 -0.8203 -0.8257 -1.0191
 1610TIP3   OH2 4786   1.677   2.035   2.390 -0.6066  0.4553  0.0686
 1610TIP3    H1 4787   1.719   1.976   2.328 -0.1770  0.5948  0.2206
 1610TIP3    H2 4788   1.593   1.994   2.410  0.4288 -1.0951  1.5959
 1611TIP3   OH2 4789   4.003   3.177   1.639  0.1784 -0.1918 -0.5870
 1611TIP3    H1 4790   4.074   3.194   1.577 -0.3934  0.6254 -1.0349
 1611TIP3    H2 4791   3.924   3.207   1.594 -0.3416 -0.2577  0.2576
 1612TIP3   OH2 4792   0.118   5.577   0.825  0.2223  0.1461  0.5150
 1612TIP3    H1 4793   0.204   5.536   0.814  0.7527  1.2851  0.2259
 1612TIP3    H2 4794   0.138   5.662   0.864 -0.6297  1.0338 -0.9088
 1613TIP3   OH2 4795   5.062   0.840   3.987 -0.3151  0.0853  0.0499
 1613TIP3    H1 4796   5.128   0.775   4.016 -0.6457 -1.3544 -2.1908
 1613TIP3    H2 4797   4.987   0.823   4.043  1.0152  1.5636  2.4671
 1614TIP3   OH2 4798   5.938   7.229   0.843  0.0804 -0.0291  0.2015
 1614TIP3    H1 4799   5.916   7.182   0.924 -1.4049 -0.7676 -0.5854
 1614TIP3    H2 4800   5.861   7.282   0.824  0.0318 -0.5651 -1.2039
 1615TIP3   OH2 4801   8.097   4.530   2.114 -0.0302  0.6580  0.3241
 1615TIP3    H1 4802   8.124   4.481   2.037  0.8347 -0.5914  1.3700
 1615TIP3    H2 4803   8.173   4.582   2.138  1.4118 -2.2484  2.7970
 1616TIP3   OH2 4804   5.819   0.534   5.146 -0.3423  0.5180  0.2506
 1616TIP3    H1 4805   5.892   0.493   5.193 -0.9317 -0.7557  0.0953
 1616TIP3    H2 4806   5.773   0.584   5.213 -0.2052  0.0777  0.6857
 1617TIP3   OH2 4807   2.918   2.487   4.337  0.2286  0.5452  0.0399
 1617TIP3    H1 4808   2.840   2.431   4.342 -0.7418  1.7973 -0.5742
 1617TIP3    H2 4809   2.954   2.470   4.250  1.2541 -0.7804  0.6911
 1618TIP3   OH2 4810   0.417   1.703   6.716  0.3662  0.6349 -0.2593
 1618TIP3    H1 4811   0.331   1.685   6.679  0.1241  1.4373 -0.1080
 1618TIP3    H2 4812   0.433   1.631   6.776 -0.6949  1.0429  0.5547
 1619TIP3   OH2 4813   5.241   5.829   5.858 -0.0945 -0.4380 -0.0284
 1619TIP3    H1 4814   5.165   5.886   5.853  0.5539  0.3780 -0.9501
 1619TIP3    H2 4815   5.272   5.822   5.767 -1.2328 -3.8003 -0.3158
 1620TIP3   OH2 4816   6.231   4.642   4.153 -0.0839 -0.7114 -0.1062
 1620TIP3    H1 4817   6.189   4.681   4.230  1.6308 -2.5143  1.8605
 1620TIP3    H2 4818   6.177   4.565   4.133 -0.7483 -0.0307 -0.9873
 1621TIP3   OH2 4819   6.067   2.804   0.734 -0.1089 -0.1528 -0.4850
 1621TIP3    H1 4820   6.120   2.874   0.772  2.4425 -2.4422  0.5050
 1621TIP3    H2 4821   6.095   2.798   0.643 -1.2411  0.8485 -0.9291
 1622TIP3   OH2 4822   0.313   0.351   6.372 -0.2879 -0.7927 -0.3003
 1622TIP3    H1 4823   0.392   0.299   6.355  1.4512  1.5744  0.0048
 1622TIP3    H2 4824   0.267   0.302   6.440  1.4816 -1.7307  0.3018
 1623TIP3   OH2 4825   0.640   1.652   2.735 -0.3671  0.1646 -0.3839
 1623TIP3    H1 4826   0.564   1.610   2.775 -1.8780  0.7735 -2.4363
 1623TIP3    H2 4827   0.631   1.633   2.641  3.5360 -2.0946 -0.5198
 1624TIP3   OH2 4828   3.827   6.476   0.025  0.1223  0.0716 -0.2356
 1624TIP3    H1 4829   3.913   6.443   0.050  0.3085 -0.1696 -1.1703
 1624TIP3    H2 4830   3.813   6.553   0.081 -0.1433 -1.3076  1.6927
 1625TIP3   OH2 4831   1.538   1.839   3.106 -0.0532  0.2926  0.2574
 1625TIP3    H1 4832   1.452   1.875   3.083 -0.1243  1.0675  1.5969
 1625TIP3    H2 4833   1.543   1.850   3.201  2.0875  1.5318  0.0609
 1626TIP3   OH2 4834   5.349   0.023   3.010  0.1512  0.0335  0.0815
 1626TIP3    H1 4835   5.323   0.018   3.102 -0.3426  3.8534  0.3233
 1626TIP3    H2 4836   5.444   0.037   3.013 -0.1632  2.6283  0.2853
 1627TIP3   OH2 4837   4.701   7.380   6.179  0.4129  0.7794  0.0052
 1627TIP3    H1 4838   4.724   7.329   6.256 -1.3716 -1.5744 -0.8676
 1627TIP3    H2 4839   4.620   7.426   6.203  0.8279  1.4701  0.0937
 1628TIP3   OH2 4840   5.414   2.392   0.377  0.0995  0.2147  0.1817
 1628TIP3    H1 4841   5.432   2.475   0.422  0.2137  0.3165 -0.0528
 1628TIP3    H2 4842   5.498   2.363   0.343 -0.3419  1.4158 -2.1680
 1629TIP3   OH2 4843   5.359   0.960   1.876  1.3825 -0.1403 -0.7464
 1629TIP3    H1 4844   5.403   0.990   1.796  3.3632  1.6092  0.9072
 1629TIP3    H2 4845   5.426   0.914   1.926  0.9716  1.1709  1.1175
 1630TIP3   OH2 4846   6.468   3.191   6.286  0.1567 -0.5868 -0.2334
 1630TIP3    H1 4847   6.467   3.199   6.191 -1.8634 -0.1113 -0.2305
 1630TIP3    H2 4848   6.507   3.272   6.317  0.5411 -0.6120 -0.6520
 1631TIP3   OH2 4849   5.930   3.603   3.668 -0.6850 -0.0537  0.6411
 1631TIP3    H1 4850   5.876   3.671   3.629 -1.1422  0.0554  1.4268
 1631TIP3    H2 4851   5.982   3.568   3.596 -1.4967  0.1378 -0.0544
 1632TIP3   OH2 4852   0.300   7.796   0.022 -0.1721 -0.1962  0.0574
 1632TIP3    H1 4853   0.394   7.779   0.028 -0.1544  0.4550  2.8117
 1632TIP3    H2 4854   0.266   7.723  -0.031  1.8060 -0.5801 -0.7744
 1633TIP3   OH2 4855   1.894   1.488   6.687  0.3237  0.4201 -0.4726
 1633TIP3    H1 4856   1.954   1.562   6.700 -1.0384  1.3841  0.5969
 1633TIP3    H2 4857   1.823   1.503   6.749  0.0257 -1.8515 -0.1822
 1634TIP3   OH2 4858   7.873   3.063   4.265 -0.2658  0.3800  0.1080
 1634TIP3    H1 4859   7.800   3.125   4.262  0.1121  0.8379  0.1261
 1634TIP3    H2 4860   7.916   3.072   4.180  0.3370  0.8254  0.4492
 1635TIP3   OH2 4861   2.465   3.750   2.380  0.4525 -0.4945  0.4996
 1635TIP3    H1 4862   2.418   3.682   2.332 -1.9638  0.6918  0.9978
 1635TIP3    H2 4863   2.463   3.721   2.471  1.6684 -0.9239  0.4088
 1636TIP3   OH2 4864   1.805   5.112   1.313 -0.1409 -0.3188  0.3141
 1636TIP3    H1 4865   1.739   5.053   1.349 -0.1030  0.2524  1.3544
 1636TIP3    H2 4866   1.756   5.177   1.263 -0.6562  1.3990  2.8394
 1637TIP3   OH2 4867   0.069   1.294   1.368 -0.5879  0.0619  0.0728
 1637TIP3    H1 4868   0.155   1.337   1.373 -0.8241  0.6695 -0.7484
 1637TIP3    H2 4869   0.049   1.268   1.458 -0.2524  1.3392  0.5355
 1638TIP3   OH2 4870   2.475   0.510   4.598  0.1154 -0.7028 -0.3268
 1638TIP3    H1 4871   2.509   0.599   4.613 -0.2898 -0.5186 -0.5074
 1638TIP3    H2 4872   2.406   0.499   4.663 -0.7820 -0.3704 -1.2048
 1639TIP3   OH2 4873   7.178   7.085   3.938 -0.0188 -0.1386  0.3569
 1639TIP3    H1 4874   7.229   7.004   3.937  2.0735  1.1049 -0.6421
 1639TIP3    H2 4875   7.212   7.134   4.012  1.3719  1.3199 -1.1589
 1640TIP3   OH2 4876   4.537   1.989   1.056  0.4866 -0.3202  0.2525
 1640TIP3    H1 4877   4.507   1.990   0.965  0.3975 -0.6664  0.2759
 1640TIP3    H2 4878   4.529   2.080   1.085  0.4518 -0.2209 -0.0655
 1641TIP3   OH2 4879   3.655   0.521   5.818 -0.4913  0.0433  0.3217
 1641TIP3    H1 4880   3.741   0.487   5.840 -0.7488 -1.4151 -0.8027
 1641TIP3    H2 4881   3.655   0.610   5.853  0.6464 -0.6635  2.2985
 1642TIP3   OH2 4882   7.749   6.117   4.848  0.5221  0.0421  0.2235
 1642TIP3    H1 4883   7.685   6.047   4.859  0.0472  0.5710  0.8960
 1642TIP3    H2 4884   7.729   6.155   4.763 -0.6165  0.7365  0.7732
 1643TIP3   OH2 4885   5.768   4.371   6.383  0.0322  0.2859 -0.4913
 1643TIP3    H1 4886   5.802   4.292   6.424  1.4309 -0.2402 -2.5025
 1643TIP3    H2 4887   5.720   4.340   6.307  1.1540  1.3260 -1.6926
 1644TIP3   OH2 4888   3.203   2.190   2.076  0.0026  0.0554  0.2757
 1644TIP3    H1 4889   3.194   2.117   2.014  1.9900 -1.1047  1.2712
 1644TIP3    H2 4890   3.279   2.239   2.045 -0.6101  1.0675  0.2982
 1645TIP3   OH2 4891   4.246   2.493   2.142 -0.2103  0.0919 -0.1056
 1645TIP3    H1 4892   4.291   2.551   2.204 -1.5876  0.4368  0.6063
 1645TIP3    H2 4893   4.281   2.518   2.057  2.3895 -0.9842  0.5325
 1646TIP3   OH2 4894   4.799   5.187   5.404  0.2918 -0.1651  0.4612
 1646TIP3    H1 4895   4.848   5.174   5.322  0.6670  0.8792  0.5100
 1646TIP3    H2 4896   4.720   5.135   5.393  0.8133 -0.8533 -0.1480
 1647TIP3   OH2 4897   5.225   7.038   2.847  0.5580 -0.0056 -0.6294
 1647TIP3    H1 4898   5.267   7.106   2.795  1.9487 -1.1833 -1.1191
 1647TIP3    H2 4899   5.134   7.038   2.816  0.7057  1.1157 -1.1336
 1648TIP3   OH2 4900   3.029   0.369   6.673 -0.0690 -0.6948 -0.0190
 1648TIP3    H1 4901   2.946   0.320   6.672  0.0801 -0.9831  0.6251
 1648TIP3    H2 4902   3.029   0.419   6.592 -0.8239 -0.7828 -0.0827
 1649TIP3   OH2 4903   2.389   4.214   3.137  0.2133 -0.0619 -0.0740
 1649TIP3    H1 4904   2.402   4.295   3.088 -2.6502 -0.3573 -1.5777
 1649TIP3    H2 4905   2.459   4.213   3.202  0.5460  3.4685 -0.1807
 1650TIP3   OH2 4906   7.407   1.459   0.467  0.7897  0.0909  0.2019
 1650TIP3    H1 4907   7.385   1.552   0.467 -1.2630 -0.2706 -2.5849
 1650TIP3    H2 4908   7.494   1.454   0.427  1.8455  0.8444  2.2236
 1651TIP3   OH2 4909   6.818   1.757   2.293  0.1540 -0.3305 -0.0072
 1651TIP3    H1 4910   6.732   1.764   2.335 -0.8985 -1.0080 -1.9498
 1651TIP3    H2 4911   6.827   1.664   2.271  0.4882  0.0432 -1.5771
 1652TIP3   OH2 4912   3.614   2.253   1.675  0.1090  0.0422 -0.3203
 1652TIP3    H1 4913   3.706   2.232   1.684  0.6650  1.9415 -0.9648
 1652TIP3    H2 4914   3.568   2.181   1.718  1.8951 -0.5535  0.6981
 1653TIP3   OH2 4915   2.268   0.386   2.077 -0.1339  0.4407  0.0900
 1653TIP3    H1 4916   2.259   0.474   2.041  1.2973  0.2022 -0.9065
 1653TIP3    H2 4917   2.238   0.395   2.168 -2.9407  1.2406 -0.8209
 1654TIP3   OH2 4918   0.400   4.298   2.743 -0.0367  0.3963  0.3365
 1654TIP3    H1 4919   0.455   4.274   2.668  1.2382  0.1410  1.3380
 1654TIP3    H2 4920   0.372   4.388   2.723 -0.1622  0.1397 -0.7040
 1655TIP3   OH2 4921   3.332   2.567   3.801  1.1734  0.7215  0.1897
 1655TIP3    H1 4922   3.376   2.496   3.753  0.6713 -0.3491  1.2661
 1655TIP3    H2 4923   3.384   2.577   3.881 -0.1144 -0.0960  1.1630
 1656TIP3   OH2 4924   3.321   2.854   3.765  0.1191  0.4791  0.0090
 1656TIP3    H1 4925   3.267   2.780   3.794 -1.6669  1.3496 -0.9252
 1656TIP3    H2 4926   3.407   2.815   3.749  0.1485 -0.7657  2.5967
 1657TIP3   OH2 4927   6.645   2.931   2.774  0.4942  0.1017 -0.0138
 1657TIP3    H1 4928   6.553   2.911   2.791 -0.1024 -0.6511 -3.3836
 1657TIP3    H2 4929   6.693   2.853   2.803 -0.3455 -0.8772 -1.1651
 1658TIP3   OH2 4930   4.576   3.550   0.287  0.3246  0.3253  0.5191
 1658TIP3    H1 4931   4.570   3.645   0.276 -0.7961  0.1724 -0.3363
 1658TIP3    H2 4932   4.504   3.527   0.345  2.1529  0.2705  2.9264
 1659TIP3   OH2 4933   5.348   7.163   4.577  0.1052 -0.0877 -0.1459
 1659TIP3    H1 4934   5.313   7.222   4.510  2.2050  0.1742 -1.1000
 1659TIP3    H2 4935   5.340   7.212   4.659 -0.5705  0.4521 -0.5233
 1660TIP3   OH2 4936   2.693   2.484   6.073 -0.2089  0.0130 -0.2873
 1660TIP3    H1 4937   2.693   2.559   6.013  1.0193 -0.2664 -0.6459
 1660TIP3    H2 4938   2.724   2.519   6.156 -0.1577  0.0124 -0.3063
 1661TIP3   OH2 4939   3.889   4.134   5.714  0.5192 -0.9650 -0.6139
 1661TIP3    H1 4940   3.856   4.217   5.679 -0.1110 -0.7413  0.4513
 1661TIP3    H2 4941   3.975   4.155   5.751 -0.0860 -0.5166  0.6044
 1662TIP3   OH2 4942   0.037   0.042   5.457  0.1708  0.4726 -0.0258
 1662TIP3    H1 4943   0.027   0.137   5.461  0.4350  0.4706  1.2688
 1662TIP3    H2 4944   0.113   0.027   5.402 -2.0252  0.8119 -3.4260
 1663TIP3   OH2 4945   5.121   5.435   5.908  0.1865  0.1272 -0.1528
 1663TIP3    H1 4946   5.113   5.429   5.813  0.5481 -0.3180 -0.1568
 1663TIP3    H2 4947   5.183   5.507   5.922  0.3086  0.0450 -0.2637
 1664TIP3   OH2 4948   7.923   5.989   2.361 -0.0119  0.1574 -0.0518
 1664TIP3    H1 4949   7.890   5.921   2.302 -0.8349 -0.5143  1.1404
 1664TIP3    H2 4950   7.879   5.972   2.444  1.6615  0.6376  0.9813
 1665TIP3   OH2 4951   1.951   6.488   4.268  0.1653 -0.2679 -0.6187
 1665TIP3    H1 4952   1.951   6.412   4.327 -0.2936 -0.0535 -0.3399
 1665TIP3    H2 4953   1.975   6.452   4.183 -1.1181 -0.9240 -0.7251
 1666TIP3   OH2 4954   7.680   2.110   4.752 -0.1212  0.3281 -0.2252
 1666TIP3    H1 4955   7.770   2.138   4.740 -0.6018  2.6349  0.9371
 1666TIP3    H2 4956   7.675   2.084   4.844 -0.5965 -0.0166 -0.3440
 1667TIP3   OH2 4957   1.162   0.399   5.118  0.1248 -0.0600  0.1521
 1667TIP3    H1 4958   1.170   0.479   5.171 -0.4974 -0.6282  1.1339
 1667TIP3    H2 4959   1.226   0.410   5.048  2.1585  0.0073  1.9102
 1668TIP3   OH2 4960   2.229   7.660   5.969  0.0360 -0.1457  0.0478
 1668TIP3    H1 4961   2.311   7.701   5.997  0.5061 -0.5043 -0.7395
 1668TIP3    H2 4962   2.197   7.716   5.898 -0.7416  0.3441  0.7771
 1669TIP3   OH2 4963   4.651   2.390   5.789 -0.3047  0.1389  0.2400
 1669TIP3    H1 4964   4.731   2.351   5.754 -1.6140 -4.0996  1.3755
 1669TIP3    H2 4965   4.663   2.389   5.884 -1.1427  0.8309  0.3634
 1670TIP3   OH2 4966   1.008   1.316   4.369  0.5832 -0.5445 -0.5491
 1670TIP3    H1 4967   1.100   1.313   4.396  1.4329  3.4939 -2.2207
 1670TIP3    H2 4968   0.960   1.274   4.440  3.6363 -2.7463  0.4233
 1671TIP3   OH2 4969   6.673   5.654   5.365  0.5954 -0.0253  0.0450
 1671TIP3    H1 4970   6.593   5.670   5.416 -0.8664 -1.4444 -1.6524
 1671TIP3    H2 4971   6.665   5.710   5.289 -0.4221 -2.3366 -1.6889
 1672TIP3   OH2 4972   6.693   6.522   5.186 -0.0145  0.0836 -0.1700
 1672TIP3    H1 4973   6.760   6.540   5.251  0.3708  0.1113 -0.5676
 1672TIP3    H2 4974   6.622   6.582   5.207  0.6129  0.9592 -0.5217
 1673TIP3   OH2 4975   5.651   1.194   2.175  0.0597 -0.3900 -0.0208
 1673TIP3    H1 4976   5.699   1.239   2.105  0.0621 -2.8546 -1.7576
 1673TIP3    H2 4977   5.714   1.186   2.246  0.7210  0.4113 -0.4945
 1674TIP3   OH2 4978   0.913   1.602   1.363  0.2842  0.3999  0.1299
 1674TIP3    H1 4979   0.906   1.555   1.280 -2.3418  1.7352 -0.4933
 1674TIP3    H2 4980   0.969   1.677   1.343  1.1446 -0.2244  0.0939
 1675TIP3   OH2 4981   3.704   3.200   0.753  0.4691  0.5543  0.4728
 1675TIP3    H1 4982   3.713   3.293   0.731 -0.8785  0.4536 -0.6459
 1675TIP3    H2 4983   3.630   3.198   0.814  0.3226  0.1988  0.2866
 1676TIP3   OH2 4984   0.334   0.906   5.781  0.3750 -0.2361 -0.2512
 1676TIP3    H1 4985   0.313   0.826   5.829  0.9949 -1.0119 -1.2163
 1676TIP3    H2 4986   0.405   0.946   5.831  0.7904 -0.8565 -0.3356
 1677TIP3   OH2 4987   3.009   2.666   0.587 -0.4335 -0.7425  0.2625
 1677TIP3    H1 4988   2.980   2.651   0.497 -0.9907  0.6269  0.1839
 1677TIP3    H2 4989   3.104   2.659   0.583 -0.5103 -1.6916 -0.2198
 1678TIP3   OH2 4990   1.912   5.292   1.758 -0.3321 -0.1790  0.1306
 1678TIP3    H1 4991   1.964   5.344   1.820 -0.1798 -0.6206  0.3775
 1678TIP3    H2 4992   1.822   5.303   1.787 -0.1687 -1.3587  1.1943
 1679TIP3   OH2 4993   8.109   7.534   1.373  0.5432 -0.0329  0.3160
 1679TIP3    H1 4994   8.071   7.465   1.318 -0.3778  0.3254  0.4879
 1679TIP3    H2 4995   8.189   7.559   1.327 -0.6141  0.8432 -1.3593
 1680TIP3   OH2 4996   3.817   4.895   2.646 -0.1259 -0.1908 -0.1792
 1680TIP3    H1 4997   3.741   4.847   2.677  0.2953 -0.8961 -0.2123
 1680TIP3    H2 4998   3.876   4.898   2.722  0.0479 -0.1420 -0.3136
 1681TIP3   OH2 4999   3.385   4.814   4.852 -0.0154  0.2384 -0.0354
 1681TIP3    H1 5000   3.429   4.756   4.789  1.9754  0.0890  1.4099
 1681TIP3    H2 5001   3.386   4.900   4.810  0.7157  0.0203 -0.4836
 1682TIP3   OH2 5002   4.819   4.543   3.253  0.4582  0.1846 -0.3363
 1682TIP3    H1 5003   4.763   4.616   3.226 -0.0363 -0.7114 -1.8693
 1682TIP3    H2 5004   4.854   4.570   3.338 -1.7106  1.1117  0.3463
 1683TIP3   OH2 5005   0.866   7.555   5.681 -0.3223  0.7829  0.1822
 1683TIP3    H1 5006   0.878   7.609   5.760 -1.2822  0.2645  0.6929
 1683TIP3    H2 5007   0.954   7.526   5.658 -0.2321 -0.9841  2.4432
 1684TIP3   OH2 5008   6.529   0.122   0.112 -0.5392 -0.1613 -0.3608
 1684TIP3    H1 5009   6.582   0.054   0.071 -1.2638 -1.6993  1.1082
 1684TIP3    H2 5010   6.514   0.090   0.202  0.5497  2.7791  0.9959
 1685TIP3   OH2 5011   2.716   3.037   0.574  0.0074 -0.8095  0.3802
 1685TIP3    H1 5012   2.804   2.999   0.578 -0.4028 -1.6832  1.4198
 1685TIP3    H2 5013   2.694   3.057   0.665 -0.8758 -0.5938  0.1284
 1686TIP3   OH2 5014   3.690   1.320   3.879 -0.3794 -0.7944 -0.2858
 1686TIP3    H1 5015   3.688   1.391   3.815  0.2314 -1.5877 -1.2279
 1686TIP3    H2 5016   3.722   1.360   3.959 -2.6487  0.5802  0.0235
 1687TIP3   OH2 5017   4.099   3.048   0.337 -0.1100 -0.3628 -0.7225
 1687TIP3    H1 5018   4.083   3.142   0.335  1.0981 -0.1667 -2.1052
 1687TIP3    H2 5019   4.016   3.009   0.309 -1.2107  0.1567  1.5753
 1688TIP3   OH2 5020   6.387   4.874   0.310  0.1057  0.3579  0.2094
 1688TIP3    H1 5021   6.439   4.952   0.329  0.1488  0.3354  0.1815
 1688TIP3    H2 5022   6.436   4.827   0.243 -0.5905  1.0101 -0.7889
 1689TIP3   OH2 5023   8.194   1.684   0.870 -0.2943 -0.2840  0.0879
 1689TIP3    H1 5024   8.202   1.705   0.963 -1.3056  1.4874 -0.1772
 1689TIP3    H2 5025   8.144   1.602   0.868 -1.0142  0.1160  1.0900
 1690TIP3   OH2 5026   0.399   0.836   2.929  0.0768  0.2838 -0.7063
 1690TIP3    H1 5027   0.411   0.839   3.024 -0.9936  1.0719 -0.5835
 1690TIP3    H2 5028   0.397   0.928   2.902 -1.5762  0.1329 -1.2180
 1691TIP3   OH2 5029   1.117   3.180   1.091  0.1517  0.1635 -0.1653
 1691TIP3    H1 5030   1.097   3.249   1.027 -0.3345  0.1152 -0.0673
 1691TIP3    H2 5031   1.097   3.098   1.045  0.6120  0.0899 -0.2395
 1692TIP3   OH2 5032   0.049   6.960   0.361  0.2661  0.0751 -0.1865
 1692TIP3    H1 5033   0.057   6.956   0.457  0.3112 -0.3139 -0.2045
 1692TIP3    H2 5034   0.131   6.921   0.329  0.4653  0.6421 -0.3875
 1693TIP3   OH2 5035   6.621   7.378   6.080  0.5267 -0.2106  0.0546
 1693TIP3    H1 5036   6.537   7.413   6.112 -0.7558 -1.5463 -1.6685
 1693TIP3    H2 5037   6.646   7.438   6.010  0.3347 -0.5279 -0.2893
 1694TIP3   OH2 5038   6.399   0.360   0.584 -0.2848 -0.1141  0.5358
 1694TIP3    H1 5039   6.353   0.420   0.643  1.5101  0.0927  1.7886
 1694TIP3    H2 5040   6.361   0.274   0.602 -0.8080  0.1838  0.8676
 1695TIP3   OH2 5041   6.535   4.277   3.834  0.1375  0.0354 -0.2032
 1695TIP3    H1 5042   6.525   4.312   3.745 -1.5889  0.4613  0.1261
 1695TIP3    H2 5043   6.502   4.346   3.891  1.1841 -0.2567  0.7855
 1696TIP3   OH2 5044   7.488   6.102   4.212  0.0364  0.3101  0.0568
 1696TIP3    H1 5045   7.517   6.017   4.243  0.0862  0.4002  0.2557
 1696TIP3    H2 5046   7.487   6.158   4.290 -1.6948  0.0386  0.2566
 1697TIP3   OH2 5047   7.537   7.717   3.332 -0.0649 -0.4443 -0.0463
 1697TIP3    H1 5048   7.540   7.775   3.256  1.3156 -0.0248  0.2885
 1697TIP3    H2 5049   7.455   7.668   3.323 -0.2693  0.1187 -1.4061
 1698TIP3   OH2 5050   7.384   3.935   4.965  0.3155 -0.3779  0.3085
 1698TIP3    H1 5051   7.381   3.971   4.876 -0.4028  0.1599  0.5452
 1698TIP3    H2 5052   7.370   3.841   4.953  1.4882 -0.5057 -0.2492
 1699TIP3   OH2 5053   5.793   0.605   2.159  0.0995  0.3165 -0.1125
 1699TIP3    H1 5054   5.806   0.638   2.248 -0.9040  1.5188 -0.3813
 1699TIP3    H2 5055   5.875   0.625   2.113 -0.5158  2.7006 -0.3079
 1700TIP3   OH2 5056   6.898   0.922   6.400  0.5114 -0.5145  0.4945
 1700TIP3    H1 5057   6.903   0.889   6.490  1.1478  0.6519  0.9009
 1700TIP3    H2 5058   6.981   0.894   6.360  0.7233 -0.0528  0.6121
 1701TIP3   OH2 5059   2.060   7.592   0.403  0.3718  0.2967 -0.4031
 1701TIP3    H1 5060   2.109   7.527   0.454  1.1567  0.9547 -0.3010
 1701TIP3    H2 5061   2.027   7.654   0.468  1.9192  1.4993 -0.7161
 1702TIP3   OH2 5062   7.633   5.063   5.262 -0.0026 -0.3557 -0.0136
 1702TIP3    H1 5063   7.665   5.131   5.322  2.3844 -0.8038 -0.6768
 1702TIP3    H2 5064   7.634   4.983   5.314  1.4786 -0.6359 -0.4419
 1703TIP3   OH2 5065   8.177   5.613   4.832 -0.2226  0.5807  0.8741
 1703TIP3    H1 5066   8.086   5.584   4.841 -0.7207  0.4584 -2.8513
 1703TIP3    H2 5067   8.198   5.653   4.916 -3.6776  0.5216  1.9248
 1704TIP3   OH2 5068   5.325   0.865   0.387 -0.2791  0.3193 -0.5393
 1704TIP3    H1 5069   5.279   0.827   0.462  0.5297  0.1021 -0.1412
 1704TIP3    H2 5070   5.311   0.959   0.394  2.4939  0.6920  1.8092
 1705TIP3   OH2 5071   7.258   2.072   3.728  0.2400  0.5432  0.1422
 1705TIP3    H1 5072   7.173   2.050   3.691  1.0430 -1.5382 -0.6398
 1705TIP3    H2 5073   7.244   2.076   3.822 -0.4083 -1.5526  0.1709
 1706TIP3   OH2 5074   1.375   2.228   3.282 -0.6257  0.4800  0.1716
 1706TIP3    H1 5075   1.295   2.177   3.271 -1.1606  1.2271  0.5026
 1706TIP3    H2 5076   1.393   2.264   3.195 -1.4418  1.4380  0.3776
 1707TIP3   OH2 5077   3.123   6.297   4.421 -0.0143 -0.4415 -0.1329
 1707TIP3    H1 5078   3.109   6.327   4.511 -0.6387  0.5371 -0.5377
 1707TIP3    H2 5079   3.091   6.207   4.420 -0.0912 -0.4251  0.5986
 1708TIP3   OH2 5080   0.900   6.635   5.688  0.0496  0.3980 -0.3926
 1708TIP3    H1 5081   0.915   6.694   5.762  0.0395  0.2714 -0.2897
 1708TIP3    H2 5082   0.829   6.578   5.717  0.4515 -0.0478 -0.2656
 1709TIP3   OH2 5083   2.245   4.352   5.162 -0.1608  0.3363 -0.3142
 1709TIP3    H1 5084   2.155   4.338   5.190  0.4567 -0.5257  1.4168
 1709TIP3    H2 5085   2.297   4.294   5.218  1.3888  0.0189 -1.9708
 1710TIP3   OH2 5086   6.921   0.523   6.384  0.1958 -0.0758 -0.4953
 1710TIP3    H1 5087   6.882   0.565   6.307  1.8469  2.1389 -0.2526
 1710TIP3    H2 5088   6.991   0.469   6.348  0.2399  0.0580 -0.6129
 1711TIP3   OH2 5089   0.676   4.013   2.712 -0.0209 -0.0244 -0.2101
 1711TIP3    H1 5090   0.716   3.972   2.636 -0.1395 -1.7304  0.5925
 1711TIP3    H2 5091   0.634   3.941   2.759  0.8825  0.7847  1.9842
 1712TIP3   OH2 5092   2.741   4.125   0.901  0.0099  0.3607 -0.1803
 1712TIP3    H1 5093   2.680   4.059   0.934 -0.0121  0.3144 -0.3120
 1712TIP3    H2 5094   2.723   4.129   0.807 -0.6582  1.2465 -0.0310
 1713TIP3   OH2 5095   3.139   1.844   4.281  0.2794  0.3711 -0.4140
 1713TIP3    H1 5096   3.114   1.889   4.200  0.4790  0.3884 -0.4660
 1713TIP3    H2 5097   3.233   1.858   4.289  0.1080  1.1972  0.3227
 1714TIP3   OH2 5098   4.089   5.898   6.043  0.5027 -0.1027 -0.0268
 1714TIP3    H1 5099   4.109   5.917   5.951 -0.1080  1.5347  0.1441
 1714TIP3    H2 5100   3.998   5.870   6.043  0.5658 -0.3113  0.0627
 1715TIP3   OH2 5101   6.150   2.677   2.206 -0.8190 -0.1549 -0.5117
 1715TIP3    H1 5102   6.058   2.674   2.179 -0.6684  3.4964 -2.0565
 1715TIP3    H2 5103   6.196   2.631   2.135 -1.2939 -0.4193 -0.6607
 1716TIP3   OH2 5104   2.284   5.221   0.510  0.2265 -0.1231  0.4079
 1716TIP3    H1 5105   2.209   5.273   0.541  0.9148  1.7547 -0.8510
 1716TIP3    H2 5106   2.325   5.187   0.589 -1.5334 -0.6110  1.1568
 1717TIP3   OH2 5107   2.475   6.436   0.991  0.3142 -0.2060 -0.3231
 1717TIP3    H1 5108   2.528   6.407   0.917 -1.0253 -1.0412 -0.9738
 1717TIP3    H2 5109   2.535   6.492   1.041  1.4849 -0.2476 -1.5952
 1718TIP3   OH2 5110   3.805   0.230   4.205 -0.0981 -0.7339  0.2620
 1718TIP3    H1 5111   3.813   0.318   4.240  1.4726 -0.9016  0.3846
 1718TIP3    H2 5112   3.842   0.173   4.273  2.4756 -1.1089 -1.3322
 1719TIP3   OH2 5113   7.116   1.479   2.541  0.7541  0.2248  0.3255
 1719TIP3    H1 5114   7.093   1.436   2.623 -0.1158 -1.5007 -0.7563
 1719TIP3    H2 5115   7.042   1.536   2.522  0.3845 -0.3120  0.1376
 1720TIP3   OH2 5116   5.212   1.704   0.999  0.4596  0.6425 -0.0822
 1720TIP3    H1 5117   5.213   1.660   1.084  0.4157 -0.3754 -0.5898
 1720TIP3    H2 5118   5.217   1.797   1.020  2.5206  0.3502  0.9861
 1721TIP3   OH2 5119   0.119   5.271   6.150  0.7909  0.2327  0.5107
 1721TIP3    H1 5120   0.187   5.339   6.154  1.1858  0.1220 -2.2204
 1721TIP3    H2 5121   0.040   5.318   6.122  0.5148 -0.1232  0.6847
 1722TIP3   OH2 5122   2.898   5.698   3.364 -0.3429  0.0781  0.6884
 1722TIP3    H1 5123   2.821   5.752   3.350  0.0286  0.5112  0.3259
 1722TIP3    H2 5124   2.970   5.746   3.324 -0.1357 -1.0583 -0.3644
 1723TIP3   OH2 5125   1.014   2.993   3.428 -0.1500 -0.2424  0.3755
 1723TIP3    H1 5126   1.096   2.950   3.402  1.0905  2.0319  0.2536
 1723TIP3    H2 5127   0.946   2.927   3.413  1.4998 -1.7870 -0.7188
 1724TIP3   OH2 5128   1.047   5.840   2.042 -0.1311  0.5842 -0.0443
 1724TIP3    H1 5129   1.043   5.755   2.086 -1.0077  0.6765  0.0732
 1724TIP3    H2 5130   1.017   5.903   2.108  0.0821  0.9254 -0.2724
 1725TIP3   OH2 5131   0.508   7.543   2.423 -1.0633 -0.1918  0.1832
 1725TIP3    H1 5132   0.427   7.493   2.411 -1.3320  0.1772  0.4317
 1725TIP3    H2 5133   0.527   7.535   2.516  0.0806 -1.6242 -0.1445
 1726TIP3   OH2 5134   1.625   4.118   1.966  0.0140 -0.5911 -0.5085
 1726TIP3    H1 5135   1.694   4.172   2.004 -1.1229  0.5556 -0.0319
 1726TIP3    H2 5136   1.671   4.064   1.901  1.5665 -0.7944  0.6901
 1727TIP3   OH2 5137   2.605   2.974   3.100 -0.2844  0.0265 -0.7393
 1727TIP3    H1 5138   2.592   2.888   3.140 -1.7723  1.3925  1.9176
 1727TIP3    H2 5139   2.654   2.955   3.020 -0.5761 -3.2795 -0.2795
 1728TIP3   OH2 5140   7.605   7.184   3.395  0.2351  0.4491 -0.4590
 1728TIP3    H1 5141   7.547   7.168   3.321  1.5080 -0.8701 -1.2543
 1728TIP3    H2 5142   7.687   7.139   3.371  0.3939 -0.8570  2.1436
 1729TIP3   OH2 5143   7.377   1.966   1.212  0.4221  0.2770  0.0705
 1729TIP3    H1 5144   7.308   1.937   1.153 -0.0740 -0.6695  1.0666
 1729TIP3    H2 5145   7.343   1.947   1.300  1.7690  0.1805  0.5976
 1730TIP3   OH2 5146   3.233   4.176   0.941  0.5510 -0.0305  0.6236
 1730TIP3    H1 5147   3.147   4.177   0.899  0.0960 -1.9474  1.4084
 1730TIP3    H2 5148   3.275   4.097   0.907  0.6976 -0.8900  2.6761
 1731TIP3   OH2 5149   4.616   5.733   5.908 -0.7413  0.1153  0.5070
 1731TIP3    H1 5150   4.709   5.721   5.929 -0.7623 -0.8300  0.0884
 1731TIP3    H2 5151   4.589   5.650   5.870 -1.3449  0.9153 -0.9047
 1732TIP3   OH2 5152   2.911   6.354   5.904 -0.4007 -0.9436 -0.1816
 1732TIP3    H1 5153   2.888   6.261   5.908 -0.3572 -0.9576 -0.2578
 1732TIP3    H2 5154   2.844   6.398   5.957  2.4158 -1.5301  4.4705
 1733TIP3   OH2 5155   4.192   5.930   4.869 -0.0773 -0.3468 -0.1171
 1733TIP3    H1 5156   4.190   5.999   4.935  1.5817  0.4630 -0.8665
 1733TIP3    H2 5157   4.284   5.907   4.861 -0.3031 -0.7371 -1.8452
 1734TIP3   OH2 5158   0.230   6.373   3.622 -0.0622  0.2059 -0.4333
 1734TIP3    H1 5159   0.240   6.413   3.708 -0.2199 -2.1550  0.7657
 1734TIP3    H2 5160   0.143   6.333   3.625 -0.6026  1.1518 -2.2039
 1735TIP3   OH2 5161   0.482   2.176   0.661 -0.6439 -0.4525 -0.2822
 1735TIP3    H1 5162   0.402   2.229   0.658 -0.4158  0.1343  2.0137
 1735TIP3    H2 5163   0.531   2.203   0.583 -0.7448  2.4873  0.5200
 1736TIP3   OH2 5164   6.092   6.203   4.530 -0.4284  0.1994 -0.3863
 1736TIP3    H1 5165   6.070   6.114   4.557 -1.6679  0.7762  0.5701
 1736TIP3    H2 5166   6.148   6.237   4.600 -0.1881  0.2813 -0.6134
 1737TIP3   OH2 5167   2.676   7.026   4.566  0.7908  0.0660  0.3998
 1737TIP3    H1 5168   2.754   7.070   4.599  1.0242  0.9804 -1.2621
 1737TIP3    H2 5169   2.709   6.961   4.504  0.2488  0.2620 -0.1041
 1738TIP3   OH2 5170   6.184   3.242   3.112  0.1587 -0.2762 -0.2596
 1738TIP3    H1 5171   6.101   3.288   3.126  0.1724 -0.2802 -0.1642
 1738TIP3    H2 5172   6.204   3.256   3.019  1.0735  1.4020  0.1558
 1739TIP3   OH2 5173   7.402   3.137   3.181  0.0428 -0.4490  0.3169
 1739TIP3    H1 5174   7.345   3.201   3.223  0.1240 -0.0155 -0.2198
 1739TIP3    H2 5175   7.365   3.124   3.094  0.5449 -0.4406  0.0937
 1740TIP3   OH2 5176   0.880   6.778   3.988  0.2255 -0.1637  0.5944
 1740TIP3    H1 5177   0.950   6.715   4.004  0.0535 -0.3827  0.5112
 1740TIP3    H2 5178   0.922   6.864   3.993  1.3588 -0.3071 -3.2160
 1741TIP3   OH2 5179   3.886   6.671   5.848  0.2831  0.1062 -0.6826
 1741TIP3    H1 5180   3.874   6.632   5.934 -0.7760 -0.2344 -0.9784
 1741TIP3    H2 5181   3.924   6.601   5.795 -2.9751 -1.1190 -1.6220
 1742TIP3   OH2 5182   3.899   2.241   1.658  0.4512 -0.1921  0.1948
 1742TIP3    H1 5183   3.897   2.336   1.644  0.4543 -0.2651 -0.3232
 1742TIP3    H2 5184   3.895   2.204   1.570  1.1565 -0.6695  0.3612
 1743TIP3   OH2 5185   6.971   3.484   6.086  0.0244 -0.0103 -0.2214
 1743TIP3    H1 5186   6.958   3.478   6.180 -0.4773  0.8886 -0.2177
 1743TIP3    H2 5187   6.924   3.409   6.050 -0.1018 -0.1415  0.2125
 1744TIP3   OH2 5188   6.924   3.087   3.632  0.0464  0.2955  0.2071
 1744TIP3    H1 5189   6.983   3.011   3.635  0.6208  0.7133 -0.2633
 1744TIP3    H2 5190   6.881   3.081   3.547  1.2829  1.3489 -0.5382
 1745TIP3   OH2 5191   5.359   4.829   1.043  0.9899 -0.2127  0.2289
 1745TIP3    H1 5192   5.426   4.776   1.000 -0.5064 -1.3997 -0.7337
 1745TIP3    H2 5193   5.308   4.766   1.095 -1.1927  0.0929 -1.4095
 1746TIP3   OH2 5194   5.609   5.612   0.204 -0.7047 -0.8960  0.3561
 1746TIP3    H1 5195   5.562   5.533   0.179 -2.7275  0.3286 -0.0040
 1746TIP3    H2 5196   5.542   5.680   0.206  0.9512  0.8360  0.5996
 1747TIP3   OH2 5197   3.951   0.187   5.858 -0.0113  0.2321 -0.3024
 1747TIP3    H1 5198   4.028   0.152   5.815  0.4857  1.6503 -0.6233
 1747TIP3    H2 5199   3.976   0.196   5.950  0.7329  2.0083 -0.6440
 1748TIP3   OH2 5200   5.461   6.869   2.133  0.1864  0.1740 -0.4144
 1748TIP3    H1 5201   5.416   6.786   2.116 -0.6807  0.3696  0.7753
 1748TIP3    H2 5202   5.433   6.927   2.062 -1.6797  0.3563  0.4091
 1749TIP3   OH2 5203   5.332   3.317   0.746  0.0420  0.1812 -0.4038
 1749TIP3    H1 5204   5.416   3.272   0.751  0.9547  1.9023  0.7026
 1749TIP3    H2 5205   5.334   3.361   0.660 -1.0616 -2.1448 -1.7074
 1750TIP3   OH2 5206   4.928   2.464   5.363 -0.3624  0.7852 -0.2200
 1750TIP3    H1 5207   4.992   2.501   5.302  0.6363 -1.6832 -0.7960
 1750TIP3    H2 5208   4.878   2.401   5.311 -0.0474 -0.7784  1.2563
 1751TIP3   OH2 5209   3.981   7.272   4.115 -0.2636  0.3899 -0.0128
 1751TIP3    H1 5210   4.020   7.306   4.035  0.3009 -0.9089 -0.3212
 1751TIP3    H2 5211   4.043   7.295   4.184 -0.9478  1.8724  0.1476
 1752TIP3   OH2 5212   2.784   0.447   6.108  0.2384 -0.0464 -0.4184
 1752TIP3    H1 5213   2.769   0.378   6.043 -0.8233 -0.2153 -0.0037
 1752TIP3    H2 5214   2.879   0.462   6.104  0.5677 -1.8061 -0.2316
 1753TIP3   OH2 5215   8.244   3.802   6.344 -0.4190  0.4107 -0.2078
 1753TIP3    H1 5216   8.206   3.715   6.358  0.4432 -0.0755 -0.8125
 1753TIP3    H2 5217   8.248   3.841   6.432  0.3817 -0.6694  0.2631
 1754TIP3   OH2 5218   0.567   7.212   5.527  0.0593 -0.0342 -0.9035
 1754TIP3    H1 5219   0.642   7.153   5.520  0.9841  1.2614 -2.8054
 1754TIP3    H2 5220   0.495   7.165   5.487 -0.0688 -1.0897  0.4861
 1755TIP3   OH2 5221   0.169   7.026   5.210 -0.0372  0.4363 -0.4075
 1755TIP3    H1 5222   0.197   7.014   5.120 -1.2557 -0.5876 -0.6718
 1755TIP3    H2 5223   0.078   7.055   5.203 -0.3973 -0.4371  0.5044
 1756TIP3   OH2 5224   6.685   1.967   6.158 -0.2471 -0.3158  0.0048
 1756TIP3    H1 5225   6.752   1.924   6.105 -1.6101 -2.1918 -0.3325
 1756TIP3    H2 5226   6.642   2.028   6.098  1.2279  1.0390  0.2781
 1757TIP3   OH2 5227   7.728   0.642   0.255  0.2692  0.0707 -0.1018
 1757TIP3    H1 5228   7.667   0.686   0.196  1.6960  0.5791 -1.2604
 1757TIP3    H2 5229   7.674   0.577   0.301 -1.6174  2.0551  0.6675
 1758TIP3   OH2 5230   0.330   4.012   6.513 -0.3217 -0.1040 -0.2416
 1758TIP3    H1 5231   0.391   4.026   6.440  1.3338  1.1766  1.2867
 1758TIP3    H2 5232   0.376   3.950   6.570 -1.2429 -0.4644  0.1216
 1759TIP3   OH2 5233   1.693   0.698   0.663  0.0629 -0.0224 -0.4027
 1759TIP3    H1 5234   1.617   0.750   0.691  1.1849  0.9532  1.0220
 1759TIP3    H2 5235   1.660   0.608   0.658 -1.2707  0.4307 -0.2018
 1760TIP3   OH2 5236   2.911   1.770   4.411  0.1438  0.5267 -0.6939
 1760TIP3    H1 5237   2.884   1.831   4.480  0.8385 -0.9704  0.9738
 1760TIP3    H2 5238   3.001   1.796   4.390 -0.3206  1.4632 -1.6384
 1761TIP3   OH2 5239   0.347   4.790   0.726  0.2230 -0.8578 -0.0529
 1761TIP3    H1 5240   0.318   4.735   0.798  0.6773  0.8007  1.4758
 1761TIP3    H2 5241   0.316   4.878   0.749  0.4867 -0.2629 -1.8241
 1762TIP3   OH2 5242   2.316   0.413   2.798  0.0613  0.1415  0.5034
 1762TIP3    H1 5243   2.398   0.407   2.751  1.4310  2.8785  2.2469
 1762TIP3    H2 5244   2.336   0.382   2.886 -0.0441  2.8600  1.5833
 1763TIP3   OH2 5245   3.531   1.399   1.830  0.0419  0.4121  0.2626
 1763TIP3    H1 5246   3.441   1.375   1.810 -0.0736  1.1375 -0.1103
 1763TIP3    H2 5247   3.584   1.339   1.778 -0.2058 -0.5730  1.1213
 1764TIP3   OH2 5248   1.847   3.063   6.588  0.1681 -0.0556  0.0242
 1764TIP3    H1 5249   1.757   3.056   6.557 -0.3707 -1.1676  1.7558
 1764TIP3    H2 5250   1.886   2.978   6.569  1.0736  0.5957 -1.2303
 1765TIP3   OH2 5251   3.615   6.533   0.936  0.0843  0.0956 -0.1822
 1765TIP3    H1 5252   3.645   6.548   0.846 -0.0791  1.8450  0.0125
 1765TIP3    H2 5253   3.639   6.613   0.983 -0.4127 -0.5186  1.1830
 1766TIP3   OH2 5254   0.118   0.423   4.921  0.2536  0.5245  0.2864
 1766TIP3    H1 5255   0.028   0.441   4.947 -0.1548 -2.2331  1.0914
 1766TIP3    H2 5256   0.170   0.439   5.000  0.1264 -0.0563  0.4955
 1767TIP3   OH2 5257   4.818   3.450   4.741  0.0342  0.0697 -0.7850
 1767TIP3    H1 5258   4.725   3.469   4.752  0.0865 -0.4943  0.8886
 1767TIP3    H2 5259   4.821   3.387   4.669 -0.5815  2.2404 -2.8468
 1768TIP3   OH2 5260   4.666   5.501   1.985 -0.1873  0.7920  0.8686
 1768TIP3    H1 5261   4.718   5.572   1.947  0.8767 -0.3010  0.2287
 1768TIP3    H2 5262   4.726   5.426   1.987 -1.1473  0.0313  1.9610
 1769TIP3   OH2 5263   6.316   7.062   4.878 -0.2803  0.1706 -0.5213
 1769TIP3    H1 5264   6.291   7.141   4.926  0.4508  1.0741 -1.5783
 1769TIP3    H2 5265   6.390   7.089   4.824  1.0686 -1.6576  0.2968
 1770TIP3   OH2 5266   3.488   4.439   5.211  0.0777 -0.1960 -0.4188
 1770TIP3    H1 5267   3.509   4.513   5.154 -0.9478  0.7501  0.3927
 1770TIP3    H2 5268   3.566   4.430   5.267  0.3853 -0.0237 -0.8142
 1771TIP3   OH2 5269   0.491   4.302   6.311 -0.0120  0.1192  0.3295
 1771TIP3    H1 5270   0.506   4.333   6.222  0.4453 -1.5424 -0.1908
 1771TIP3    H2 5271   0.578   4.304   6.352 -0.3032  1.3855  0.9291
 1772TIP3   OH2 5272   3.363   0.504   0.481 -0.0294 -0.9186 -0.5757
 1772TIP3    H1 5273   3.317   0.576   0.438  0.2099 -0.6374 -0.3612
 1772TIP3    H2 5274   3.294   0.453   0.523 -0.0151  0.6225  1.4842
 1773TIP3   OH2 5275   0.224   2.214   4.311  0.1127 -0.8309  0.4569
 1773TIP3    H1 5276   0.169   2.137   4.320 -3.0635  1.3487  1.2176
 1773TIP3    H2 5277   0.290   2.206   4.380 -1.9346 -1.5488  2.4399
 1774TIP3   OH2 5278   3.203   1.282   4.949 -0.1749 -0.2969 -0.1997
 1774TIP3    H1 5279   3.116   1.322   4.954 -1.1987 -1.5418 -4.4105
 1774TIP3    H2 5280   3.261   1.354   4.925 -0.6337  0.0057 -0.4293
 1775TIP3   OH2 5281   6.584   5.335   2.648 -0.0901 -0.9672  0.0623
 1775TIP3    H1 5282   6.509   5.382   2.611 -0.8110 -0.0455  2.4536
 1775TIP3    H2 5283   6.549   5.294   2.727  1.8885 -0.6413  1.1653
 1776TIP3   OH2 5284   0.817   5.279   4.605 -0.0421  0.0278  0.0939
 1776TIP3    H1 5285   0.761   5.331   4.547 -0.8714 -1.0299 -0.0769
 1776TIP3    H2 5286   0.873   5.228   4.546 -2.4483 -2.7920  0.0563
 1777TIP3   OH2 5287   7.903   5.150   5.502 -0.4894  0.1249 -0.2763
 1777TIP3    H1 5288   7.869   5.095   5.573 -1.4478  0.1178 -0.7289
 1777TIP3    H2 5289   7.825   5.187   5.460  0.0167 -0.3170 -1.6841
 1778TIP3   OH2 5290   4.830   1.012   1.727  0.5783 -0.2017 -0.0703
 1778TIP3    H1 5291   4.822   0.917   1.721  1.7805 -0.2593 -1.3897
 1778TIP3    H2 5292   4.836   1.030   1.821  2.3812 -1.6615  0.1623
 1779TIP3   OH2 5293   3.412   7.690   2.988 -0.4335 -0.2059 -0.0948
 1779TIP3    H1 5294   3.452   7.723   2.907  0.2976  1.8770  1.0263
 1779TIP3    H2 5295   3.330   7.739   2.996 -1.4916 -1.8231 -0.5194
 1780TIP3   OH2 5296   0.951   4.884   6.293 -0.1983  0.2649 -0.1238
 1780TIP3    H1 5297   0.975   4.953   6.355  2.5276 -0.4771 -0.2164
 1780TIP3    H2 5298   0.933   4.931   6.211  2.5488  0.9279 -0.4455
 1781TIP3   OH2 5299   3.411   0.371   3.516  0.7305  0.4816  0.2721
 1781TIP3    H1 5300   3.468   0.415   3.579  0.2924  2.6770 -0.7620
 1781TIP3    H2 5301   3.323   0.405   3.535  0.0573 -1.2887  0.5220
 1782TIP3   OH2 5302   6.485   3.307   4.113 -0.4642  0.1199 -0.0244
 1782TIP3    H1 5303   6.522   3.271   4.032  0.8731 -1.1596  1.0892
 1782TIP3    H2 5304   6.556   3.358   4.152 -1.0077  0.5142  0.4715
 1783TIP3   OH2 5305   2.510   6.828   6.551  0.0218  0.0468 -0.2543
 1783TIP3    H1 5306   2.529   6.859   6.640  1.2635 -0.7583 -0.2028
 1783TIP3    H2 5307   2.492   6.734   6.563  2.7419 -0.6664 -1.0910
 1784TIP3   OH2 5308   3.840   3.660   0.926  0.1443 -0.0813 -0.1787
 1784TIP3    H1 5309   3.852   3.686   1.018  0.8053 -0.9433 -0.0134
 1784TIP3    H2 5310   3.798   3.736   0.886  0.4057  0.5511  0.6993
 1785TIP3   OH2 5311   1.149   0.462   3.587 -0.0075  0.2090 -0.5274
 1785TIP3    H1 5312   1.127   0.491   3.498 -0.5144 -1.1085 -0.8668
 1785TIP3    H2 5313   1.080   0.498   3.642  1.1805  2.3935 -0.3685
 1786TIP3   OH2 5314   0.305   2.721   4.972 -0.2184  0.7919 -0.6125
 1786TIP3    H1 5315   0.268   2.779   4.906  0.3656 -0.6091 -2.2594
 1786TIP3    H2 5316   0.399   2.720   4.953  0.0060  0.5833  0.4304
 1787TIP3   OH2 5317   6.443   0.184   2.707 -0.8984 -0.3415 -0.5514
 1787TIP3    H1 5318   6.535   0.172   2.684 -1.4474 -1.4961 -2.3807
 1787TIP3    H2 5319   6.427   0.123   2.778 -0.3834 -0.5188 -0.5879
 1788TIP3   OH2 5320   8.045   6.375   1.060  0.1263 -0.2703  0.3887
 1788TIP3    H1 5321   7.980   6.421   1.113 -1.9671 -0.6876 -1.6503
 1788TIP3    H2 5322   8.003   6.291   1.039  2.2146 -1.4648  0.7243
 1789TIP3   OH2 5323   7.971   1.758   2.059 -0.1784  0.0744 -0.1677
 1789TIP3    H1 5324   7.943   1.678   2.104  1.5593 -0.6369 -0.2807
 1789TIP3    H2 5325   7.968   1.826   2.127  5.0053 -1.4444  2.1479
 1790TIP3   OH2 5326   6.095   1.149   5.511 -0.0159  0.4249  0.1204
 1790TIP3    H1 5327   6.127   1.208   5.579 -0.1708  0.8989 -0.2090
 1790TIP3    H2 5328   6.029   1.095   5.554 -1.2249  1.7486  0.0069
 1791TIP3   OH2 5329   2.861   7.798   4.928  0.6119 -0.0834  0.5997
 1791TIP3    H1 5330   2.944   7.844   4.943  0.4211  0.7072 -0.5696
 1791TIP3    H2 5331   2.884   7.726   4.869  0.3538  0.6466 -0.4204
 1792TIP3   OH2 5332   2.014   1.185   5.568  0.5901 -0.5649 -0.0351
 1792TIP3    H1 5333   1.953   1.259   5.573 -2.2975 -2.8134  0.6964
 1792TIP3    H2 5334   2.031   1.162   5.660  1.0432 -1.1016 -0.2477
 1793TIP3   OH2 5335   0.205   3.266   1.396  0.1698  0.2489  0.1962
 1793TIP3    H1 5336   0.125   3.271   1.345 -0.5523 -1.0553  1.1588
 1793TIP3    H2 5337   0.243   3.354   1.389 -0.0599  0.2198 -2.2570
 1794TIP3   OH2 5338   7.402   1.967   3.356 -0.3091  0.0035 -0.4236
 1794TIP3    H1 5339   7.412   2.058   3.384 -1.6300  0.2579 -0.7074
 1794TIP3    H2 5340   7.463   1.918   3.411  2.2954  1.3163 -1.9750
 1795TIP3   OH2 5341   0.555   7.574   4.747 -0.7027 -0.1146  0.3224
 1795TIP3    H1 5342   0.539   7.661   4.783  1.0329  0.5878 -0.4820
 1795TIP3    H2 5343   0.637   7.583   4.698 -1.1439 -1.8861 -0.8423
 1796TIP3   OH2 5344   8.246   7.232   3.497 -0.6152  0.1686  0.3247
 1796TIP3    H1 5345   8.184   7.177   3.449 -0.3731  0.5441 -0.4364
 1796TIP3    H2 5346   8.200   7.257   3.577 -0.7896 -0.9966  0.6061
 1797TIP3   OH2 5347   1.869   7.221   2.546  0.0422 -0.2438  0.4141
 1797TIP3    H1 5348   1.866   7.222   2.450  1.1399 -2.4514  0.2865
 1797TIP3    H2 5349   1.960   7.239   2.568  0.1050 -1.1064  0.9445
 1798TIP3   OH2 5350   3.941   0.115   6.291  0.1530 -0.4197  0.4172
 1798TIP3    H1 5351   3.984   0.059   6.226 -2.5851  0.1203 -2.0565
 1798TIP3    H2 5352   3.935   0.201   6.248 -0.6688  0.2849  1.8815
 1799TIP3   OH2 5353   6.482   3.762   6.358  0.1127  0.6820 -0.2276
 1799TIP3    H1 5354   6.461   3.813   6.436  0.1450 -0.3909  0.4915
 1799TIP3    H2 5355   6.488   3.827   6.288 -1.1228  1.5167  0.4180
 1800TIP3   OH2 5356   0.885   3.224   1.391 -0.1788 -0.0453 -0.0488
 1800TIP3    H1 5357   0.940   3.301   1.379 -0.4378  0.2823  0.7845
 1800TIP3    H2 5358   0.946   3.151   1.400  0.0573 -0.2882 -2.8065
 1801TIP3   OH2 5359   1.145   6.372   5.048 -0.5124 -0.0330 -0.4421
 1801TIP3    H1 5360   1.172   6.455   5.087  0.3679  0.2505 -1.6167
 1801TIP3    H2 5361   1.154   6.308   5.118 -1.2554  0.8537  0.4957
 1802TIP3   OH2 5362   1.789   3.466   1.367  0.0877 -0.0470  0.1511
 1802TIP3    H1 5363   1.762   3.445   1.277  1.5739  0.5612 -0.4723
 1802TIP3    H2 5364   1.750   3.397   1.421  0.2171 -1.1547 -1.1242
 1803TIP3   OH2 5365   7.350   1.975   5.151 -0.0913 -0.2997 -0.4001
 1803TIP3    H1 5366   7.382   1.979   5.061  0.1151  0.7684 -0.2939
 1803TIP3    H2 5367   7.255   1.983   5.144 -0.0685 -0.1286 -0.5210
 1804TIP3   OH2 5368   3.647   0.623   4.511  0.8829 -0.3812  0.3765
 1804TIP3    H1 5369   3.714   0.565   4.474  1.6304 -0.5813  1.9435
 1804TIP3    H2 5370   3.622   0.680   4.438  2.4746 -0.5601 -0.3660
 1805TIP3   OH2 5371   2.554   0.263   6.543 -0.4651  0.7387 -0.2313
 1805TIP3    H1 5372   2.543   0.191   6.481  1.2293 -0.5634  0.8940
 1805TIP3    H2 5373   2.495   0.242   6.615 -1.4435  1.5601 -0.7605
 1806TIP3   OH2 5374   3.567   0.299   2.492 -0.8929 -0.4235  0.3089
 1806TIP3    H1 5375   3.526   0.225   2.447  0.0849 -0.1963 -1.0242
 1806TIP3    H2 5376   3.630   0.333   2.429  1.1621 -0.5779  2.1705
 1807TIP3   OH2 5377   7.564   5.304   1.686 -0.8606 -0.2243 -0.6681
 1807TIP3    H1 5378   7.630   5.361   1.726 -0.1748 -1.9538  0.8153
 1807TIP3    H2 5379   7.583   5.217   1.721 -2.7448 -1.1261 -1.7231
 1808TIP3   OH2 5380   6.260   4.459   5.602 -0.3131  0.0563  0.1633
 1808TIP3    H1 5381   6.229   4.422   5.519  1.0778  1.0593 -0.8399
 1808TIP3    H2 5382   6.180   4.485   5.647 -1.1486 -1.3363 -0.4426
 1809TIP3   OH2 5383   5.903   0.091   5.236 -0.6936  0.3578  0.0443
 1809TIP3    H1 5384   5.986   0.085   5.283  0.2019 -1.3989 -1.5978
 1809TIP3    H2 5385   5.839   0.112   5.303  0.8302  0.1805  1.6492
 1810TIP3   OH2 5386   3.718   7.017   2.115  0.3730  0.5302  0.0602
 1810TIP3    H1 5387   3.628   7.033   2.087 -0.0908 -1.1879  0.4350
 1810TIP3    H2 5388   3.744   7.097   2.160 -1.4961  0.5599  1.1986
 1811TIP3   OH2 5389   7.435   3.498   6.023 -0.4327  0.3182  0.1158
 1811TIP3    H1 5390   7.478   3.575   5.988 -0.9064  0.6478  0.2508
 1811TIP3    H2 5391   7.506   3.440   6.048 -0.0468  1.0719  0.8221
 1812TIP3   OH2 5392   0.682   6.893   0.239  0.0027  1.0611 -0.0160
 1812TIP3    H1 5393   0.675   6.955   0.166  0.5145  0.7200 -0.3577
 1812TIP3    H2 5394   0.599   6.845   0.237 -0.8791  2.4389  0.9218
 1813TIP3   OH2 5395   2.093   6.068   2.327 -0.3143  0.4049 -0.1668
 1813TIP3    H1 5396   2.042   5.992   2.354 -0.0800  0.5084  0.6085
 1813TIP3    H2 5397   2.127   6.104   2.409  0.2076  0.8964 -0.5889
 1814TIP3   OH2 5398   7.774   1.826   0.776 -0.1735  0.5264 -0.4706
 1814TIP3    H1 5399   7.859   1.869   0.787  0.0271  0.3362 -1.2791
 1814TIP3    H2 5400   7.753   1.793   0.864 -0.2390  2.0960  0.1349
 1815TIP3   OH2 5401   6.654   4.320   0.703  0.2144 -0.0237  0.5081
 1815TIP3    H1 5402   6.741   4.353   0.682 -0.0502  0.1508 -0.3870
 1815TIP3    H2 5403   6.595   4.377   0.654 -0.3441 -0.6984  0.3788
 1816TIP3   OH2 5404   1.047   6.660   6.195  0.0592 -0.3507 -0.4428
 1816TIP3    H1 5405   1.001   6.713   6.130 -0.4612  1.1745  1.1035
 1816TIP3    H2 5406   1.070   6.721   6.264  0.8735 -1.8652  0.6796
 1817TIP3   OH2 5407   3.573   3.769   0.230  0.7214 -0.1028  0.0329
 1817TIP3    H1 5408   3.617   3.686   0.245  1.8018  0.2088 -1.1977
 1817TIP3    H2 5409   3.483   3.754   0.258  1.2046 -1.2700  1.0484
 1818TIP3   OH2 5410   4.210   0.448   1.341  0.0476  0.3701  0.3148
 1818TIP3    H1 5411   4.159   0.461   1.261 -1.4920 -1.5656  0.9053
 1818TIP3    H2 5412   4.262   0.529   1.350 -1.3434  1.5317 -1.4482
 1819TIP3   OH2 5413   0.042   7.146   1.823 -0.0288 -0.3025 -0.5720
 1819TIP3    H1 5414   0.125   7.142   1.776 -0.1424  1.4361 -1.0019
 1819TIP3    H2 5415   0.022   7.055   1.845  2.0781 -0.7507 -0.2922
 1820TIP3   OH2 5416   1.360   4.574   4.457  0.3350 -0.3231  0.0062
 1820TIP3    H1 5417   1.314   4.633   4.518 -0.8931  0.0965 -1.2576
 1820TIP3    H2 5418   1.447   4.613   4.447  0.0100  0.4951  0.2668
 1821TIP3   OH2 5419   3.175   3.097   5.797  0.2312  0.2318  0.2257
 1821TIP3    H1 5420   3.226   3.030   5.752 -0.7371 -0.9785  0.8650
 1821TIP3    H2 5421   3.084   3.072   5.781 -0.1473  0.0170  2.4419
 1822TIP3   OH2 5422   3.358   1.057   2.151  0.0994 -0.7405  0.3497
 1822TIP3    H1 5423   3.388   1.148   2.143  1.4641 -1.1432  0.6157
 1822TIP3    H2 5424   3.276   1.054   2.101 -0.0608  0.6692  0.4824
 1823TIP3   OH2 5425   8.011   2.626   0.317 -0.8273 -0.1893 -0.2739
 1823TIP3    H1 5426   8.061   2.668   0.247  2.1510 -1.4560  0.9123
 1823TIP3    H2 5427   8.029   2.680   0.394 -0.1177 -1.4169  0.4512
 1824TIP3   OH2 5428   5.086   6.734   5.603 -0.5409 -0.5418  0.3111
 1824TIP3    H1 5429   5.107   6.766   5.691 -0.2537 -1.6453  0.6592
 1824TIP3    H2 5430   4.991   6.737   5.598 -0.5417 -0.1368  0.5204
 1825TIP3   OH2 5431   0.392   4.596   1.528  0.1615  0.0532 -0.4648
 1825TIP3    H1 5432   0.484   4.595   1.501  0.0431  0.9933 -0.9710
 1825TIP3    H2 5433   0.390   4.655   1.603  0.2444 -1.3721  0.6856
 1826TIP3   OH2 5434   5.118   0.958   0.805 -0.3864  0.0852  0.1802
 1826TIP3    H1 5435   5.093   1.032   0.750 -1.4415 -0.4827 -0.1274
 1826TIP3    H2 5436   5.078   0.882   0.763  2.4434 -1.0429 -0.7811
 1827TIP3   OH2 5437   5.337   2.231   2.299 -0.3358 -0.1750  0.0396
 1827TIP3    H1 5438   5.279   2.283   2.243 -0.2108  0.6717  0.6790
 1827TIP3    H2 5439   5.381   2.296   2.354 -2.4946 -1.0747  3.0922
 1828TIP3   OH2 5440   6.513   6.285   5.373  0.4996 -0.3454 -0.0406
 1828TIP3    H1 5441   6.438   6.337   5.344 -0.7913 -0.5376  2.6759
 1828TIP3    H2 5442   6.587   6.320   5.324 -0.8318  1.9819 -0.5332
 1829TIP3   OH2 5443   8.226   0.582   3.166  0.1037 -1.0178  0.5513
 1829TIP3    H1 5444   8.281   0.527   3.111 -0.6219  1.1754 -2.6191
 1829TIP3    H2 5445   8.284   0.650   3.200 -0.0492 -0.3640 -0.4467
 1830TIP3   OH2 5446   7.720   6.219   4.596 -0.1407  0.5353  0.5208
 1830TIP3    H1 5447   7.775   6.158   4.546 -1.1515 -0.5351  0.6705
 1830TIP3    H2 5448   7.773   6.298   4.604  1.8700 -0.8414  1.6482
 1831TIP3   OH2 5449   3.532   2.753   5.479 -0.3554  0.1774 -0.2537
 1831TIP3    H1 5450   3.479   2.829   5.503 -0.9034 -0.4080  0.4202
 1831TIP3    H2 5451   3.511   2.736   5.387  0.3031  1.2632 -0.6207
 1832TIP3   OH2 5452   7.434   4.461   3.605  0.9735  0.7455 -0.3446
 1832TIP3    H1 5453   7.441   4.366   3.606  0.5879  0.7050 -0.9861
 1832TIP3    H2 5454   7.456   4.488   3.695  0.4682  0.0124  0.0074
 1833TIP3   OH2 5455   7.405   6.069   0.534  0.0605  0.5183  0.2090
 1833TIP3    H1 5456   7.492   6.059   0.574  1.3272 -0.0117 -2.4452
 1833TIP3    H2 5457   7.398   5.994   0.476 -3.6257 -1.2890  2.5985
 1834TIP3   OH2 5458   5.284   3.028   4.502  0.7693  0.4204  0.2144
 1834TIP3    H1 5459   5.335   3.081   4.564 -0.2874  0.1253  1.3679
 1834TIP3    H2 5460   5.350   2.979   4.452  1.7368  2.2031 -0.3447
 1835TIP3   OH2 5461   1.551   1.658   6.249  0.1442  0.0869  0.1829
 1835TIP3    H1 5462   1.627   1.612   6.283  0.0173  0.3384  0.8111
 1835TIP3    H2 5463   1.552   1.640   6.155  0.1441 -1.1279  0.4069
 1836TIP3   OH2 5464   5.155   6.716   0.243 -0.0109  0.0624  0.0188
 1836TIP3    H1 5465   5.065   6.749   0.241 -0.5925 -1.2772  1.7337
 1836TIP3    H2 5466   5.151   6.633   0.195  0.0377 -0.5310  1.0135
 1837TIP3   OH2 5467   1.695   0.553   2.440  0.3714 -0.2971 -0.1410
 1837TIP3    H1 5468   1.731   0.627   2.489  0.0148 -1.6800  2.3744
 1837TIP3    H2 5469   1.603   0.549   2.468  0.6260 -2.2581  0.6064
 1838TIP3   OH2 5470   5.207   1.197   5.699  0.1495 -0.3771  0.1791
 1838TIP3    H1 5471   5.155   1.257   5.752  1.4584  1.5202 -0.5881
 1838TIP3    H2 5472   5.298   1.226   5.712  0.6540 -1.0316 -1.6202
 1839TIP3   OH2 5473   6.278   3.301   2.562  0.8722 -0.2625  0.0468
 1839TIP3    H1 5474   6.351   3.250   2.597 -0.5223 -1.9433  0.6574
 1839TIP3    H2 5475   6.261   3.263   2.475 -0.9394 -1.7660  0.9828
 1840TIP3   OH2 5476   6.285   6.421   6.518  0.1137  0.0869 -0.1155
 1840TIP3    H1 5477   6.213   6.372   6.558 -0.1857 -0.7658 -1.6356
 1840TIP3    H2 5478   6.273   6.410   6.424  1.6072  0.8575 -0.4345
 1841TIP3   OH2 5479   1.631   3.007   4.915  0.0165 -0.4928 -0.0134
 1841TIP3    H1 5480   1.648   3.098   4.941  1.0329 -0.6959  0.0797
 1841TIP3    H2 5481   1.705   2.958   4.951 -0.3424 -1.3069 -0.3624
 1842TIP3   OH2 5482   3.459   7.549   3.296  0.1239 -0.2632  0.2983
 1842TIP3    H1 5483   3.420   7.509   3.373  0.4595 -2.6710 -0.6635
 1842TIP3    H2 5484   3.385   7.579   3.243 -0.1109  1.1768  1.3977
 1843TIP3   OH2 5485   2.546   4.303   5.050 -0.3247  0.4922 -0.4716
 1843TIP3    H1 5486   2.506   4.272   5.131 -0.0157  0.4178 -0.3493
 1843TIP3    H2 5487   2.601   4.231   5.021  1.3025  1.3244  0.4253
 1844TIP3   OH2 5488   4.209   0.008   2.869 -0.3742  0.0872  0.1892
 1844TIP3    H1 5489   4.218  -0.057   2.799  1.5845  0.9200 -0.3844
 1844TIP3    H2 5490   4.126   0.053   2.850 -1.4110 -1.7174  0.2018
 1845TIP3   OH2 5491   7.783   3.738   4.521 -0.0639 -0.3687  0.0710
 1845TIP3    H1 5492   7.862   3.762   4.570  0.4261 -0.7504 -0.5060
 1845TIP3    H2 5493   7.812   3.736   4.430 -1.6093  3.0856 -0.6468
 1846TIP3   OH2 5494   1.135   5.799   1.571 -0.4521 -0.1907  0.2997
 1846TIP3    H1 5495   1.216   5.836   1.605 -1.4115  1.7369  0.6184
 1846TIP3    H2 5496   1.088   5.873   1.533 -2.1214 -1.2301  0.2032
 1847TIP3   OH2 5497   3.894   0.785   6.320 -0.1943 -0.4072  0.1970
 1847TIP3    H1 5498   3.812   0.796   6.368 -0.1849 -1.3038  0.4414
 1847TIP3    H2 5499   3.947   0.860   6.347 -0.0955 -1.0066  1.8318
 1848TIP3   OH2 5500   5.367   5.868   2.340 -0.3036 -0.0564  0.1564
 1848TIP3    H1 5501   5.391   5.952   2.377  0.3240  0.8788 -2.1597
 1848TIP3    H2 5502   5.450   5.823   2.323 -0.4608  0.0956 -1.1847
 1849TIP3   OH2 5503   6.072   7.181   0.569  0.6137  0.7114  0.9382
 1849TIP3    H1 5504   6.024   7.142   0.642 -1.6864  0.0224 -0.8092
 1849TIP3    H2 5505   6.149   7.125   0.558 -0.7245 -1.1962  0.8040
 1850TIP3   OH2 5506   1.839   4.181   2.555  0.2177 -0.2157  0.6400
 1850TIP3    H1 5507   1.813   4.272   2.567 -0.0310 -0.2629  0.4695
 1850TIP3    H2 5508   1.792   4.134   2.623 -0.9455 -0.4409 -0.2959
 1851TIP3   OH2 5509   0.705   7.259   1.791  0.4117  0.7618  0.0710
 1851TIP3    H1 5510   0.749   7.176   1.807 -0.1777  0.2342 -0.9034
 1851TIP3    H2 5511   0.620   7.250   1.834 -1.1849 -0.6711 -3.0381
 1852TIP3   OH2 5512   5.202   4.833   6.556  0.2903  0.3442 -0.1360
 1852TIP3    H1 5513   5.270   4.767   6.542  0.0250  0.1510 -0.5314
 1852TIP3    H2 5514   5.245   4.916   6.537  0.7572  0.3411  0.8166
 1853TIP3   OH2 5515   5.906   0.182   6.504  0.0928  0.3641 -0.0947
 1853TIP3    H1 5516   5.950   0.267   6.511  0.5844  0.0345  0.9763
 1853TIP3    H2 5517   5.830   0.189   6.562 -0.8709  0.6563 -1.3441
 1854TIP3   OH2 5518   3.154   5.960   5.655 -0.6586  0.1601  0.3130
 1854TIP3    H1 5519   3.064   5.966   5.685 -0.9931  0.7045 -0.7322
 1854TIP3    H2 5520   3.165   6.036   5.596  0.6263  0.3822  0.8067
 1855TIP3   OH2 5521   2.043   6.164   0.633  0.5041 -0.0057  0.3219
 1855TIP3    H1 5522   2.000   6.182   0.717  0.3010  0.9425  0.0194
 1855TIP3    H2 5523   2.136   6.175   0.651  0.6033 -1.3984  0.8094
 1856TIP3   OH2 5524   2.958   0.874   1.451 -0.3023  0.2095  0.0124
 1856TIP3    H1 5525   2.997   0.788   1.439 -0.1544  0.3497 -0.5563
 1856TIP3    H2 5526   2.995   0.927   1.380 -1.6380  0.3080 -0.6380
 1857TIP3   OH2 5527   4.458   4.990   5.707 -0.0818  0.5475 -0.2286
 1857TIP3    H1 5528   4.529   5.054   5.711  0.4622 -0.1019  1.4823
 1857TIP3    H2 5529   4.403   5.010   5.783  0.1041 -0.9997  0.3396
 1858TIP3   OH2 5530   7.398   3.317   6.732  0.0652 -0.1537  0.2225
 1858TIP3    H1 5531   7.462   3.324   6.803 -1.4338 -0.8400  1.7244
 1858TIP3    H2 5532   7.430   3.244   6.679  2.2258  1.5484 -0.9955
 1859TIP3   OH2 5533   8.143   7.370   6.582  0.3513 -0.4971  0.0798
 1859TIP3    H1 5534   8.050   7.382   6.603  0.8887  1.4108  1.6855
 1859TIP3    H2 5535   8.143   7.317   6.503 -2.1583  0.7071 -0.8390
 1860TIP3   OH2 5536   0.299   5.962   4.681  0.0638 -0.2942 -0.2454
 1860TIP3    H1 5537   0.273   5.886   4.733 -1.1580  0.5598  0.4426
 1860TIP3    H2 5538   0.394   5.957   4.677  0.1106 -0.9714  1.1541
 1861TIP3   OH2 5539   3.476   7.270   4.710 -0.2378  0.0720  0.4676
 1861TIP3    H1 5540   3.503   7.216   4.785 -0.9417  0.0805  0.7429
 1861TIP3    H2 5541   3.543   7.254   4.644 -0.5206 -1.3117  0.4673
 1862TIP3   OH2 5542   3.796   3.978   4.249  0.6307 -0.1415 -0.2885
 1862TIP3    H1 5543   3.864   3.962   4.184  3.1502  0.8035  1.9621
 1862TIP3    H2 5544   3.831   3.941   4.330 -1.7876 -0.0541  0.8793
 1863TIP3   OH2 5545   7.386   3.509   0.339  0.1376 -0.4815 -0.2287
 1863TIP3    H1 5546   7.472   3.504   0.296  0.6469  0.5380  0.6218
 1863TIP3    H2 5547   7.334   3.442   0.295  0.4187  0.9128 -2.8870
 1864TIP3   OH2 5548   5.198   4.235   6.784  0.5236  0.2296  0.3495
 1864TIP3    H1 5549   5.187   4.257   6.692  2.0817  0.1686  0.1176
 1864TIP3    H2 5550   5.225   4.143   6.784 -2.0256 -0.6152  1.0717
 1865TIP3   OH2 5551   5.795   4.197   1.790 -0.0890 -0.3123  0.6021
 1865TIP3    H1 5552   5.763   4.125   1.846  0.1619 -0.7255  0.2237
 1865TIP3    H2 5553   5.883   4.216   1.824 -1.2255  1.8136  2.5853
 1866TIP3   OH2 5554   7.536   0.204   6.144  0.2661 -0.3053  0.3239
 1866TIP3    H1 5555   7.583   0.250   6.075  0.5901 -0.0214  0.7273
 1866TIP3    H2 5556   7.532   0.267   6.216  3.4103 -1.8594  2.0436
 1867TIP3   OH2 5557   1.199   1.017   4.568  0.3242 -0.0820  0.2878
 1867TIP3    H1 5558   1.226   1.106   4.590 -1.8789  0.5837  0.5186
 1867TIP3    H2 5559   1.128   0.998   4.629 -0.4383 -1.3124 -0.9303
 1868TIP3   OH2 5560   7.220   1.271   1.329 -0.6291  0.1694 -0.0862
 1868TIP3    H1 5561   7.304   1.312   1.309  0.1274 -1.1729  0.2329
 1868TIP3    H2 5562   7.172   1.273   1.246 -0.8624  2.1793  0.0588
 1869TIP3   OH2 5563   0.023   0.986   0.985 -0.0460 -0.2751  0.7755
 1869TIP3    H1 5564  -0.036   0.952   0.918  1.1030 -0.3658 -0.2230
 1869TIP3    H2 5565   0.017   0.923   1.057 -0.7074 -0.5921  0.4474
 1870TIP3   OH2 5566   2.173   6.446   0.086  0.1652 -0.3967 -0.0771
 1870TIP3    H1 5567   2.090   6.495   0.089 -0.0222 -0.5862 -1.5727
 1870TIP3    H2 5568   2.152   6.367   0.036  1.5186  0.1164 -1.5107
 1871TIP3   OH2 5569   2.839   5.424   2.677  0.3117  0.4454 -0.7061
 1871TIP3    H1 5570   2.744   5.430   2.678  0.2576 -0.1930  0.0226
 1871TIP3    H2 5571   2.859   5.361   2.608  0.1572  0.1255 -0.4643
 1872TIP3   OH2 5572   1.743   1.123   0.161 -0.0986  0.4682  0.3144
 1872TIP3    H1 5573   1.746   1.056   0.229 -1.8818 -0.1306 -0.1595
 1872TIP3    H2 5574   1.687   1.192   0.198  0.1791  0.8495  0.0404
 1873TIP3   OH2 5575   8.076   3.788   6.089  0.3898 -0.0556 -0.2448
 1873TIP3    H1 5576   8.105   3.799   6.180  0.3727 -0.9216 -0.1218
 1873TIP3    H2 5577   7.985   3.758   6.097  0.9238 -1.8546 -0.4712
 1874TIP3   OH2 5578   7.004   1.917   5.578 -0.4639 -0.5657 -0.3170
 1874TIP3    H1 5579   6.957   1.992   5.615 -0.4385 -0.4269 -0.5592
 1874TIP3    H2 5580   7.046   1.875   5.653 -1.0952 -0.7831 -0.0771
 1875TIP3   OH2 5581   4.577   2.640   5.560  0.3147 -0.0440  0.3827
 1875TIP3    H1 5582   4.594   2.660   5.468 -0.9926 -3.7176 -0.8760
 1875TIP3    H2 5583   4.664   2.637   5.600  0.8210  3.0660 -0.2634
 1876TIP3   OH2 5584   8.179   4.498  -0.008  0.4119  0.6520  0.2435
 1876TIP3    H1 5585   8.272   4.521  -0.004  0.5815  0.0673 -0.1393
 1876TIP3    H2 5586   8.172   4.417   0.043 -0.0587  1.1723  1.0404
 1877TIP3   OH2 5587   4.455   6.939   1.725 -0.3462  0.1535  0.5150
 1877TIP3    H1 5588   4.498   6.938   1.810 -2.1537  0.5549  1.4974
 1877TIP3    H2 5589   4.372   6.984   1.741  0.1497  2.1894 -1.9271
 1878TIP3   OH2 5590   6.701   1.858   0.974  0.2768 -0.2714  0.4190
 1878TIP3    H1 5591   6.707   1.931   1.036  3.0659 -0.1009  0.0859
 1878TIP3    H2 5592   6.735   1.782   1.023 -0.0641 -0.7486 -0.0685
 1879TIP3   OH2 5593   1.506   3.986   5.756  0.1103 -0.5422 -0.2496
 1879TIP3    H1 5594   1.490   4.079   5.743  0.7181 -0.5440 -1.1729
 1879TIP3    H2 5595   1.539   3.979   5.845  0.8803  0.2501 -0.4563
 1880TIP3   OH2 5596   5.921   5.637   3.367  0.4282  0.4966 -0.0750
 1880TIP3    H1 5597   5.929   5.692   3.445  1.8878  1.6486 -0.9850
 1880TIP3    H2 5598   5.915   5.698   3.295 -1.9273 -0.5398 -0.8594
 1881TIP3   OH2 5599   7.936   6.075   4.211  0.3688  0.4787  0.3802
 1881TIP3    H1 5600   7.907   5.985   4.228  1.2533 -0.3673 -2.1385
 1881TIP3    H2 5601   7.868   6.112   4.156 -0.1448  1.5223  1.6626
 1882TIP3   OH2 5602   3.794   2.994   3.365 -0.2627 -0.1636 -0.2424
 1882TIP3    H1 5603   3.818   2.904   3.389  3.4512  0.4187 -1.1862
 1882TIP3    H2 5604   3.725   2.983   3.300 -0.3990 -2.2790  0.1733
 1883TIP3   OH2 5605   1.597   6.268   4.857 -0.5477 -0.2842 -0.0710
 1883TIP3    H1 5606   1.658   6.321   4.806 -1.1470  0.4813 -0.0255
 1883TIP3    H2 5607   1.545   6.332   4.906  0.4411 -1.0266  2.0281
 1884TIP3   OH2 5608   2.000   1.243   2.855 -0.4505  0.3546  0.1759
 1884TIP3    H1 5609   1.968   1.304   2.922  3.3366  1.8972  0.7922
 1884TIP3    H2 5610   2.013   1.298   2.777  0.2905 -0.2863 -0.1581
 1885TIP3   OH2 5611   1.052   2.476   0.661 -0.0688 -0.2006  0.3697
 1885TIP3    H1 5612   1.037   2.564   0.695 -1.3997 -0.5017  0.6494
 1885TIP3    H2 5613   1.135   2.481   0.614  0.6049  0.8336  1.6079
 1886TIP3   OH2 5614   6.959   1.809   0.083 -0.2854 -0.2172  0.2007
 1886TIP3    H1 5615   6.885   1.861   0.053  0.1776  0.3285 -0.0111
 1886TIP3    H2 5616   7.011   1.870   0.136 -0.2152 -0.7127  0.7126
 1887TIP3   OH2 5617   0.586   6.545   5.083  0.6255 -0.4212 -0.2652
 1887TIP3    H1 5618   0.614   6.475   5.143  1.2673 -0.8161 -1.0020
 1887TIP3    H2 5619   0.668   6.589   5.058  0.0793  2.0375  1.8600
 1888TIP3   OH2 5620   7.912   5.898   0.434 -0.4214  0.0227 -0.0464
 1888TIP3    H1 5621   7.839   5.841   0.409  1.6356 -1.5294 -3.1581
 1888TIP3    H2 5622   7.873   5.985   0.440 -2.3133 -0.4065 -3.5174
 1889TIP3   OH2 5623   1.843   1.645   0.455 -0.0232 -0.4443  0.0319
 1889TIP3    H1 5624   1.773   1.703   0.427  1.0575  0.9007  0.0123
 1889TIP3    H2 5625   1.923   1.685   0.420  0.8913 -1.2011  1.1653
 1890TIP3   OH2 5626   7.736   5.513   5.890  0.0742  0.1493  0.3442
 1890TIP3    H1 5627   7.804   5.451   5.914 -0.9471 -0.6799  1.1770
 1890TIP3    H2 5628   7.654   5.471   5.916 -0.6795  1.6178  0.4450
 1891TIP3   OH2 5629   6.062   0.095   0.609 -0.3327  0.4503  0.1101
 1891TIP3    H1 5630   6.021   0.045   0.680  2.2346  1.0752  2.2034
 1891TIP3    H2 5631   6.155   0.097   0.632  0.8129 -0.0503 -3.7944
 1892TIP3   OH2 5632   5.492   6.533   3.274 -0.7529  0.7779  0.0776
 1892TIP3    H1 5633   5.428   6.535   3.345  1.0167 -0.8607  1.8323
 1892TIP3    H2 5634   5.450   6.481   3.205 -1.3554 -0.2682  1.1919
 1893TIP3   OH2 5635   5.080   6.989   0.716 -0.1730 -0.0674  0.1743
 1893TIP3    H1 5636   4.991   7.023   0.729 -0.3409 -0.7207  0.8277
 1893TIP3    H2 5637   5.069   6.918   0.654  0.0077  0.3324 -0.3174
 1894TIP3   OH2 5638   3.624   4.448   2.799 -0.5017 -0.2382  0.2432
 1894TIP3    H1 5639   3.538   4.410   2.817 -1.2350  1.1374 -0.2747
 1894TIP3    H2 5640   3.680   4.372   2.782 -1.7168 -1.1356  0.0829
 1895TIP3   OH2 5641   0.801   3.608   2.348 -0.2296  0.1744 -0.2342
 1895TIP3    H1 5642   0.784   3.514   2.359 -0.2308  0.2010 -0.0250
 1895TIP3    H2 5643   0.717   3.645   2.322 -0.5787  0.3643  1.1358
 1896TIP3   OH2 5644   3.424   7.513   1.231  0.4592  0.0501 -0.3398
 1896TIP3    H1 5645   3.357   7.565   1.275  0.2638 -0.4736  0.0011
 1896TIP3    H2 5646   3.507   7.546   1.267  0.2731 -0.9143  1.0800
 1897TIP3   OH2 5647   4.171   3.916   1.519  0.0160  0.2687  0.3634
 1897TIP3    H1 5648   4.166   3.838   1.574  0.1538 -0.0239 -0.0373
 1897TIP3    H2 5649   4.247   3.964   1.552  0.0360  0.1444  0.4973
 1898TIP3   OH2 5650   4.372   0.575   3.127 -0.4844 -0.4727 -0.2636
 1898TIP3    H1 5651   4.320   0.575   3.047 -2.4349 -0.8310  0.9420
 1898TIP3    H2 5652   4.399   0.483   3.138  2.2058  0.0078 -1.9138
 1899TIP3   OH2 5653   1.847   2.278   5.193 -0.2517 -0.4212 -0.4023
 1899TIP3    H1 5654   1.770   2.301   5.141 -0.1054 -0.5475 -0.6732
 1899TIP3    H2 5655   1.811   2.259   5.280 -0.2636  2.0436  0.2129
 1900TIP3   OH2 5656   5.935   6.605   5.930  0.0232 -0.2283  0.8990
 1900TIP3    H1 5657   5.903   6.514   5.925  0.5166 -0.5738  3.0788
 1900TIP3    H2 5658   5.869   6.655   5.883 -0.8736 -1.5772  0.6395
 1901TIP3   OH2 5659   8.032   1.894   2.916 -0.8140 -0.1727 -0.1705
 1901TIP3    H1 5660   8.057   1.857   2.831  0.8440 -1.2847  0.7590
 1901TIP3    H2 5661   8.029   1.819   2.975 -1.1098  0.6905  0.9494
 1902TIP3   OH2 5662   3.407   3.830   1.720 -0.0403  0.6157 -0.3199
 1902TIP3    H1 5663   3.320   3.830   1.762  0.1824  0.3445  0.1473
 1902TIP3    H2 5664   3.407   3.910   1.667 -0.8638  0.2236 -0.9368
 1903TIP3   OH2 5665   3.452   1.320   0.593  0.9962  0.1776  0.4093
 1903TIP3    H1 5666   3.476   1.232   0.567 -0.8210 -0.3047  0.2224
 1903TIP3    H2 5667   3.408   1.357   0.516  1.8856  1.3296  0.4203
 1904TIP3   OH2 5668   4.713   5.798   3.147 -0.1197 -0.4073  0.2972
 1904TIP3    H1 5669   4.755   5.860   3.207 -1.3712  0.3736  0.4046
 1904TIP3    H2 5670   4.635   5.769   3.194 -1.4579  0.6887 -1.1576
 1905TIP3   OH2 5671   8.087   0.722   4.401 -0.0161  0.0387  0.5677
 1905TIP3    H1 5672   8.016   0.673   4.443  0.7389 -1.1632  0.4894
 1905TIP3    H2 5673   8.077   0.811   4.434 -1.6753 -0.0484  0.4019
 1906TIP3   OH2 5674   1.666   2.837   2.784  0.1442  0.3660 -0.0210
 1906TIP3    H1 5675   1.602   2.907   2.794 -0.1777  0.4044 -1.8919
 1906TIP3    H2 5676   1.698   2.820   2.872 -0.8040  1.8898  0.6493
 1907TIP3   OH2 5677   6.012   7.273   0.092 -0.5988  0.2257  0.3414
 1907TIP3    H1 5678   6.054   7.193   0.124 -1.6435 -1.2513 -1.7322
 1907TIP3    H2 5679   6.078   7.342   0.103  0.9531 -1.2483  0.6063
 1908TIP3   OH2 5680   3.042   6.213   0.091 -0.0331 -0.2151 -0.5124
 1908TIP3    H1 5681   2.951   6.193   0.110 -0.0999  1.3219  0.9906
 1908TIP3    H2 5682   3.091   6.173   0.163  0.5778 -1.5053 -1.5961
 1909TIP3   OH2 5683   0.125   1.260   4.639 -0.3418  0.1460  0.6289
 1909TIP3    H1 5684   0.056   1.283   4.577 -0.3858  0.3594  0.7573
 1909TIP3    H2 5685   0.080   1.206   4.705 -0.2793 -0.1442  0.4361
 1910TIP3   OH2 5686   5.492   1.536   6.742 -0.3121  0.2168  0.1681
 1910TIP3    H1 5687   5.418   1.482   6.716  0.0733 -0.4241  0.3701
 1910TIP3    H2 5688   5.470   1.624   6.712 -1.0080 -0.0275 -0.0509
 1911TIP3   OH2 5689   3.818   4.905   3.647 -0.3216  0.2885 -0.0877
 1911TIP3    H1 5690   3.819   5.000   3.659  0.5325  0.3861 -0.8292
 1911TIP3    H2 5691   3.805   4.870   3.735 -2.1094  1.1058  0.0242
 1912TIP3   OH2 5692   7.908   3.720   2.433 -0.2865 -0.1713  0.1464
 1912TIP3    H1 5693   7.963   3.747   2.506 -0.4778 -0.3117  0.3430
 1912TIP3    H2 5694   7.953   3.644   2.395 -1.5634 -1.8447  1.8163
 1913TIP3   OH2 5695   4.920   4.121   3.690  0.6306  0.1806  0.0543
 1913TIP3    H1 5696   5.004   4.167   3.693  0.2684  0.8299  0.4961
 1913TIP3    H2 5697   4.901   4.099   3.781  1.2296 -1.6784 -0.2326
 1914TIP3   OH2 5698   6.437   5.993   0.234 -0.4876 -0.2427  0.0432
 1914TIP3    H1 5699   6.386   5.946   0.301 -1.0898  0.7515  0.3005
 1914TIP3    H2 5700   6.390   6.075   0.221  0.9875  0.6687  0.1960
 1915TIP3   OH2 5701   5.805   7.711   6.407 -0.1640 -0.5226  0.0802
 1915TIP3    H1 5702   5.865   7.774   6.445  0.7779  0.1984 -2.4164
 1915TIP3    H2 5703   5.802   7.639   6.471  1.0986  0.6771  1.5626
 1916TIP3   OH2 5704   5.625   3.481   3.738 -0.1631  0.3775 -0.4874
 1916TIP3    H1 5705   5.658   3.452   3.653  0.0055  0.4897 -0.4597
 1916TIP3    H2 5706   5.650   3.573   3.744 -0.6046  0.5069 -0.5304
 1917TIP3   OH2 5707   3.010   3.205   0.404 -0.3637 -0.9681 -0.0829
 1917TIP3    H1 5708   3.083   3.159   0.448 -0.9560 -1.3475  0.5238
 1917TIP3    H2 5709   2.956   3.238   0.476  1.1115  2.5594 -0.4074
 1918TIP3   OH2 5710   0.578   5.839   3.927  0.2002  0.7637  0.3818
 1918TIP3    H1 5711   0.501   5.853   3.983 -0.3886  0.5897 -0.3714
 1918TIP3    H2 5712   0.639   5.908   3.954  0.8451 -0.6086  2.7419
 1919TIP3   OH2 5713   3.269   1.316   1.739  0.0203  0.1586 -0.1085
 1919TIP3    H1 5714   3.256   1.222   1.741  1.7014 -0.0895  1.7006
 1919TIP3    H2 5715   3.188   1.353   1.773 -0.4760 -0.6251 -0.4138
 1920TIP3   OH2 5716   0.169   5.897   0.667 -0.4040  0.2748  0.0288
 1920TIP3    H1 5717   0.228   5.863   0.599 -1.3851 -0.3979 -0.5158
 1920TIP3    H2 5718   0.083   5.899   0.625 -0.8678  0.7007  0.9796
 1921TIP3   OH2 5719   8.303   1.682   4.290  0.0085 -0.4219  0.3739
 1921TIP3    H1 5720   8.271   1.752   4.232 -2.5236 -0.0032  2.1046
 1921TIP3    H2 5721   8.229   1.621   4.296  0.7246 -1.1759  2.0031
 1922TIP3   OH2 5722   5.135   1.901   2.265  0.6975 -0.1289  0.2405
 1922TIP3    H1 5723   5.103   1.973   2.210  2.1731 -0.4039 -1.0370
 1922TIP3    H2 5724   5.204   1.940   2.318 -0.3064 -0.0131  1.5296
 1923TIP3   OH2 5725   3.365   2.972   5.613 -0.5207 -0.1950  0.0226
 1923TIP3    H1 5726   3.413   3.049   5.582 -1.1079 -0.0687 -0.5746
 1923TIP3    H2 5727   3.427   2.929   5.673  0.4831 -0.2291 -0.9945
 1924TIP3   OH2 5728   7.405   0.866   4.591 -0.0107  0.1234 -0.2138
 1924TIP3    H1 5729   7.314   0.845   4.571  0.6867 -0.9921 -2.4734
 1924TIP3    H2 5730   7.434   0.794   4.647 -0.4784  0.4471  0.4573
 1925TIP3   OH2 5731   0.722   5.063   6.384  0.3635  0.0504 -0.0222
 1925TIP3    H1 5732   0.733   5.113   6.465  0.1287 -1.0093  0.6860
 1925TIP3    H2 5733   0.730   4.972   6.411  0.1559 -0.3254 -1.1809
 1926TIP3   OH2 5734   1.500   5.119   6.377  0.4001  0.2637  0.3518
 1926TIP3    H1 5735   1.407   5.137   6.360  0.3028 -0.2615  0.2811
 1926TIP3    H2 5736   1.546   5.159   6.304  0.0889 -0.8762 -0.4941
 1927TIP3   OH2 5737   6.787   7.797   5.113  0.1551 -0.2415  0.1491
 1927TIP3    H1 5738   6.726   7.773   5.043  0.0261 -0.7156  0.4252
 1927TIP3    H2 5739   6.824   7.714   5.143  0.0992 -0.0582  0.7438
 1928TIP3   OH2 5740   1.227   1.538   5.832  0.1016  0.0001  1.0293
 1928TIP3    H1 5741   1.192   1.562   5.917 -3.3913  0.4111 -0.3814
 1928TIP3    H2 5742   1.275   1.616   5.803 -0.4474  0.6204  1.7565
 1929TIP3   OH2 5743   5.700   3.257   2.515  0.2655  0.1926  0.3945
 1929TIP3    H1 5744   5.683   3.180   2.461 -3.5599 -2.7175  4.9598
 1929TIP3    H2 5745   5.619   3.309   2.508 -0.0910  0.0262  2.6645
 1930TIP3   OH2 5746   7.140   7.559   5.782 -0.0934 -0.0885 -0.1090
 1930TIP3    H1 5747   7.143   7.467   5.812 -1.1643 -0.9472 -2.4249
 1930TIP3    H2 5748   7.085   7.603   5.847  0.6917 -0.9863  1.2161
 1931TIP3   OH2 5749   0.328   3.252   4.640 -0.0155  0.7852 -0.4429
 1931TIP3    H1 5750   0.381   3.330   4.657  0.6239  0.3466 -0.4005
 1931TIP3    H2 5751   0.345   3.195   4.715  1.9568 -0.6964 -1.9090
 1932TIP3   OH2 5752   1.597   6.357   0.342 -0.0262  0.1127 -0.3211
 1932TIP3    H1 5753   1.591   6.290   0.409 -1.4783  0.0296 -0.4936
 1932TIP3    H2 5754   1.665   6.417   0.373 -0.4111 -0.1259  1.0401
 1933TIP3   OH2 5755   0.066   1.624   0.092 -0.3114 -0.0726  0.4797
 1933TIP3    H1 5756   0.102   1.547   0.049 -3.0017 -1.0590 -0.2616
 1933TIP3    H2 5757   0.079   1.608   0.186  2.2125  0.2860  0.2374
 1934TIP3   OH2 5758   4.859   1.760   0.147 -0.1126 -0.8476  0.7819
 1934TIP3    H1 5759   4.898   1.675   0.166  1.6174 -0.4993 -0.8496
 1934TIP3    H2 5760   4.867   1.810   0.228  2.1097 -1.1187  0.8007
 1935TIP3   OH2 5761   5.275   1.013   5.013  0.0976 -0.0063  0.0987
 1935TIP3    H1 5762   5.279   1.107   5.028  1.6217  0.1735 -1.1328
 1935TIP3    H2 5763   5.202   1.000   4.952  0.0982  0.4156  0.0102
 1936TIP3   OH2 5764   4.841   4.055   1.111  0.0561 -0.4519  0.1945
 1936TIP3    H1 5765   4.754   4.033   1.079 -0.1409  0.5375  0.0073
 1936TIP3    H2 5766   4.849   4.008   1.194 -1.0630  0.2390  0.7087
 1937TIP3   OH2 5767   4.028   3.246   4.878  0.6176  0.9614 -0.1172
 1937TIP3    H1 5768   4.095   3.275   4.816 -0.5080  0.2554 -1.7311
 1937TIP3    H2 5769   4.020   3.152   4.863  0.2910  0.7682  1.0997
 1938TIP3   OH2 5770   6.919   6.168   5.460 -0.5748 -0.5801 -0.5611
 1938TIP3    H1 5771   6.843   6.111   5.445 -0.2807 -0.6800 -1.8162
 1938TIP3    H2 5772   6.942   6.199   5.372 -0.0427  0.5905 -0.0250
 1939TIP3   OH2 5773   3.339   1.143   3.660 -0.3417 -0.2570  0.1410
 1939TIP3    H1 5774   3.272   1.130   3.593 -1.0729 -0.6400  0.9189
 1939TIP3    H2 5775   3.371   1.055   3.680 -0.0069 -0.1278  0.1765
 1940TIP3   OH2 5776   8.144   3.485   1.024  0.0190  0.4070 -0.6926
 1940TIP3    H1 5777   8.069   3.469   1.081  0.5388  0.0817 -0.0712
 1940TIP3    H2 5778   8.118   3.559   0.970 -0.7444  0.2998 -0.4875
 1941TIP3   OH2 5779   8.216   0.237   2.320 -0.8934 -0.1018  0.3178
 1941TIP3    H1 5780   8.293   0.258   2.268 -1.1405 -0.0903 -0.0477
 1941TIP3    H2 5781   8.244   0.164   2.376 -0.4921  0.1876  0.4989
 1942TIP3   OH2 5782   2.806   2.334   3.162  0.1521 -0.2637 -0.5977
 1942TIP3    H1 5783   2.755   2.295   3.233  2.2030  1.5267  2.0186
 1942TIP3    H2 5784   2.758   2.311   3.082 -4.6934  1.2243  1.5677
 1943TIP3   OH2 5785   8.013   0.136   6.157 -0.2769 -0.4238 -0.1540
 1943TIP3    H1 5786   8.032   0.089   6.076 -1.8462 -0.9772 -0.2455
 1943TIP3    H2 5787   7.952   0.078   6.204 -0.7799  0.6802  0.5945
 1944TIP3   OH2 5788   1.509   6.511   5.056 -0.7963  0.0802 -0.0226
 1944TIP3    H1 5789   1.478   6.566   4.985 -1.0141 -0.6148 -0.4792
 1944TIP3    H2 5790   1.446   6.524   5.126 -0.2259  1.2652  0.2983
 1945TIP3   OH2 5791   6.154   5.691   1.752 -0.3773  0.1728 -0.1554
 1945TIP3    H1 5792   6.122   5.601   1.755 -0.5254  0.2155 -0.4566
 1945TIP3    H2 5793   6.218   5.692   1.681 -0.1230  0.2248  0.0713
 1946TIP3   OH2 5794   7.876   4.076   3.067 -0.8102  0.4379 -0.1534
 1946TIP3    H1 5795   7.908   4.001   3.017 -1.5183 -0.0483  0.1059
 1946TIP3    H2 5796   7.904   4.152   3.016  1.0461  0.0592  0.2523
 1947TIP3   OH2 5797   7.754   0.902   0.614 -0.1719 -0.1550  0.7152
 1947TIP3    H1 5798   7.676   0.847   0.609 -0.7025  0.4426  1.9661
 1947TIP3    H2 5799   7.720   0.992   0.611  0.6295  0.1396 -0.6360
 1948TIP3   OH2 5800   0.587   3.155   1.408  0.2698 -0.0249 -0.3013
 1948TIP3    H1 5801   0.557   3.175   1.319  2.4218 -1.8152 -1.5261
 1948TIP3    H2 5802   0.678   3.187   1.410  0.2310  0.0471  1.2951
 1949TIP3   OH2 5803   7.839   1.540   0.040 -0.0092 -0.4934 -0.4397
 1949TIP3    H1 5804   7.745   1.547   0.055 -0.0857 -1.4349 -0.4352
 1949TIP3    H2 5805   7.862   1.452   0.070  0.8870 -0.2459 -0.3661
 1950TIP3   OH2 5806   2.046   6.380   4.032  0.1894 -0.0688  0.2085
 1950TIP3    H1 5807   2.070   6.420   3.948  0.0878 -0.8653 -0.2122
 1950TIP3    H2 5808   2.123   6.327   4.055 -0.0279 -0.3446  0.3037
 1951TIP3   OH2 5809   7.296   1.782   2.451 -0.3608 -0.1370 -0.5173
 1951TIP3    H1 5810   7.235   1.792   2.378 -2.3385 -2.3473  0.6752
 1951TIP3    H2 5811   7.245   1.810   2.528  0.1518 -1.7978  0.4846
 1952TIP3   OH2 5812   2.912   3.779   0.645 -0.3041 -0.2348  0.1251
 1952TIP3    H1 5813   2.861   3.761   0.567 -0.9670  1.1850  0.1977
 1952TIP3    H2 5814   2.850   3.768   0.717  0.5472 -2.5550  0.5926
 1953TIP3   OH2 5815   7.649   3.508   4.471 -0.0225  0.1729 -0.6694
 1953TIP3    H1 5816   7.671   3.591   4.514  1.3989  0.6984 -2.3074
 1953TIP3    H2 5817   7.565   3.525   4.428 -0.5273  0.2246  0.2977
 1954TIP3   OH2 5818   1.454   7.261   3.110  0.4070  0.5655 -0.2468
 1954TIP3    H1 5819   1.380   7.201   3.112  0.6889  0.2289  0.7095
 1954TIP3    H2 5820   1.473   7.273   3.017 -0.0312 -0.3669 -0.4681
 1955TIP3   OH2 5821   3.637   5.721   4.954  0.2363 -0.0068 -0.1196
 1955TIP3    H1 5822   3.679   5.684   4.877  1.1978 -0.3787  0.5684
 1955TIP3    H2 5823   3.702   5.782   4.990 -0.4277  0.6028  0.0749
 1956TIP3   OH2 5824   5.790   0.317   2.464  0.0440 -0.3215  0.2019
 1956TIP3    H1 5825   5.767   0.317   2.371 -0.1945  0.7929  0.2452
 1956TIP3    H2 5826   5.716   0.359   2.507  0.8224  0.5783  0.7033
 1957TIP3   OH2 5827   6.547   5.946   3.574 -0.0858  0.9036  0.4102
 1957TIP3    H1 5828   6.630   5.930   3.618  0.1998 -0.3889 -0.5295
 1957TIP3    H2 5829   6.487   5.973   3.644  0.6786  0.1636  1.3837
 1958TIP3   OH2 5830   4.927   5.161   5.665 -0.2496 -0.3327 -0.0057
 1958TIP3    H1 5831   4.863   5.170   5.594 -0.8858  1.9863  0.7699
 1958TIP3    H2 5832   4.992   5.229   5.647  1.7140 -2.1818 -0.3830
 1959TIP3   OH2 5833   8.079   4.600   1.715  0.0891 -0.0971 -0.0959
 1959TIP3    H1 5834   8.160   4.565   1.753  0.2042  2.0186  1.8141
 1959TIP3    H2 5835   8.076   4.563   1.627  2.6277 -1.0001  0.1136
 1960TIP3   OH2 5836   6.551   7.248   2.742  0.2160 -0.1436  0.3819
 1960TIP3    H1 5837   6.576   7.212   2.827  3.4120 -0.9496 -0.7606
 1960TIP3    H2 5838   6.604   7.327   2.733  0.9915 -0.8185 -1.3967
 1961TIP3   OH2 5839   6.582   2.843   6.777 -0.2973  0.1099  0.2162
 1961TIP3    H1 5840   6.540   2.921   6.743 -1.5395 -0.4208  0.4974
 1961TIP3    H2 5841   6.648   2.820   6.710 -1.1628  0.3584 -0.7474
 1962TIP3   OH2 5842   8.166   2.918   1.965 -0.7073 -0.0209 -0.3062
 1962TIP3    H1 5843   8.224   2.890   1.895 -0.3868 -0.2504  0.0477
 1962TIP3    H2 5844   8.171   3.014   1.963 -0.1902 -0.0417 -0.1745
 1963TIP3   OH2 5845   1.777   1.260   5.068  0.1184 -0.2147  0.2710
 1963TIP3    H1 5846   1.682   1.255   5.057 -0.0662 -1.3374  1.9916
 1963TIP3    H2 5847   1.806   1.325   5.003 -1.8137  0.1867 -0.2367
 1964TIP3   OH2 5848   6.239   4.577   2.570 -0.2927  0.1831 -0.5211
 1964TIP3    H1 5849   6.166   4.580   2.632 -0.4609  0.6580 -0.7349
 1964TIP3    H2 5850   6.207   4.622   2.493  0.3907  0.8291 -0.4418
 1965TIP3   OH2 5851   3.458   2.861   6.109 -0.7078  0.2123  0.2938
 1965TIP3    H1 5852   3.493   2.801   6.175  2.5067 -0.1831 -1.5617
 1965TIP3    H2 5853   3.473   2.948   6.146  2.6186  0.0736 -0.3780
 1966TIP3   OH2 5854   2.777   6.264   2.555 -0.1939  0.1557  0.8662
 1966TIP3    H1 5855   2.768   6.318   2.477 -0.7752  1.5375  1.8463
 1966TIP3    H2 5856   2.823   6.321   2.617 -1.8629 -0.0312  2.3308
 1967TIP3   OH2 5857   4.469   7.021   0.854 -0.0401 -0.1539  0.0803
 1967TIP3    H1 5858   4.379   7.028   0.886  0.6433  1.3934  1.8436
 1967TIP3    H2 5859   4.519   6.990   0.930  0.9435 -0.9607 -0.8615
 1968TIP3   OH2 5860   0.384   4.620   5.967  0.3165 -0.1422  0.4518
 1968TIP3    H1 5861   0.305   4.595   5.919  1.4209 -2.7876 -0.1778
 1968TIP3    H2 5862   0.354   4.634   6.057 -0.9255 -0.9484  0.1899
 1969TIP3   OH2 5863   3.752   0.426   1.270 -0.0734 -0.1115  0.1799
 1969TIP3    H1 5864   3.746   0.332   1.254  0.7331 -0.1103 -0.1585
 1969TIP3    H2 5865   3.819   0.456   1.209 -0.5553  0.7388  0.0597
 1970TIP3   OH2 5866   5.335   1.732   1.398  0.1786 -0.4403  0.7056
 1970TIP3    H1 5867   5.361   1.660   1.456  2.9170  1.8342  2.5672
 1970TIP3    H2 5868   5.416   1.781   1.383 -1.8666  3.5781  1.5462
 1971TIP3   OH2 5869   3.971   1.208   3.768  0.3892 -0.0977  0.3370
 1971TIP3    H1 5870   3.994   1.291   3.727 -0.2579 -0.5677 -1.0673
 1971TIP3    H2 5871   3.876   1.212   3.780 -0.2811 -1.8889 -3.0012
 1972TIP3   OH2 5872   5.184   4.388   5.723 -0.0007 -0.2803 -0.3097
 1972TIP3    H1 5873   5.225   4.371   5.808 -0.9526 -0.8568  0.0557
 1972TIP3    H2 5874   5.092   4.363   5.736 -0.3293  0.3837 -1.2788
 1973TIP3   OH2 5875   3.722   1.872   1.176 -0.1469  0.2598 -0.3888
 1973TIP3    H1 5876   3.748   1.913   1.259  1.8338  0.0273 -0.8354
 1973TIP3    H2 5877   3.654   1.930   1.141  0.9759  1.9523  0.0828
 1974TIP3   OH2 5878   8.139   7.210   2.756  0.1795  0.5082  0.0115
 1974TIP3    H1 5879   8.212   7.218   2.695 -1.5756 -0.1836 -2.3464
 1974TIP3    H2 5880   8.063   7.239   2.705 -1.8236 -2.7100  0.9282
 1975TIP3   OH2 5881   4.647   2.469   1.618 -0.4807  0.6417  0.0566
 1975TIP3    H1 5882   4.681   2.487   1.706  0.2607  1.3007 -0.3488
 1975TIP3    H2 5883   4.586   2.541   1.602 -0.4877  0.6139 -0.0368
 1976TIP3   OH2 5884   1.382   4.395   6.652 -0.4181 -0.4277 -0.5766
 1976TIP3    H1 5885   1.472   4.425   6.645  0.0767 -1.8248 -0.4405
 1976TIP3    H2 5886   1.366   4.348   6.570 -1.6933  1.4517 -1.4763
 1977TIP3   OH2 5887   3.224   3.913   3.893  0.3451  0.7174  0.1530
 1977TIP3    H1 5888   3.155   3.849   3.874  1.4046 -0.9716  1.6532
 1977TIP3    H2 5889   3.256   3.939   3.806 -0.5898 -0.2498 -0.5234
 1978TIP3   OH2 5890   3.129   2.211   4.323 -0.3631 -0.0959  0.0112
 1978TIP3    H1 5891   3.039   2.241   4.315 -1.2540 -2.8374 -1.4768
 1978TIP3    H2 5892   3.122   2.119   4.348  1.9520 -0.8015 -1.5538
 1979TIP3   OH2 5893   5.104   5.384   5.582 -0.0028 -0.0633  0.0033
 1979TIP3    H1 5894   5.195   5.382   5.552 -0.2602  0.1561 -0.8188
 1979TIP3    H2 5895   5.055   5.421   5.508 -0.9466 -1.4123 -0.0862
 1980TIP3   OH2 5896   3.311   6.717   6.040  0.1736  0.3801 -0.0320
 1980TIP3    H1 5897   3.229   6.682   6.005 -0.0763  1.0760 -0.1600
 1980TIP3    H2 5898   3.373   6.710   5.968 -0.4340  2.1531 -0.7924
 1981TIP3   OH2 5899   1.811   5.429   5.418  0.3389 -0.1005 -0.0846
 1981TIP3    H1 5900   1.803   5.479   5.337  1.7136 -0.1537 -0.2714
 1981TIP3    H2 5901   1.794   5.338   5.392  0.6817 -0.1051 -0.2964
 1982TIP3   OH2 5902   3.229   4.153   0.411  0.0003 -0.1083 -0.0228
 1982TIP3    H1 5903   3.214   4.067   0.450  2.0527 -1.4550 -1.9959
 1982TIP3    H2 5904   3.324   4.161   0.407 -0.1478  1.8495 -0.7768
 1983TIP3   OH2 5905   4.999   1.915   3.368  0.3727 -0.4232  0.3090
 1983TIP3    H1 5906   5.069   1.957   3.317  0.6350 -0.4092  0.6754
 1983TIP3    H2 5907   4.954   1.859   3.305 -1.9749  2.6901 -1.0221
 1984TIP3   OH2 5908   1.571   7.578   6.556  0.3586 -0.2529 -0.3235
 1984TIP3    H1 5909   1.520   7.589   6.476  0.7286 -0.8539 -0.6484
 1984TIP3    H2 5910   1.662   7.577   6.526  0.4692 -1.1202  0.0335
 1985TIP3   OH2 5911   7.917   6.402   1.529 -0.9061 -0.4635  0.5600
 1985TIP3    H1 5912   7.924   6.320   1.479 -0.4737  0.0025 -0.1731
 1985TIP3    H2 5913   7.995   6.451   1.505  0.7769 -1.2967  3.7767
 1986TIP3   OH2 5914   2.736   4.131   0.615 -0.2077  0.1168  0.5056
 1986TIP3    H1 5915   2.650   4.139   0.572  0.7064 -0.1492 -1.4739
 1986TIP3    H2 5916   2.799   4.156   0.548  1.2973  0.2030  1.8955
 1987TIP3   OH2 5917   0.339   5.279   1.040 -0.5650  0.7351  0.4405
 1987TIP3    H1 5918   0.329   5.357   0.984 -0.9683  0.1106 -0.3929
 1987TIP3    H2 5919   0.289   5.300   1.119  1.1036  2.1689  1.1772
 1988TIP3   OH2 5920   5.641   1.913   1.099  0.4415  0.2744 -0.0601
 1988TIP3    H1 5921   5.624   1.914   1.193 -0.1665  1.1783 -0.1632
 1988TIP3    H2 5922   5.660   2.004   1.077 -0.8469  0.3387 -1.0378
 1989TIP3   OH2 5923   8.077   5.009   5.343  0.5177  0.2049 -0.0074
 1989TIP3    H1 5924   8.112   5.076   5.285 -0.7349  0.1677 -0.8399
 1989TIP3    H2 5925   8.013   5.055   5.397  1.5956  0.2182  1.3149
 1990TIP3   OH2 5926   0.375   4.156   4.284 -0.2250 -0.7310 -0.4304
 1990TIP3    H1 5927   0.288   4.195   4.293  0.3620  0.1840  1.7168
 1990TIP3    H2 5928   0.403   4.139   4.373  2.1305 -0.2630 -1.0330
 1991TIP3   OH2 5929   7.401   5.763   6.229 -0.0766 -0.7498 -0.2113
 1991TIP3    H1 5930   7.340   5.736   6.160 -0.6264 -0.8030  0.2847
 1991TIP3    H2 5931   7.353   5.828   6.279  0.0765 -1.1729  0.5022
 1992TIP3   OH2 5932   2.210   6.320   2.032  0.4000  0.0624 -0.2485
 1992TIP3    H1 5933   2.137   6.376   2.006 -0.8521 -0.3726  2.0398
 1992TIP3    H2 5934   2.173   6.232   2.036  1.5202 -0.4571 -0.6644
 1993TIP3   OH2 5935   0.897   6.313   3.307 -0.5173 -0.2128 -0.1986
 1993TIP3    H1 5936   0.945   6.391   3.279 -0.7579  0.2190  0.5602
 1993TIP3    H2 5937   0.810   6.345   3.330  0.1425 -0.1821  2.6794
 1994TIP3   OH2 5938   0.314   2.437   3.475 -0.1037 -0.4289 -0.5735
 1994TIP3    H1 5939   0.323   2.511   3.535 -1.6207  0.0368 -0.8866
 1994TIP3    H2 5940   0.353   2.469   3.393  0.1708 -0.3598 -0.4209
 1995TIP3   OH2 5941   2.368   0.893   1.912 -0.0298  0.4449 -0.1887
 1995TIP3    H1 5942   2.398   0.945   1.837 -0.0425  1.9776  0.8216
 1995TIP3    H2 5943   2.448   0.873   1.961 -0.2628  1.7568  0.7832
 1996TIP3   OH2 5944   3.198   4.740   5.516 -0.2603  0.4048  0.1784
 1996TIP3    H1 5945   3.109   4.758   5.488 -0.9103 -0.2331  1.7153
 1996TIP3    H2 5946   3.247   4.725   5.435 -1.5801  0.6061 -0.6729
 1997TIP3   OH2 5947   6.141   6.704   0.994 -0.4778  0.3489 -0.1922
 1997TIP3    H1 5948   6.095   6.642   1.051  0.7438 -0.9758 -0.5858
 1997TIP3    H2 5949   6.198   6.753   1.053 -1.5617  1.2468  0.1432
 1998TIP3   OH2 5950   0.748   1.543   0.496  1.0485 -0.1339  0.2364
 1998TIP3    H1 5951   0.823   1.580   0.543 -1.0725  1.3216  2.7387
 1998TIP3    H2 5952   0.684   1.614   0.492 -0.1201 -1.1908 -2.1805
 1999TIP3   OH2 5953   6.248   0.979   2.384  0.3002  0.7061 -0.7060
 1999TIP3    H1 5954   6.162   0.945   2.359 -0.8277  2.8034  0.0855
 1999TIP3    H2 5955   6.254   0.965   2.478  0.5020  1.1935 -0.6395
 2000TIP3   OH2 5956   5.779   0.368   6.108 -0.6203  0.3829  0.2655
 2000TIP3    H1 5957   5.716   0.379   6.180 -1.1633  1.1824 -0.3122
 2000TIP3    H2 5958   5.834   0.294   6.135 -1.5868 -0.1115  0.9450
 2001TIP3   OH2 5959   1.456   6.029   3.158  0.1222  0.3473 -0.1848
 2001TIP3    H1 5960   1.371   6.063   3.185  0.0478 -1.0083  1.4437
 2001TIP3    H2 5961   1.446   6.011   3.065 -1.5871 -0.3282  0.0885
 2002TIP3   OH2 5962   5.814   2.021   6.647 -0.1605 -0.2162  0.2152
 2002TIP3    H1 5963   5.907   2.041   6.634 -0.1033 -0.0808  0.7800
 2002TIP3    H2 5964   5.809   1.925   6.643  0.2624 -0.3271  1.6575
 2003TIP3   OH2 5965   0.980   7.071   4.455 -0.1118 -0.2417  0.1451
 2003TIP3    H1 5966   1.065   7.035   4.429 -0.2386 -0.3224 -0.1593
 2003TIP3    H2 5967   0.923   7.054   4.380 -0.0738  0.9420 -0.1688
 2004TIP3   OH2 5968   7.632   5.446   4.907  0.1426  0.5616  0.3692
 2004TIP3    H1 5969   7.559   5.384   4.903  0.7423 -0.1494  0.2136
 2004TIP3    H2 5970   7.661   5.457   4.817 -0.0102  1.1382  0.3848
 2005TIP3   OH2 5971   4.847   5.254   4.696  0.2188  0.2890  0.2889
 2005TIP3    H1 5972   4.782   5.324   4.696 -0.2592 -0.1097  1.9462
 2005TIP3    H2 5973   4.919   5.287   4.750  0.1553 -0.3343  0.7729
 2006TIP3   OH2 5974   6.139   5.101   1.892 -0.5219  0.0688  0.1531
 2006TIP3    H1 5975   6.080   5.134   1.960  0.0152 -0.1981  0.7714
 2006TIP3    H2 5976   6.187   5.031   1.936 -0.0592 -0.0094 -0.4713
 2007TIP3   OH2 5977   6.750   5.279   3.306 -0.1196 -0.6224  0.2189
 2007TIP3    H1 5978   6.839   5.305   3.283 -0.4033  0.0036 -0.2026
 2007TIP3    H2 5979   6.720   5.227   3.231 -0.4561  0.0173 -0.1023
 2008TIP3   OH2 5980   1.495   7.215   3.613  0.2717 -0.1865  0.2006
 2008TIP3    H1 5981   1.425   7.280   3.624 -0.5270 -1.0974  0.7004
 2008TIP3    H2 5982   1.456   7.147   3.559  1.5568  0.3814 -1.5036
 2009TIP3   OH2 5983   6.184   6.418   2.253  0.0815  0.2415 -0.2400
 2009TIP3    H1 5984   6.280   6.415   2.255  0.1911  2.0422  1.8681
 2009TIP3    H2 5985   6.163   6.512   2.258 -1.7780 -0.1547  0.2975
 2010TIP3   OH2 5986   8.248   2.495   3.894 -0.2778  0.2726 -0.6830
 2010TIP3    H1 5987   8.301   2.535   3.964 -0.0759 -1.1736  0.0335
 2010TIP3    H2 5988   8.304   2.501   3.816  0.3114  0.1533 -0.2793
 2011TIP3   OH2 5989   3.729   3.791   3.546  0.1709  0.0935  0.1888
 2011TIP3    H1 5990   3.797   3.750   3.599 -1.2941 -1.4338  0.9747
 2011TIP3    H2 5991   3.733   3.745   3.462  0.8679  0.8260 -0.1919
 2012TIP3   OH2 5992   6.538   2.173   0.323  0.5437  0.4529 -0.2082
 2012TIP3    H1 5993   6.488   2.252   0.301 -0.9677  0.2216  2.0910
 2012TIP3    H2 5994   6.495   2.103   0.274  1.3253  0.8664 -1.5435
 2013TIP3   OH2 5995   6.120   4.049   2.600  0.0372 -0.5805 -0.1038
 2013TIP3    H1 5996   6.167   3.970   2.625  2.0522  0.2325 -1.1023
 2013TIP3    H2 5997   6.030   4.021   2.587  0.7647 -2.7690 -0.7681
 2014TIP3   OH2 5998   0.773   4.898   6.763 -0.4453  0.5409 -0.0268
 2014TIP3    H1 5999   0.758   4.819   6.710 -0.3762 -0.1665  0.9806
 2014TIP3    H2 6000   0.749   4.970   6.705 -1.7322 -0.2713 -0.5556
 2015TIP3   OH2 6001   7.655   0.719   2.884  0.1055 -0.1430  0.1485
 2015TIP3    H1 6002   7.596   0.737   2.957 -0.5003 -2.0231  0.1749
 2015TIP3    H2 6003   7.629   0.782   2.816 -1.3898 -0.3749  0.4610
 2016TIP3   OH2 6004   7.391   6.027   4.906  0.1616  0.0793 -0.0836
 2016TIP3    H1 6005   7.371   6.108   4.953  0.4301  0.2665 -0.2928
 2016TIP3    H2 6006   7.329   5.963   4.942  0.6292  0.1145  0.8076
 2017TIP3   OH2 6007   3.214   6.310   0.714  0.2888 -0.2025  0.0402
 2017TIP3    H1 6008   3.249   6.355   0.790 -0.5557  1.9586 -0.7686
 2017TIP3    H2 6009   3.148   6.251   0.750 -0.5094  1.1994  0.9908
 2018TIP3   OH2 6010   3.230   6.200   2.926  0.7215  0.1010 -0.2976
 2018TIP3    H1 6011   3.254   6.123   2.978  0.7573  0.6934  0.5974
 2018TIP3    H2 6012   3.169   6.167   2.860  1.8935 -0.9434 -0.8878
 2019TIP3   OH2 6013   5.978   3.637   1.540  0.9160 -0.1463  0.4548
 2019TIP3    H1 6014   5.947   3.619   1.629 -0.7011  1.3435  0.2512
 2019TIP3    H2 6015   6.061   3.683   1.553  2.0262 -2.2050  1.0785
 2020TIP3   OH2 6016   1.003   1.390   4.876  0.2604  0.1000 -0.0266
 2020TIP3    H1 6017   1.081   1.336   4.870  0.0564 -0.0986 -1.1108
 2020TIP3    H2 6018   0.989   1.422   4.787 -0.2746  1.0224  0.3681
 2021TIP3   OH2 6019   0.501   3.541   4.403  0.3291 -0.5749 -0.2795
 2021TIP3    H1 6020   0.571   3.521   4.465  0.6572  1.1659 -0.0449
 2021TIP3    H2 6021   0.526   3.494   4.323  1.7056 -0.1210 -0.1472
 2022TIP3   OH2 6022   3.526   1.090   1.031  1.0351  0.1477  0.3664
 2022TIP3    H1 6023   3.543   1.063   0.941  3.7233  0.4986  0.6775
 2022TIP3    H2 6024   3.444   1.139   1.026  0.2240 -1.2414 -1.5578
 2023TIP3   OH2 6025   2.891   6.771   2.569  0.0085 -0.7705  0.2698
 2023TIP3    H1 6026   2.811   6.755   2.519  0.8242  1.4660 -2.0113
 2023TIP3    H2 6027   2.961   6.730   2.517  0.7352  0.5184  0.1700
 2024TIP3   OH2 6028   2.484   1.060   5.770  0.2692 -0.1081  0.0921
 2024TIP3    H1 6029   2.555   0.996   5.775  0.3324  0.0190  1.1754
 2024TIP3    H2 6030   2.467   1.083   5.861 -0.2835  0.8367 -0.2374
 2025TIP3   OH2 6031   6.317   6.171   4.341 -0.0236 -0.2542 -0.1358
 2025TIP3    H1 6032   6.393   6.188   4.397 -1.0879  0.7693  1.0574
 2025TIP3    H2 6033   6.242   6.175   4.400 -1.4826  3.4057 -1.9152
 2026TIP3   OH2 6034   0.973   1.573   4.296  0.0630 -0.2261  0.3352
 2026TIP3    H1 6035   1.011   1.493   4.333  1.2618  0.7489  1.2778
 2026TIP3    H2 6036   0.915   1.605   4.365  1.2223  0.8476  0.8266
 2027TIP3   OH2 6037   3.184   1.648   4.468 -0.7842  0.5904  0.8414
 2027TIP3    H1 6038   3.198   1.642   4.562 -1.1134 -1.0910  0.8276
 2027TIP3    H2 6039   3.211   1.736   4.444  1.2512  0.3883  2.1806
 2028TIP3   OH2 6040   6.743   5.774   1.991  0.2882 -0.3655  0.4966
 2028TIP3    H1 6041   6.830   5.801   1.961  0.1372 -0.5130 -0.0784
 2028TIP3    H2 6042   6.738   5.681   1.971  0.5375 -0.6901  1.8437
 2029TIP3   OH2 6043   0.263   0.537   3.029 -0.3366 -0.6744 -0.1159
 2029TIP3    H1 6044   0.260   0.463   2.968  0.0552 -1.0411  0.3013
 2029TIP3    H2 6045   0.341   0.521   3.082 -0.2542  0.0393 -0.0158
 2030TIP3   OH2 6046   4.934   1.446   5.245  0.7401  0.3271 -0.1424
 2030TIP3    H1 6047   5.019   1.421   5.210  0.6531  1.5602 -1.3440
 2030TIP3    H2 6048   4.950   1.530   5.289  1.1174 -1.7554  4.1403
 2031TIP3   OH2 6049   0.323   1.932   2.710  0.0359  0.3046  0.7090
 2031TIP3    H1 6050   0.380   1.925   2.633 -0.2801  2.4157  0.2235
 2031TIP3    H2 6051   0.235   1.919   2.675 -0.1834  2.0654  0.5058
 2032TIP3   OH2 6052   1.248   6.789   4.030 -0.0845 -0.3138  0.4282
 2032TIP3    H1 6053   1.230   6.703   3.992  2.6246 -0.9749  0.4185
 2032TIP3    H2 6054   1.300   6.834   3.963 -1.4282  1.3606  0.4497
 2033TIP3   OH2 6055   4.148   1.413   2.677 -0.4630 -0.5109 -0.2720
 2033TIP3    H1 6056   4.112   1.473   2.612  1.3568 -0.3278 -1.1608
 2033TIP3    H2 6057   4.183   1.340   2.627 -0.3503 -1.0847  0.6120
 2034TIP3   OH2 6058   3.303   0.702   3.574  0.1910  0.1458 -0.0527
 2034TIP3    H1 6059   3.278   0.780   3.525  0.8346  0.8776  0.7440
 2034TIP3    H2 6060   3.381   0.729   3.623 -0.2809 -0.6206  1.1639
 2035TIP3   OH2 6061   5.725   2.038   5.567 -0.0243 -0.4087 -0.2744
 2035TIP3    H1 6062   5.783   2.092   5.515  2.7150 -1.2657  1.6831
 2035TIP3    H2 6063   5.679   2.099   5.624  0.0296  0.1589 -0.8367
 2036TIP3   OH2 6064   2.749   2.053   5.432  0.1054 -0.1084 -0.1091
 2036TIP3    H1 6065   2.689   2.096   5.494 -1.0295  0.1677 -1.3350
 2036TIP3    H2 6066   2.833   2.051   5.477 -0.3991  1.1676  0.9628
 2037TIP3   OH2 6067   0.688   3.074   5.724  0.0512 -0.9410  0.3836
 2037TIP3    H1 6068   0.664   3.087   5.633 -1.6397 -0.7187  0.8331
 2037TIP3    H2 6069   0.784   3.065   5.723  0.2191  0.5283 -1.2260
 2038TIP3   OH2 6070   5.685   2.452   2.113  0.8353 -0.5168 -0.1487
 2038TIP3    H1 6071   5.639   2.511   2.173  0.1693 -1.6293  0.4522
 2038TIP3    H2 6072   5.753   2.411   2.166  0.8189 -0.8470 -0.3775
 2039TIP3   OH2 6073   0.603   0.977   0.286 -0.0481  0.7826 -0.0666
 2039TIP3    H1 6074   0.696   0.968   0.308  0.3885  0.9123 -1.7529
 2039TIP3    H2 6075   0.602   1.032   0.208 -1.4567 -0.1428 -0.7409
 2040TIP3   OH2 6076   7.913   2.773   0.762 -0.6319  0.9953  0.3348
 2040TIP3    H1 6077   7.882   2.702   0.818 -0.3157  0.3532 -0.2981
 2040TIP3    H2 6078   7.834   2.824   0.742 -0.6382  1.7329  2.0164
 2041TIP3   OH2 6079   7.895   4.783   4.967 -0.0896 -0.1498  0.0741
 2041TIP3    H1 6080   7.911   4.755   5.058  0.3992  0.8707  0.3110
 2041TIP3    H2 6081   7.956   4.730   4.916  0.6141  0.2543  0.4861
 2042TIP3   OH2 6082   2.828   6.533   1.715  0.8785 -0.3170 -0.6536
 2042TIP3    H1 6083   2.827   6.458   1.655 -1.2840 -0.2948 -0.7245
 2042TIP3    H2 6084   2.788   6.604   1.665  2.4562  0.7969 -0.4168
 2043TIP3   OH2 6085   2.431   5.289   5.270  0.4478  0.2497  0.4988
 2043TIP3    H1 6086   2.462   5.341   5.196  0.0061 -0.3878 -0.1463
 2043TIP3    H2 6087   2.375   5.222   5.231  0.7438 -0.5200  1.3396
 2044TIP3   OH2 6088   3.747   6.173   5.569 -0.1100  0.0139  0.5585
 2044TIP3    H1 6089   3.826   6.123   5.548 -0.5434 -1.4548  2.2471
 2044TIP3    H2 6090   3.775   6.265   5.561  0.4167 -0.3099 -3.7274
 2045TIP3   OH2 6091   2.995   6.050   4.458 -0.5983 -0.3150 -0.1960
 2045TIP3    H1 6092   2.920   6.008   4.500  0.0552 -1.8874 -0.5106
 2045TIP3    H2 6093   3.066   6.040   4.521 -0.7644  1.8282  0.4252
 2046TIP3   OH2 6094   0.113   3.221   2.938  0.1076  0.9192 -0.1900
 2046TIP3    H1 6095   0.023   3.249   2.955  0.0272 -0.3397  1.9468
 2046TIP3    H2 6096   0.168   3.288   2.979 -0.0330 -0.3376  2.3094
 2047TIP3   OH2 6097   5.623   7.020   0.845 -0.4606 -0.0762  0.6603
 2047TIP3    H1 6098   5.708   7.022   0.889  0.3500  1.1601 -0.8661
 2047TIP3    H2 6099   5.638   6.970   0.765 -1.5981 -1.2267  1.1360
 2048TIP3   OH2 6100   3.602   5.695   4.304  0.0327 -0.4354 -0.4209
 2048TIP3    H1 6101   3.537   5.631   4.274 -0.6258  0.3455 -0.6921
 2048TIP3    H2 6102   3.585   5.704   4.398 -1.4243  1.0272 -0.7713
 2049TIP3   OH2 6103   4.208   1.559   0.298 -0.4899  0.0352 -0.1157
 2049TIP3    H1 6104   4.204   1.606   0.215 -2.5522 -0.6422 -0.4603
 2049TIP3    H2 6105   4.300   1.534   0.307 -0.1232  0.5861 -1.9341
 2050TIP3   OH2 6106   1.526   7.256   1.244  0.1546  0.2445  0.0817
 2050TIP3    H1 6107   1.496   7.307   1.319  1.8178 -1.5123  2.1110
 2050TIP3    H2 6108   1.608   7.216   1.274  1.4462  0.2361 -3.0639
 2051TIP3   OH2 6109   5.819   2.725   0.548 -0.4005 -0.1295  0.4895
 2051TIP3    H1 6110   5.797   2.807   0.592 -1.0517 -0.5830  1.0139
 2051TIP3    H2 6111   5.915   2.722   0.551 -0.0991  2.1417 -2.3255
 2052TIP3   OH2 6112   6.032   7.035   1.744 -0.5096  0.1126 -0.5064
 2052TIP3    H1 6113   6.005   7.088   1.668  0.9109  0.2828 -0.9207
 2052TIP3    H2 6114   5.974   7.063   1.814 -0.3257  1.6732 -0.9343
 2053TIP3   OH2 6115   3.397   1.846   4.220 -0.2225 -0.3163  0.5828
 2053TIP3    H1 6116   3.413   1.761   4.179 -0.5634 -0.1509  0.1022
 2053TIP3    H2 6117   3.475   1.862   4.274 -0.2917 -1.0701  0.9214
 2054TIP3   OH2 6118   1.709   3.515   3.424  0.3944 -0.4114 -0.0879
 2054TIP3    H1 6119   1.739   3.587   3.479  0.0528  0.8742 -1.5016
 2054TIP3    H2 6120   1.645   3.469   3.478 -0.9217  1.5961  0.1903
 2055TIP3   OH2 6121   0.644   1.987   4.378 -0.2639  0.1114  0.1776
 2055TIP3    H1 6122   0.660   2.070   4.334 -1.5155 -0.4839 -1.5267
 2055TIP3    H2 6123   0.697   1.923   4.330 -1.4984 -0.5164 -0.4022
 2056TIP3   OH2 6124   5.539   1.893   0.178  0.2907 -0.4420 -0.0869
 2056TIP3    H1 6125   5.580   1.814   0.211 -1.8325 -1.7734 -0.4263
 2056TIP3    H2 6126   5.460   1.904   0.231 -0.3763  0.4262 -1.1872
 2057TIP3   OH2 6127   6.710   2.222   2.095 -0.0297 -0.2388  0.0110
 2057TIP3    H1 6128   6.794   2.232   2.140  0.6611 -0.4772 -1.1663
 2057TIP3    H2 6129   6.707   2.129   2.071 -0.4717 -0.1610 -0.2532
 2058TIP3   OH2 6130   4.496   4.585   6.278 -0.8379  0.2042  0.3724
 2058TIP3    H1 6131   4.421   4.624   6.323  0.0388  3.2287 -0.4944
 2058TIP3    H2 6132   4.572   4.625   6.320  0.1282 -0.1163 -0.9916
 2059TIP3   OH2 6133   5.551   3.071   6.142  0.5671  0.0015  0.1710
 2059TIP3    H1 6134   5.572   2.999   6.082 -0.3188 -1.6650  1.7490
 2059TIP3    H2 6135   5.456   3.067   6.152  0.3251  2.2749 -0.6967
 2060TIP3   OH2 6136   2.553   1.271   1.699 -0.3283 -0.6737 -0.4764
 2060TIP3    H1 6137   2.556   1.192   1.754 -0.1894  0.6887  1.5974
 2060TIP3    H2 6138   2.558   1.343   1.761  0.9771  0.9905 -2.3735
 2061TIP3   OH2 6139   0.518   7.392   2.873  0.1878 -0.4709 -0.1417
 2061TIP3    H1 6140   0.488   7.347   2.794  0.4454  0.8865 -1.0459
 2061TIP3    H2 6141   0.529   7.483   2.846  2.3528 -0.3686  0.8919
 2062TIP3   OH2 6142   8.280   2.080   2.742 -0.6368 -0.1881 -0.2157
 2062TIP3    H1 6143   8.313   2.151   2.797 -0.5332 -1.3535  1.2872
 2062TIP3    H2 6144   8.195   2.112   2.710 -0.0075  1.1215 -0.6621
 2063TIP3   OH2 6145   4.040   5.158   1.794  0.5551  0.3110  0.6636
 2063TIP3    H1 6146   4.046   5.253   1.803  1.0964  0.2864  0.5847
 2063TIP3    H2 6147   4.101   5.124   1.859 -0.4364 -0.0176  1.4506
 2064TIP3   OH2 6148   6.016   0.393   5.974  0.2176  0.0311 -0.2363
 2064TIP3    H1 6149   5.927   0.385   6.007 -1.4193  0.2315 -4.0819
 2064TIP3    H2 6150   6.047   0.302   5.968 -1.1751 -0.3754 -2.1660
 2065TIP3   OH2 6151   5.920   7.658   0.823  0.1700  0.4182 -0.3437
 2065TIP3    H1 6152   5.955   7.576   0.789 -1.2620  0.1049 -1.1489
 2065TIP3    H2 6153   5.868   7.694   0.751 -0.1720  1.4410  0.3870
 2066TIP3   OH2 6154   3.472   3.319   1.757 -0.5667  0.5024  0.1231
 2066TIP3    H1 6155   3.400   3.257   1.755 -1.3714  1.3686  0.9833
 2066TIP3    H2 6156   3.458   3.375   1.681  0.0092 -0.1809 -0.5023
 2067TIP3   OH2 6157   7.874   3.675   4.104  0.6061  0.2974 -0.0072
 2067TIP3    H1 6158   7.918   3.624   4.171 -1.1101 -1.9859 -0.4962
 2067TIP3    H2 6159   7.890   3.628   4.022 -0.6425  0.7528 -0.5504
 2068TIP3   OH2 6160   6.933   5.548   2.471 -0.0824 -1.1019 -0.5321
 2068TIP3    H1 6161   7.004   5.525   2.411 -0.3269  0.6860 -1.5704
 2068TIP3    H2 6162   6.869   5.478   2.462  0.9576 -2.0655 -0.5535
 2069TIP3   OH2 6163   2.015   7.176   1.724  0.2439 -0.1427 -0.4057
 2069TIP3    H1 6164   1.940   7.167   1.666  0.4078 -0.7279 -0.5273
 2069TIP3    H2 6165   2.002   7.110   1.792  0.9145 -0.6236 -0.7282
 2070TIP3   OH2 6166   6.860   1.839   5.982  0.7029  0.3401 -0.5528
 2070TIP3    H1 6167   6.943   1.883   5.998  0.6890  1.0490 -2.2339
 2070TIP3    H2 6168   6.878   1.777   5.912  0.3072 -1.1641  0.6148
 2071TIP3   OH2 6169   5.689   6.126   5.542 -0.7650 -0.5185 -0.6564
 2071TIP3    H1 6170   5.741   6.192   5.495  2.1467 -2.2899 -0.1722
 2071TIP3    H2 6171   5.599   6.142   5.514  0.2846  1.2872 -3.4184
 2072TIP3   OH2 6172   2.419   3.494   5.367 -0.1865  0.2837 -0.1217
 2072TIP3    H1 6173   2.445   3.585   5.357  1.7704 -0.3471 -1.2845
 2072TIP3    H2 6174   2.476   3.446   5.307 -1.0598 -1.7303  0.5731
 2073TIP3   OH2 6175   2.064   0.863   4.189 -0.1580  0.6810  0.4750
 2073TIP3    H1 6176   2.130   0.914   4.237  2.5463 -2.8119  0.8797
 2073TIP3    H2 6177   2.015   0.817   4.257  0.8371 -1.0340  0.0748
 2074TIP3   OH2 6178   7.704   6.561   0.232 -0.2858 -0.2132  0.3101
 2074TIP3    H1 6179   7.762   6.588   0.303  0.3962 -0.1791 -0.2566
 2074TIP3    H2 6180   7.733   6.612   0.156  0.7360 -2.1874 -0.6849
 2075TIP3   OH2 6181   4.891   6.539   5.312  0.5408 -0.1861 -0.4720
 2075TIP3    H1 6182   4.844   6.581   5.240  0.3649  1.4030  0.5124
 2075TIP3    H2 6183   4.884   6.601   5.385 -1.4441 -2.7175  1.7355
 2076TIP3   OH2 6184   6.120   7.488   2.537 -0.1457 -0.3412  0.1933
 2076TIP3    H1 6185   6.171   7.414   2.570  0.7566  0.4860  0.7348
 2076TIP3    H2 6186   6.089   7.460   2.451  0.1014 -1.3733  0.4240
 2077TIP3   OH2 6187   0.849   6.657   3.455  0.6324 -0.6876  0.7392
 2077TIP3    H1 6188   0.835   6.573   3.497  2.0488 -1.0166  0.5824
 2077TIP3    H2 6189   0.926   6.645   3.400 -0.1592  0.2229 -0.6431
 2078TIP3   OH2 6190   7.197   0.383   5.240  0.2943  0.7602 -0.0140
 2078TIP3    H1 6191   7.253   0.459   5.224  0.5467  0.7877  0.9098
 2078TIP3    H2 6192   7.239   0.312   5.192  2.1207  0.3828  1.9597
 2079TIP3   OH2 6193   0.873   5.025   1.001 -0.3657 -0.1252  0.2995
 2079TIP3    H1 6194   0.842   4.935   1.013 -1.8025  0.3649  0.3686
 2079TIP3    H2 6195   0.874   5.038   0.907 -0.0985 -0.2207  0.2868
 2080TIP3   OH2 6196   1.146   5.749   6.135 -0.0529 -0.3676 -0.2734
 2080TIP3    H1 6197   1.213   5.813   6.111  0.6152  0.1644  2.6411
 2080TIP3    H2 6198   1.142   5.689   6.060  1.9986  0.9229 -1.5122
 2081TIP3   OH2 6199   3.889   2.431   3.339 -0.1348 -0.0034  0.2145
 2081TIP3    H1 6200   3.966   2.375   3.329 -0.8733 -0.9431 -0.3651
 2081TIP3    H2 6201   3.837   2.388   3.406 -0.3741  0.3867  0.2802
 2082TIP3   OH2 6202   5.079   7.523   2.940  0.5722 -0.3594  0.0929
 2082TIP3    H1 6203   5.036   7.444   2.909  2.3016 -1.0163 -0.8000
 2082TIP3    H2 6204   5.160   7.528   2.888  1.7564  0.5845  1.9107
 2083TIP3   OH2 6205   7.211   5.412   5.981  0.0579 -0.1570 -0.3158
 2083TIP3    H1 6206   7.195   5.364   5.899 -0.6587  0.0583 -0.3119
 2083TIP3    H2 6207   7.162   5.362   6.047 -3.1497  2.0593 -0.7709
 2084TIP3   OH2 6208   1.022   4.470   0.471 -0.3660  0.1023 -0.0498
 2084TIP3    H1 6209   0.931   4.469   0.442 -0.4456  1.0328  0.1338
 2084TIP3    H2 6210   1.017   4.492   0.564 -0.0231 -1.2324  0.3041
 2085TIP3   OH2 6211   2.345   1.762   5.403 -0.7878 -0.4709 -0.4362
 2085TIP3    H1 6212   2.320   1.791   5.491  2.3282  0.3940  0.2859
 2085TIP3    H2 6213   2.358   1.668   5.412  0.2980 -0.2771  0.3131
 2086TIP3   OH2 6214   2.638   5.136   2.174 -0.3206  0.0224  0.0397
 2086TIP3    H1 6215   2.549   5.135   2.140 -0.5825  3.5432  0.2678
 2086TIP3    H2 6216   2.688   5.186   2.110  0.7809  0.7428  1.4089
 2087TIP3   OH2 6217   7.180   0.121   4.701 -0.2529  0.4827 -0.4638
 2087TIP3    H1 6218   7.217   0.036   4.725 -0.1172  0.7337  0.2171
 2087TIP3    H2 6219   7.095   0.125   4.745 -0.2638  0.6943 -0.5001
 2088TIP3   OH2 6220   4.144   2.904   1.693  0.0085  0.1296 -0.1287
 2088TIP3    H1 6221   4.143   2.958   1.772  2.6914  0.4391 -0.2017
 2088TIP3    H2 6222   4.059   2.919   1.652 -1.9294 -0.8476  3.1626
 2089TIP3   OH2 6223   7.225   4.444   5.270 -0.2012 -0.2551  0.0886
 2089TIP3    H1 6224   7.294   4.441   5.204 -0.8961 -0.9746 -0.6249
 2089TIP3    H2 6225   7.165   4.513   5.240  1.3638  2.0844  1.9382
 2090TIP3   OH2 6226   8.060   6.931   3.349  0.0676 -0.4985  0.2120
 2090TIP3    H1 6227   8.023   6.921   3.437  0.4357 -1.0592  0.3053
 2090TIP3    H2 6228   8.119   6.857   3.339  1.4071  0.5394  0.1833
 2091TIP3   OH2 6229   7.791   0.293   3.618 -0.2679  0.1446 -0.3041
 2091TIP3    H1 6230   7.809   0.292   3.524 -2.4514  4.6979 -1.0282
 2091TIP3    H2 6231   7.874   0.315   3.658  0.1586  0.7252 -1.4604
 2092TIP3   OH2 6232   3.543   0.482   1.637 -0.2342 -0.2956  0.6115
 2092TIP3    H1 6233   3.482   0.469   1.565 -0.8474 -2.7875  1.4806
 2092TIP3    H2 6234   3.601   0.406   1.634 -0.1115 -0.3447  2.5755
 2093TIP3   OH2 6235   3.679   3.052   0.522  0.3855 -0.1085 -0.0884
 2093TIP3    H1 6236   3.705   3.118   0.586  0.1817 -0.6231  0.5362
 2093TIP3    H2 6237   3.685   2.969   0.569  2.2578 -0.7513 -1.3408
 2094TIP3   OH2 6238   4.130   3.684   6.428  0.0569  0.2134 -0.4212
 2094TIP3    H1 6239   4.181   3.764   6.442 -0.2611  0.4023 -0.3292
 2094TIP3    H2 6240   4.088   3.667   6.513 -0.6367  0.4884 -0.7022
 2095TIP3   OH2 6241   2.897   0.341   4.700  0.0011 -0.0407 -0.4086
 2095TIP3    H1 6242   2.873   0.417   4.753  0.3929  1.4942 -2.3357
 2095TIP3    H2 6243   2.913   0.376   4.613 -0.1147 -2.3992 -1.4571
 2096TIP3   OH2 6244   8.047   2.171   4.416  0.3034  0.4199  0.3125
 2096TIP3    H1 6245   7.965   2.202   4.454 -0.2161 -1.4445  0.8418
 2096TIP3    H2 6246   8.047   2.204   4.327 -1.4019 -0.1465  0.0708
 2097TIP3   OH2 6247   0.410   3.466   3.221  0.0822  0.1404 -0.6493
 2097TIP3    H1 6248   0.441   3.480   3.311  0.3064  0.6420 -0.7991
 2097TIP3    H2 6249   0.483   3.423   3.176 -0.6973 -1.8045 -0.1261
 2098TIP3   OH2 6250   4.237   4.442   6.082  0.4096  0.3096  0.4392
 2098TIP3    H1 6251   4.187   4.476   6.156 -2.3653 -1.4268 -0.4880
 2098TIP3    H2 6252   4.323   4.423   6.118 -0.6298  0.2084  3.0699
 2099TIP3   OH2 6253   7.796   3.100   3.371 -0.1110  0.2763  0.6627
 2099TIP3    H1 6254   7.813   3.064   3.458  0.8695  1.0226  0.7912
 2099TIP3    H2 6255   7.876   3.147   3.348  0.4129 -1.4644 -1.4470
 2100TIP3   OH2 6256   5.128   2.175   1.951  0.2168  0.5111  0.0974
 2100TIP3    H1 6257   5.074   2.097   1.939  0.4510  0.3170  0.2962
 2100TIP3    H2 6258   5.188   2.174   1.876 -1.0444  1.5564 -0.9692
 2101TIP3   OH2 6259   6.127   7.706   4.334 -0.4210  0.7004 -0.3747
 2101TIP3    H1 6260   6.185   7.702   4.258  1.0356 -2.1696  0.7238
 2101TIP3    H2 6261   6.058   7.642   4.315 -0.1551  0.1044  0.5729
 2102TIP3   OH2 6262   4.646   7.635   6.361 -0.6872  0.5687 -0.3093
 2102TIP3    H1 6263   4.626   7.647   6.268  0.5562 -1.3053 -0.8867
 2102TIP3    H2 6264   4.737   7.606   6.362 -0.1732  2.0433  1.6524
 2103TIP3   OH2 6265   3.024   0.622   0.913 -0.6021 -0.0607  0.2233
 2103TIP3    H1 6266   3.096   0.566   0.882 -1.1514 -0.8313  0.2980
 2103TIP3    H2 6267   3.050   0.648   1.001  0.6034  1.4935 -0.5450
 2104TIP3   OH2 6268   0.112   2.729   3.995 -0.3023  0.4665  0.2800
 2104TIP3    H1 6269   0.109   2.777   3.912 -2.4696  0.2194  0.1453
 2104TIP3    H2 6270   0.040   2.767   4.046  0.0758 -0.3850  1.4761
 2105TIP3   OH2 6271   6.326   6.894   1.327  0.2675 -0.2583 -0.1016
 2105TIP3    H1 6272   6.299   6.947   1.402  1.6570  0.4991 -0.0918
 2105TIP3    H2 6273   6.360   6.814   1.366 -2.1737 -1.3994 -0.1318
 2106TIP3   OH2 6274   5.017   7.631   0.809  0.4666  0.3862 -0.5897
 2106TIP3    H1 6275   5.048   7.540   0.811 -0.1687  0.0864 -2.4751
 2106TIP3    H2 6276   4.963   7.636   0.731 -0.6883  2.0429  0.2575
 2107TIP3   OH2 6277   1.874   1.260   0.879  0.1871  0.1461 -0.3138
 2107TIP3    H1 6278   1.791   1.214   0.891  0.4948 -0.3087  0.0831
 2107TIP3    H2 6279   1.851   1.336   0.826 -0.2846 -0.6016 -1.2079
 2108TIP3   OH2 6280   7.783   6.272   0.856  0.1989 -0.2470 -0.4154
 2108TIP3    H1 6281   7.747   6.256   0.769  0.8187  0.0484 -0.7308
 2108TIP3    H2 6282   7.857   6.211   0.863  3.0154  2.6675 -1.8832
 2109TIP3   OH2 6283   0.170   2.751   1.000  0.0619 -0.2520  0.0220
 2109TIP3    H1 6284   0.248   2.798   0.971  0.0502  0.5987  1.3115
 2109TIP3    H2 6285   0.116   2.817   1.042 -0.4183 -1.2088  0.9698
 2110TIP3   OH2 6286   3.117   6.972   6.504  0.0624  0.1295 -0.1394
 2110TIP3    H1 6287   3.181   7.019   6.451  0.4540 -0.7310 -0.4426
 2110TIP3    H2 6288   3.152   6.975   6.593  0.3692 -0.0710 -0.2527
 2111TIP3   OH2 6289   3.585   5.004   4.522  0.4167 -0.1336  0.9707
 2111TIP3    H1 6290   3.557   4.994   4.431 -0.1616  0.0429  1.1284
 2111TIP3    H2 6291   3.637   4.925   4.539  1.3675  0.3044  0.1874
 2112TIP3   OH2 6292   2.749   2.180   1.484  0.0600  0.0884  0.6305
 2112TIP3    H1 6293   2.748   2.085   1.489 -0.3083  0.1118  1.0002
 2112TIP3    H2 6294   2.840   2.204   1.504  0.6689 -0.2832 -1.4357
 2113TIP3   OH2 6295   2.157   6.276   4.612 -0.2144  0.7191  0.1994
 2113TIP3    H1 6296   2.079   6.237   4.572  0.6713 -0.6172 -0.3007
 2113TIP3    H2 6297   2.227   6.256   4.551  0.9039 -0.0383  1.6705
 2114TIP3   OH2 6298   3.923   4.213   1.750 -0.0767  0.2634 -0.3995
 2114TIP3    H1 6299   3.849   4.270   1.773 -0.1967  0.2398 -0.7112
 2114TIP3    H2 6300   3.883   4.142   1.700  0.2095  0.4890 -0.9607
 2115TIP3   OH2 6301   6.413   3.359   2.214 -0.0563 -0.2659  0.0171
 2115TIP3    H1 6302   6.391   3.368   2.121 -2.7342 -0.8179  0.5122
 2115TIP3    H2 6303   6.411   3.265   2.231  1.3726 -0.2454  0.4785
 2116TIP3   OH2 6304   0.583   1.395   4.874 -0.3610  0.2287  0.3756
 2116TIP3    H1 6305   0.627   1.313   4.854 -0.1869 -0.4465  3.1491
 2116TIP3    H2 6306   0.490   1.372   4.877 -0.2064 -0.3659  2.8262
 2117TIP3   OH2 6307   0.833   2.951   6.456  0.4417  0.1232 -0.1211
 2117TIP3    H1 6308   0.817   3.033   6.408  1.8301 -0.2862 -1.3398
 2117TIP3    H2 6309   0.796   2.967   6.543 -1.7642  1.0524 -1.1421
 2118TIP3   OH2 6310   8.077   1.877   4.426  0.5140 -0.0139 -0.1675
 2118TIP3    H1 6311   8.061   1.971   4.435  0.8504 -0.0738  1.2990
 2118TIP3    H2 6312   8.018   1.837   4.491  1.2779 -0.7191  0.1036
 2119TIP3   OH2 6313   7.031   7.320   6.371 -0.3425 -0.1043 -0.8404
 2119TIP3    H1 6314   7.002   7.383   6.438 -0.3927 -0.6848 -0.3087
 2119TIP3    H2 6315   6.993   7.237   6.399 -0.3120 -0.3645 -1.5672
 2120TIP3   OH2 6316   0.224   6.886   1.811  0.1855 -0.1164 -0.1623
 2120TIP3    H1 6317   0.190   6.810   1.858  1.4315 -1.1779 -0.8880
 2120TIP3    H2 6318   0.305   6.909   1.857 -0.5486  1.2541  0.4873
 2121TIP3   OH2 6319   6.621   5.263   3.803 -0.8510 -0.6128  0.1057
 2121TIP3    H1 6320   6.675   5.309   3.867 -0.4234  0.1439 -0.7713
 2121TIP3    H2 6321   6.665   5.279   3.719 -0.6711 -2.6840 -0.2265
 2122TIP3   OH2 6322   6.225   1.082   1.078 -0.6114 -0.0199  0.3381
 2122TIP3    H1 6323   6.266   1.141   1.142 -1.8459 -0.1877  1.3251
 2122TIP3    H2 6324   6.223   1.132   0.997  1.8374 -0.1354  0.1437
 2123TIP3   OH2 6325   4.941   0.574   1.051 -0.3187 -0.0643  0.0271
 2123TIP3    H1 6326   4.999   0.516   1.002  1.2017 -1.1554  2.8895
 2123TIP3    H2 6327   4.873   0.515   1.086 -2.2926  0.9335 -1.8765
 2124TIP3   OH2 6328   7.797   3.492   6.387 -0.1660  0.2961  0.3476
 2124TIP3    H1 6329   7.812   3.401   6.361 -0.0187  0.6185 -0.7353
 2124TIP3    H2 6330   7.724   3.487   6.448  0.7392 -0.6921  1.4058
 2125TIP3   OH2 6331   7.760   1.576   2.156  0.1197 -0.0152 -0.2187
 2125TIP3    H1 6332   7.749   1.645   2.222  0.9583 -0.5216  0.4648
 2125TIP3    H2 6333   7.671   1.558   2.126 -0.2090  0.6926  0.2857
 2126TIP3   OH2 6334   3.829   0.168   2.535 -0.6727  0.1017 -0.1344
 2126TIP3    H1 6335   3.889   0.184   2.607  1.0156 -2.8954 -0.7241
 2126TIP3    H2 6336   3.780   0.250   2.526  2.9750  2.6016  0.6528
 2127TIP3   OH2 6337   2.758   2.524   0.698 -0.1801 -0.2132 -0.5176
 2127TIP3    H1 6338   2.703   2.559   0.628  1.0524  0.3419 -1.2430
 2127TIP3    H2 6339   2.848   2.533   0.665  0.3776 -0.7942  0.7613
 2128TIP3   OH2 6340   8.308   3.996   4.319 -0.2707 -0.3547  0.1716
 2128TIP3    H1 6341   8.278   4.049   4.245  0.0052 -1.9919 -1.2027
 2128TIP3    H2 6342   8.234   3.939   4.339  0.2114 -1.0572  0.0174
 2129TIP3   OH2 6343   4.640   7.271   3.032 -0.3269 -0.1475 -0.2824
 2129TIP3    H1 6344   4.656   7.365   3.039  0.3009 -0.3735  3.8252
 2129TIP3    H2 6345   4.544   7.263   3.035 -0.3540  0.3771  0.7398
 2130TIP3   OH2 6346   4.502   4.105   0.459  0.5012  0.2160 -0.1270
 2130TIP3    H1 6347   4.419   4.081   0.419  0.2712  0.5820  0.1217
 2130TIP3    H2 6348   4.488   4.194   0.491  0.9127  0.1917  0.1248
 2131TIP3   OH2 6349   4.848   6.754   1.795  0.2840  0.4480  0.0423
 2131TIP3    H1 6350   4.773   6.776   1.850 -0.9926  0.9874 -1.7934
 2131TIP3    H2 6351   4.872   6.838   1.754  0.1917 -0.1743 -1.3522
 2132TIP3   OH2 6352   5.222   4.494   2.010 -0.0137 -0.3005 -0.0097
 2132TIP3    H1 6353   5.200   4.585   1.991 -0.0845 -0.2824  0.1583
 2132TIP3    H2 6354   5.294   4.473   1.950 -0.5606 -0.3955 -0.6540
 2133TIP3   OH2 6355   2.446   2.766   1.517  1.0734 -0.6651  0.5204
 2133TIP3    H1 6356   2.466   2.812   1.598  1.7693 -0.0197 -0.0005
 2133TIP3    H2 6357   2.351   2.767   1.511  1.0656  1.2848  0.2240
 2134TIP3   OH2 6358   0.855   3.410   5.859 -0.2187 -0.1120 -0.1703
 2134TIP3    H1 6359   0.889   3.476   5.919 -0.4090  2.3532 -2.5663
 2134TIP3    H2 6360   0.931   3.356   5.837  0.1084 -0.2808  1.2907
 2135TIP3   OH2 6361   7.868   5.990   3.354  0.2594  0.2359  0.5463
 2135TIP3    H1 6362   7.867   6.042   3.435  0.0607 -1.4472  1.6829
 2135TIP3    H2 6363   7.920   6.041   3.293 -0.7920  2.2545  1.2401
 2136TIP3   OH2 6364   0.082   2.724   0.635 -0.1626  0.3130  0.0509
 2136TIP3    H1 6365   0.064   2.686   0.722  1.2862 -0.4396  0.0567
 2136TIP3    H2 6366   0.066   2.652   0.574  0.7066  0.2491 -0.1175
 2137TIP3   OH2 6367   1.528   0.534   4.125 -0.0100 -0.3304 -0.6492
 2137TIP3    H1 6368   1.529   0.439   4.117  1.0888 -0.1962 -2.7600
 2137TIP3    H2 6369   1.476   0.564   4.050 -0.3539  0.7400 -0.0080
 2138TIP3   OH2 6370   1.662   5.648   5.758 -0.0218  0.6131  0.7101
 2138TIP3    H1 6371   1.642   5.740   5.777 -1.9752 -0.0114  1.9165
 2138TIP3    H2 6372   1.578   5.609   5.734  0.8171 -0.8257 -0.0224
 2139TIP3   OH2 6373   8.095   5.878   5.442 -0.4156  0.0906  0.3997
 2139TIP3    H1 6374   8.186   5.856   5.423 -0.1800 -0.3816  1.9076
 2139TIP3    H2 6375   8.044   5.825   5.381  0.3134  0.6816 -0.7523
 2140TIP3   OH2 6376   7.103   5.354   4.960  0.1599 -0.1679 -0.2611
 2140TIP3    H1 6377   7.007   5.364   4.958  0.2754  0.9603 -1.0582
 2140TIP3    H2 6378   7.118   5.287   5.027 -1.1018  0.9601  1.2553
 2141TIP3   OH2 6379   2.701   5.301   5.404 -0.1408  0.1697 -0.0117
 2141TIP3    H1 6380   2.605   5.300   5.402 -0.1428 -0.5037 -1.5631
 2141TIP3    H2 6381   2.726   5.283   5.313  1.4612  0.4002  0.3602
 2142TIP3   OH2 6382   4.749   6.930   3.377  0.1571  0.3700 -0.4363
 2142TIP3    H1 6383   4.826   6.950   3.324  1.1285 -1.9600 -0.0559
 2142TIP3    H2 6384   4.686   6.999   3.356  2.3802  2.4754 -0.6228
 2143TIP3   OH2 6385   5.036   2.770   1.263 -0.1326 -0.1682 -0.8579
 2143TIP3    H1 6386   5.065   2.767   1.172 -0.4320 -0.5902 -0.9406
 2143TIP3    H2 6387   4.996   2.684   1.279  0.2284 -0.2250 -0.2252
 2144TIP3   OH2 6388   1.974   6.526   5.277 -0.3953 -0.6561 -0.4724
 2144TIP3    H1 6389   2.056   6.534   5.228  0.1841  1.3513  0.7398
 2144TIP3    H2 6390   1.906   6.539   5.212  0.2573 -1.1828 -1.2850
 2145TIP3   OH2 6391   7.553   0.672   3.472  0.4009  0.3970  0.4863
 2145TIP3    H1 6392   7.536   0.634   3.558 -0.1857 -1.7528 -0.5302
 2145TIP3    H2 6393   7.648   0.661   3.459  0.5651  1.0991  0.9806
 2146TIP3   OH2 6394   2.786   0.268   6.713  0.0462  0.9827 -0.1471
 2146TIP3    H1 6395   2.718   0.236   6.653  0.2679  1.9137 -0.9127
 2146TIP3    H2 6396   2.755   0.354   6.741 -0.1591  0.4697  1.2748
 2147TIP3   OH2 6397   0.054   4.539   6.005 -0.0373 -0.1428 -0.1133
 2147TIP3    H1 6398   0.060   4.444   6.012 -2.8071 -0.6643 -2.8763
 2147TIP3    H2 6399   0.032   4.568   6.093 -0.0163 -2.1219  0.5957
 2148TIP3   OH2 6400   8.057   3.880   3.938 -0.4366 -0.0801  0.2242
 2148TIP3    H1 6401   8.073   3.843   3.851 -2.3046 -1.7697  0.5134
 2148TIP3    H2 6402   7.963   3.893   3.942 -0.2099  1.5066  1.4480
 2149TIP3   OH2 6403   4.814   4.548   3.550  0.2687 -0.0946  0.0777
 2149TIP3    H1 6404   4.898   4.544   3.597  0.8485 -0.2891 -0.9511
 2149TIP3    H2 6405   4.797   4.457   3.526  0.4650  0.1278 -0.9208
 2150TIP3   OH2 6406   4.616   3.799   6.551 -0.3896  0.2989 -0.8791
 2150TIP3    H1 6407   4.586   3.851   6.475  0.5041  0.2639 -1.2698
 2150TIP3    H2 6408   4.553   3.727   6.557 -0.9437  0.7553 -1.0809
 2151TIP3   OH2 6409   2.813   1.901   1.548  0.4765  0.0627  0.0681
 2151TIP3    H1 6410   2.799   1.868   1.459 -0.4956  0.2701  0.1282
 2151TIP3    H2 6411   2.780   1.831   1.604  1.6207 -0.3112  0.2902
 2152TIP3   OH2 6412   3.307   2.733   0.076  0.2446  0.2002 -0.6268
 2152TIP3    H1 6413   3.271   2.822   0.071 -2.6055 -0.6098  2.0571
 2152TIP3    H2 6414   3.256   2.684   0.012 -0.5846 -0.1096  0.2428
 2153TIP3   OH2 6415   6.438   5.618   4.687 -0.0790  0.0016 -0.4895
 2153TIP3    H1 6416   6.395   5.653   4.764  0.5008 -0.6184  0.1287
 2153TIP3    H2 6417   6.395   5.534   4.671  0.6404 -0.4586 -0.0747
 2154TIP3   OH2 6418   1.428   4.528   1.140  0.1165  0.4398 -0.1970
 2154TIP3    H1 6419   1.446   4.558   1.230 -0.0906 -1.8730  0.6741
 2154TIP3    H2 6420   1.347   4.477   1.148  1.1905 -1.5108 -1.3008
 2155TIP3   OH2 6421   4.580   2.762   0.097 -0.3267 -0.4674 -0.0259
 2155TIP3    H1 6422   4.637   2.687   0.108 -2.3097 -1.6983  3.6797
 2155TIP3    H2 6423   4.638   2.833   0.069  2.2687 -2.4575 -0.0639
 2156TIP3   OH2 6424   0.036   1.812   3.691  0.4831  0.3999 -0.2932
 2156TIP3    H1 6425  -0.030   1.863   3.738  0.4077 -0.0239  0.0608
 2156TIP3    H2 6426   0.120   1.844   3.726  0.4531  0.5875 -0.3883
 2157TIP3   OH2 6427   0.943   1.297   2.103 -0.0146 -0.3057  0.2385
 2157TIP3    H1 6428   0.971   1.234   2.037  1.4475 -0.5926  1.0862
 2157TIP3    H2 6429   0.876   1.250   2.153 -1.4450  0.0610 -1.2354
 2158TIP3   OH2 6430   0.471   5.276   1.416  0.0958  0.2348  0.0907
 2158TIP3    H1 6431   0.438   5.362   1.443 -0.4598  0.5520 -1.4678
 2158TIP3    H2 6432   0.501   5.290   1.326 -1.6566 -1.5932 -0.8530
 2159TIP3   OH2 6433   4.444   3.253   5.407  0.0049 -0.3104  0.6200
 2159TIP3    H1 6434   4.374   3.293   5.355  1.4807  2.5231  0.6539
 2159TIP3    H2 6435   4.510   3.227   5.343  0.4877  0.3943  0.8159
 2160TIP3   OH2 6436   3.052   2.477   0.842  0.0666  0.2748  0.0227
 2160TIP3    H1 6437   2.992   2.430   0.901  0.0277 -1.8597 -1.5905
 2160TIP3    H2 6438   3.059   2.565   0.880 -0.1186 -0.9019  3.0473
 2161TIP3   OH2 6439   2.528   4.500   5.264  0.2084  0.1132 -0.3639
 2161TIP3    H1 6440   2.564   4.490   5.176 -0.2990  0.6307 -0.6347
 2161TIP3    H2 6441   2.446   4.547   5.251  0.0641  0.0734  0.3742
 2162TIP3   OH2 6442   0.315   5.925   1.252  0.2071  0.3556  0.1598
 2162TIP3    H1 6443   0.307   5.959   1.162  1.5813 -1.2520 -0.6261
 2162TIP3    H2 6444   0.261   5.846   1.253 -0.7412  0.9909  1.1303
 2163TIP3   OH2 6445   6.967   7.377   2.847  0.0653  0.3151  0.2471
 2163TIP3    H1 6446   6.987   7.407   2.936  1.0371 -1.5646  0.7118
 2163TIP3    H2 6447   7.047   7.395   2.798 -1.1561  3.2687 -0.8562
 2164TIP3   OH2 6448   3.671   6.980   5.150 -0.2716  0.0176 -0.5955
 2164TIP3    H1 6449   3.766   6.989   5.151 -0.1735 -0.7764  1.0146
 2164TIP3    H2 6450   3.638   7.065   5.178  0.0763 -0.3965  1.1508
 2165TIP3   OH2 6451   5.194   6.948   5.401 -0.0127 -0.2092  0.5259
 2165TIP3    H1 6452   5.237   6.924   5.483 -2.1587  0.3150  1.8735
 2165TIP3    H2 6453   5.103   6.921   5.412 -0.4768  0.3117 -1.5105
 2166TIP3   OH2 6454   3.872   1.685   5.871  0.0240 -0.0443  0.0475
 2166TIP3    H1 6455   3.855   1.689   5.777  1.6650 -1.1677 -0.3329
 2166TIP3    H2 6456   3.825   1.607   5.901  1.7180 -1.2932 -0.4030
 2167TIP3   OH2 6457   1.307   4.760   5.855  0.0291  0.3274  0.7445
 2167TIP3    H1 6458   1.229   4.804   5.887 -1.1824 -0.8223 -0.5066
 2167TIP3    H2 6459   1.379   4.820   5.876 -1.4316  2.4798 -0.0597
 2168TIP3   OH2 6460   1.543   4.672   3.334  0.5181  0.4889  0.0212
 2168TIP3    H1 6461   1.539   4.676   3.430 -1.1628 -0.7314  0.0471
 2168TIP3    H2 6462   1.522   4.760   3.305 -1.8897  0.2327  0.7763
 2169TIP3   OH2 6463   2.327   6.759   3.903  0.1319  0.4015  0.5862
 2169TIP3    H1 6464   2.306   6.665   3.905 -0.9357  0.6148  0.2082
 2169TIP3    H2 6465   2.416   6.763   3.870  0.1762 -0.4819  0.5678
 2170TIP3   OH2 6466   5.179   3.651   6.191  0.5283  0.1396  0.4276
 2170TIP3    H1 6467   5.225   3.715   6.136 -0.8150  0.5939 -0.2145
 2170TIP3    H2 6468   5.121   3.605   6.131 -2.4911  2.0052  1.6779
 2171TIP3   OH2 6469   3.796   0.875   0.963  0.3000 -0.0045  0.4456
 2171TIP3    H1 6470   3.786   0.950   0.904  0.9340 -0.2347  0.0365
 2171TIP3    H2 6471   3.801   0.799   0.905  1.4552 -0.1824  0.7498
 2172TIP3   OH2 6472   3.983   7.676   5.040 -0.0189  0.3607  0.2711
 2172TIP3    H1 6473   4.072   7.669   5.004  0.1653 -1.3017  0.9400
 2172TIP3    H2 6474   3.926   7.671   4.963  0.4450  0.4994 -0.0893
 2173TIP3   OH2 6475   1.317   0.616   1.763  0.3606 -0.4914 -0.1254
 2173TIP3    H1 6476   1.250   0.592   1.826 -0.8665  0.8916 -0.8386
 2173TIP3    H2 6477   1.378   0.670   1.812 -1.2508  1.6345 -0.2990
 2174TIP3   OH2 6478   4.412   2.145   4.487  0.3694  0.0740 -0.1042
 2174TIP3    H1 6479   4.377   2.226   4.450 -1.2344 -0.4539  0.1990
 2174TIP3    H2 6480   4.435   2.168   4.577 -2.4273 -0.3558  0.8055
 2175TIP3   OH2 6481   6.260   1.781   2.952 -0.2533  0.1630  0.0950
 2175TIP3    H1 6482   6.215   1.702   2.981  0.1736  0.0235  0.3768
 2175TIP3    H2 6483   6.326   1.751   2.890 -0.0737  0.2958  0.2204
 2176TIP3   OH2 6484   1.823   3.783   4.928  0.1075 -0.4240  0.3866
 2176TIP3    H1 6485   1.794   3.725   4.999  0.9162  0.4238  1.4381
 2176TIP3    H2 6486   1.778   3.750   4.850 -1.8566 -0.5815  1.5167
 2177TIP3   OH2 6487   7.446   1.264   4.144 -0.2784  0.2343  0.1086
 2177TIP3    H1 6488   7.413   1.261   4.054 -1.3300 -0.8388  0.4918
 2177TIP3    H2 6489   7.539   1.284   4.135  0.2284 -2.2894 -1.4119
 2178TIP3   OH2 6490   5.709   6.184   2.447  0.1158  0.0291 -0.1369
 2178TIP3    H1 6491   5.787   6.227   2.411  1.9881 -1.1994  2.1422
 2178TIP3    H2 6492   5.669   6.250   2.503  1.8327 -0.4017  1.7456
 2179TIP3   OH2 6493   6.196   3.461   4.532  0.1494  0.2959 -0.4585
 2179TIP3    H1 6494   6.173   3.412   4.611 -1.3200  0.4852 -0.7458
 2179TIP3    H2 6495   6.242   3.538   4.565  2.0480 -0.9827  0.0212
 2180TIP3   OH2 6496   5.524   6.263   5.179 -0.1367  0.0900  0.2299
 2180TIP3    H1 6497   5.562   6.203   5.115  0.6528 -0.5687  1.2842
 2180TIP3    H2 6498   5.435   6.278   5.147 -0.4927 -1.9367  0.1167
 2181TIP3   OH2 6499   3.985   0.197   2.777 -0.4260  0.0351 -0.3382
 2181TIP3    H1 6500   3.947   0.267   2.829  0.0194 -0.7545  1.1302
 2181TIP3    H2 6501   3.936   0.119   2.803  0.1001 -0.4456 -0.7743
 2182TIP3   OH2 6502   3.639   3.380   5.202  0.3425 -0.1634  0.4375
 2182TIP3    H1 6503   3.677   3.345   5.121  1.0251 -1.2699  1.2137
 2182TIP3    H2 6504   3.569   3.319   5.223 -0.8025  0.9348 -0.0748
 2183TIP3   OH2 6505   6.713   4.906   5.803  0.4949 -0.0689  0.1068
 2183TIP3    H1 6506   6.639   4.862   5.761  0.8805  0.1447 -0.8071
 2183TIP3    H2 6507   6.751   4.838   5.860  0.2821 -0.5136 -0.2770
 2184TIP3   OH2 6508   5.634   4.860   1.413  0.4308  0.1622 -0.3229
 2184TIP3    H1 6509   5.605   4.941   1.372 -0.4141  0.1081  0.1548
 2184TIP3    H2 6510   5.596   4.791   1.359  0.5051  0.0831 -0.2741
 2185TIP3   OH2 6511   7.760   0.327   0.147  0.3973 -0.2999 -0.5835
 2185TIP3    H1 6512   7.817   0.250   0.159  0.6826  0.1801  1.7999
 2185TIP3    H2 6513   7.809   0.398   0.189 -0.2456  1.0217 -1.9997
 2186TIP3   OH2 6514   7.362   5.998   4.633 -0.3744  0.1450 -0.1409
 2186TIP3    H1 6515   7.272   5.986   4.603 -0.3300  0.6011 -0.4702
 2186TIP3    H2 6516   7.355   6.015   4.727 -0.8538  2.6153 -0.5387
 2187TIP3   OH2 6517   3.207   4.155   5.451 -0.1277  0.0610  0.4370
 2187TIP3    H1 6518   3.206   4.166   5.356  0.7011 -1.6275  0.1940
 2187TIP3    H2 6519   3.185   4.242   5.485 -0.6097  0.6620 -1.2830
 2188TIP3   OH2 6520   0.513   3.635   0.059  0.2051  0.6369  0.0340
 2188TIP3    H1 6521   0.434   3.663   0.106  0.4846 -2.0155  2.3774
 2188TIP3    H2 6522   0.494   3.545   0.032  1.0742  1.2212 -2.8297
 2189TIP3   OH2 6523   5.893   5.738   2.091 -0.3578  0.0849 -0.3830
 2189TIP3    H1 6524   5.862   5.808   2.034  0.5669  0.3960 -0.5199
 2189TIP3    H2 6525   5.840   5.747   2.171 -1.2354  0.0252 -0.9500
 2190TIP3   OH2 6526   0.924   5.648   2.965  0.4645  0.6819  0.0081
 2190TIP3    H1 6527   0.892   5.600   2.888  1.8603 -1.2258  0.5387
 2190TIP3    H2 6528   0.847   5.694   2.997 -0.7734 -0.5124 -1.0790
 2191TIP3   OH2 6529   2.499   3.457   0.944  0.0789 -0.3764 -0.3135
 2191TIP3    H1 6530   2.428   3.396   0.926 -0.3816  0.3668 -1.1636
 2191TIP3    H2 6531   2.503   3.464   1.039 -1.5546  0.1855 -0.2636
 2192TIP3   OH2 6532   6.266   6.110   4.878 -0.5287  0.1946  0.3638
 2192TIP3    H1 6533   6.318   6.168   4.932 -0.3014  0.3674 -0.0360
 2192TIP3    H2 6534   6.179   6.111   4.918 -0.4869  0.6893  0.4465
 2193TIP3   OH2 6535   2.971   2.733   5.793 -0.6190  0.1120 -0.0843
 2193TIP3    H1 6536   2.946   2.772   5.710 -0.0457  1.5142  0.3580
 2193TIP3    H2 6537   3.066   2.723   5.786 -0.4388  1.0613  0.6897
 2194TIP3   OH2 6538   7.939   5.766   5.845  0.0305 -0.6648 -0.2559
 2194TIP3    H1 6539   7.847   5.745   5.829  0.0794 -0.3162 -1.0135
 2194TIP3    H2 6540   7.953   5.742   5.937 -0.8038 -0.7520 -0.1441
 2195TIP3   OH2 6541   0.265   2.388   5.237 -0.1132  0.0404 -0.1594
 2195TIP3    H1 6542   0.181   2.417   5.202 -0.5456 -1.0606 -0.0549
 2195TIP3    H2 6543   0.243   2.343   5.319  0.5506 -0.5380 -0.2873
 2196TIP3   OH2 6544   5.140   1.787   4.023  0.2558 -0.4992  0.0167
 2196TIP3    H1 6545   5.073   1.738   4.071  0.3383 -1.3443 -0.7020
 2196TIP3    H2 6546   5.124   1.765   3.931 -0.3618  1.6436 -0.4496
 2197TIP3   OH2 6547   1.828   6.607   4.623 -0.7041 -0.5710  0.7914
 2197TIP3    H1 6548   1.797   6.685   4.577  2.7661  0.9852  0.7605
 2197TIP3    H2 6549   1.839   6.636   4.713 -3.1932 -2.3210  1.7672
 2198TIP3   OH2 6550   6.544   4.771   5.235  0.4355 -0.0529 -0.5948
 2198TIP3    H1 6551   6.481   4.760   5.307  1.1567 -0.6608 -0.0418
 2198TIP3    H2 6552   6.598   4.846   5.262 -0.3633  0.8104 -1.3174
 2199TIP3   OH2 6553   2.774   6.616   0.866 -0.4059  0.2714  0.1385
 2199TIP3    H1 6554   2.735   6.641   0.949  0.0280 -0.0334  0.4345
 2199TIP3    H2 6555   2.700   6.612   0.805 -0.8341 -0.2907  0.6920
 2200TIP3   OH2 6556   1.514   5.168   3.281  0.2009  0.2093  0.4302
 2200TIP3    H1 6557   1.530   5.097   3.219 -0.7955  1.1731 -1.0048
 2200TIP3    H2 6558   1.497   5.124   3.364  0.5795 -1.1748 -0.1887
 2201TIP3   OH2 6559   3.170   4.536   0.699  0.3878  0.1521 -0.0393
 2201TIP3    H1 6560   3.265   4.534   0.696  0.4182  1.1510 -2.6583
 2201TIP3    H2 6561   3.145   4.602   0.634 -2.1077 -1.6900 -1.1286
 2202TIP3   OH2 6562   3.985   3.248   0.641  0.1721  0.0117  0.0700
 2202TIP3    H1 6563   3.896   3.273   0.667  0.2145 -0.7645  1.0177
 2202TIP3    H2 6564   3.977   3.223   0.549 -0.5056  0.3279  0.0351
 2203TIP3   OH2 6565   2.599   1.705   3.865  0.3397  0.3103 -0.6664
 2203TIP3    H1 6566   2.615   1.788   3.910  2.7584  0.2779 -1.3132
 2203TIP3    H2 6567   2.616   1.725   3.773 -0.8780 -0.4875 -1.0814
 2204TIP3   OH2 6568   3.843   1.799   3.372  0.1751 -0.3952 -0.1382
 2204TIP3    H1 6569   3.797   1.724   3.334  0.6420 -0.1638 -1.2087
 2204TIP3    H2 6570   3.874   1.767   3.457 -2.5736 -0.3141  0.9894
 2205TIP3   OH2 6571   6.280   4.571   1.884 -0.0733 -0.2557  0.3280
 2205TIP3    H1 6572   6.293   4.566   1.979  1.0378  1.6833  0.3334
 2205TIP3    H2 6573   6.185   4.574   1.874 -0.2573 -1.7762  1.2625
 2206TIP3   OH2 6574   3.365   0.085   2.408 -0.0920  0.1398 -0.3319
 2206TIP3    H1 6575   3.334  -0.005   2.412 -1.4126  0.5588 -0.3788
 2206TIP3    H2 6576   3.292   0.133   2.368  1.0424  1.0311 -1.4005
 2207TIP3   OH2 6577   7.836   1.271   6.256  0.3181 -0.0271 -0.0620
 2207TIP3    H1 6578   7.757   1.316   6.287  0.3434  1.6878 -2.2619
 2207TIP3    H2 6579   7.834   1.187   6.301 -2.0453  0.4883  0.9726
 2208TIP3   OH2 6580   0.639   1.291   5.261 -0.2921 -0.3689 -0.3939
 2208TIP3    H1 6581   0.722   1.324   5.296 -1.0106  0.4528  0.5776
 2208TIP3    H2 6582   0.578   1.363   5.272 -0.9643 -0.6848 -1.8442
 2209TIP3   OH2 6583   8.072   2.716   3.935  0.1803 -0.4621  0.1559
 2209TIP3    H1 6584   8.145   2.657   3.916  1.1272  0.0603  1.9419
 2209TIP3    H2 6585   8.049   2.697   4.026 -1.6467 -0.3025 -0.2308
 2210TIP3   OH2 6586   2.293   7.238   1.804 -0.5466 -0.4158 -0.8571
 2210TIP3    H1 6587   2.317   7.330   1.814 -0.2598 -0.4821 -0.9244
 2210TIP3    H2 6588   2.201   7.240   1.776 -0.3706 -0.1349 -1.4172
 2211TIP3   OH2 6589   6.971   0.171   0.597  0.0360 -0.6041 -0.2368
 2211TIP3    H1 6590   6.912   0.240   0.569 -0.3939 -0.4451  0.9797
 2211TIP3    H2 6591   6.913   0.099   0.622  0.2910 -0.2750  1.4380
 2212TIP3   OH2 6592   4.071   2.719   6.335 -0.0933  0.1082  0.1438
 2212TIP3    H1 6593   4.041   2.810   6.328 -0.2567  0.2976  2.4857
 2212TIP3    H2 6594   4.160   2.721   6.299  0.6506  1.6683  1.8610
 2213TIP3   OH2 6595   3.419   0.150   4.538 -0.5633 -0.3599 -0.6155
 2213TIP3    H1 6596   3.448   0.232   4.579 -0.1985 -1.1354  0.7075
 2213TIP3    H2 6597   3.360   0.179   4.468 -1.4532  0.9825  0.6370
 2214TIP3   OH2 6598   0.128   3.082   0.467 -0.2703 -0.7191 -0.3327
 2214TIP3    H1 6599   0.169   3.001   0.497  1.6490  0.7814  1.3579
 2214TIP3    H2 6600   0.052   3.093   0.524  0.5961 -0.3774  0.8006
 2215TIP3   OH2 6601   4.269   2.518   5.183  0.8290  0.3813 -0.2383
 2215TIP3    H1 6602   4.271   2.587   5.249 -0.3919  1.9574 -1.7555
 2215TIP3    H2 6603   4.228   2.444   5.228  0.0745  1.3835  0.7898
 2216TIP3   OH2 6604   1.565   6.943   0.978  0.3353  0.9699 -0.4585
 2216TIP3    H1 6605   1.482   6.919   0.936  0.4913  0.2711 -0.3825
 2216TIP3    H2 6606   1.630   6.885   0.937  0.9362  2.0533 -1.1033
 2217TIP3   OH2 6607   5.756   7.264   2.731  0.1959 -0.1805  0.1862
 2217TIP3    H1 6608   5.786   7.212   2.656 -1.7505 -1.6265  0.3346
 2217TIP3    H2 6609   5.807   7.345   2.726  2.8166 -1.7367 -0.5296
 2218TIP3   OH2 6610   6.098   7.227   3.494  0.7042 -0.4086 -0.4098
 2218TIP3    H1 6611   6.044   7.252   3.569  0.4885  0.0858 -0.7292
 2218TIP3    H2 6612   6.036   7.215   3.423  1.0864  1.1259 -1.0380
 2219TIP3   OH2 6613   0.555   4.779   2.835  0.0541  0.5795  0.1480
 2219TIP3    H1 6614   0.609   4.802   2.911 -0.5588  2.2497  0.1325
 2219TIP3    H2 6615   0.500   4.856   2.821 -2.4024 -1.0610  0.1767
 2220TIP3   OH2 6616   5.854   3.116   6.150  0.1528 -0.0617  0.0248
 2220TIP3    H1 6617   5.824   3.036   6.106 -0.3831  0.8514 -1.3394
 2220TIP3    H2 6618   5.945   3.097   6.173  0.2051 -0.8846 -0.7534
 2221TIP3   OH2 6619   2.756   0.517   5.783  0.5766  0.8998  0.0194
 2221TIP3    H1 6620   2.847   0.505   5.755 -0.4787 -1.0880 -3.1149
 2221TIP3    H2 6621   2.725   0.429   5.804 -1.2068  1.1554 -1.2371
 2222TIP3   OH2 6622   6.594   5.302   4.613  0.2816 -0.1092 -0.1330
 2222TIP3    H1 6623   6.683   5.301   4.579  0.0661 -1.2869 -0.7055
 2222TIP3    H2 6624   6.598   5.360   4.689  1.6920 -0.6680  0.2536
 2223TIP3   OH2 6625   6.794   3.454   3.548 -0.0090  0.3116  0.2325
 2223TIP3    H1 6626   6.826   3.487   3.465  0.3006  1.5786  0.8287
 2223TIP3    H2 6627   6.873   3.430   3.597 -0.2471 -2.3731 -0.5581
 2224TIP3   OH2 6628   1.628   3.512   2.971  0.0553  0.0232  0.1401
 2224TIP3    H1 6629   1.714   3.553   2.983 -0.2094  0.4088  0.7393
 2224TIP3    H2 6630   1.572   3.553   3.037 -0.7600  0.2404 -0.6647
 2225TIP3   OH2 6631   0.275   2.757   5.457  0.3920 -1.1464 -0.5805
 2225TIP3    H1 6632   0.201   2.743   5.398 -0.7108  0.5873  0.3022
 2225TIP3    H2 6633   0.318   2.836   5.422  0.9733 -1.3159 -0.2571
 2226TIP3   OH2 6634   2.262   4.879   4.914 -0.1499 -0.3630  0.5606
 2226TIP3    H1 6635   2.344   4.896   4.867 -0.1628  1.1839  1.0510
 2226TIP3    H2 6636   2.209   4.957   4.899 -1.2297 -1.0034  0.9166
 2227TIP3   OH2 6637   2.734   5.147   4.686  0.2015 -0.2922  0.2229
 2227TIP3    H1 6638   2.653   5.115   4.646  1.3087 -2.6161 -0.3609
 2227TIP3    H2 6639   2.713   5.155   4.779 -0.5424 -1.6097  0.2042
 2228TIP3   OH2 6640   3.548   3.402   2.264 -0.1047 -0.3052  0.2127
 2228TIP3    H1 6641   3.473   3.343   2.277 -1.8914  1.3971 -1.7077
 2228TIP3    H2 6642   3.563   3.402   2.170  0.6499  1.3529  0.3061
 2229TIP3   OH2 6643   5.535   4.025   5.790  0.0495  0.2767 -0.5312
 2229TIP3    H1 6644   5.579   3.941   5.797 -0.2536  0.1333 -0.3249
 2229TIP3    H2 6645   5.449   4.005   5.752 -0.7431  0.2438  1.1875
 2230TIP3   OH2 6646   6.218   6.145   1.560 -0.4479 -0.7069  0.1940
 2230TIP3    H1 6647   6.288   6.079   1.560 -2.0629 -2.5077 -0.2273
 2230TIP3    H2 6648   6.237   6.200   1.484 -0.6562 -2.5406 -1.2466
 2231TIP3   OH2 6649   4.243   3.571   5.536  0.0655 -0.5612 -0.4614
 2231TIP3    H1 6650   4.326   3.589   5.579  0.1601 -1.5756 -0.1890
 2231TIP3    H2 6651   4.266   3.518   5.460 -0.2236  0.1881 -1.0930
 2232TIP3   OH2 6652   6.151   1.164   3.929 -0.2919  0.0282 -0.5644
 2232TIP3    H1 6653   6.116   1.138   3.844 -2.2890 -0.2482  0.2872
 2232TIP3    H2 6654   6.110   1.105   3.992  1.1685  0.1900  0.6179
 2233TIP3   OH2 6655   3.262   5.732   1.299  0.4233  0.5287  0.3907
 2233TIP3    H1 6656   3.278   5.801   1.235 -0.4325  0.5963  0.2431
 2233TIP3    H2 6657   3.263   5.651   1.248 -1.3278  0.6623  0.0760
 2234TIP3   OH2 6658   1.100   0.694   3.848 -0.2018  0.0134  0.4442
 2234TIP3    H1 6659   1.075   0.766   3.906  0.3150  0.4650  0.1166
 2234TIP3    H2 6660   1.079   0.726   3.760  0.5650 -0.0109  0.2519
 2235TIP3   OH2 6661   1.782   5.116   5.922  0.4071  0.4825 -0.1810
 2235TIP3    H1 6662   1.775   5.125   6.017 -2.4450 -2.6886  0.1071
 2235TIP3    H2 6663   1.728   5.187   5.887 -0.5936  0.1972  0.7184
 2236TIP3   OH2 6664   7.119   5.452   3.813  0.4094  0.1537 -0.0809
 2236TIP3    H1 6665   7.056   5.524   3.813 -1.1792 -1.1854 -0.4753
 2236TIP3    H2 6666   7.072   5.379   3.775  1.6079 -1.4276  1.3194
 2237TIP3   OH2 6667   3.449   3.189   5.034  0.5194 -0.1186  0.3269
 2237TIP3    H1 6668   3.390   3.241   4.979  1.0969 -0.7337 -0.9125
 2237TIP3    H2 6669   3.500   3.136   4.972  1.1236 -0.9199  1.4614
 2238TIP3   OH2 6670   5.475   3.790   6.703 -0.1046  0.3324 -0.1218
 2238TIP3    H1 6671   5.424   3.710   6.696  0.8647 -0.6848  2.9747
 2238TIP3    H2 6672   5.565   3.762   6.685  0.2900  0.5907  1.3351
 2239TIP3   OH2 6673   4.032   5.587   5.863 -0.8721  0.2791 -0.1407
 2239TIP3    H1 6674   4.092   5.531   5.813 -1.6293 -0.8120  0.1550
 2239TIP3    H2 6675   3.979   5.630   5.797  0.7769  1.9376 -0.4645
 2240TIP3   OH2 6676   0.190   6.651   5.859  0.1888 -0.5757 -0.0099
 2240TIP3    H1 6677   0.213   6.661   5.766  0.3826 -0.4412  0.0544
 2240TIP3    H2 6678   0.238   6.574   5.888 -1.5531 -1.9703 -0.5922
 2241TIP3   OH2 6679   4.290   5.692   3.217 -0.2533 -0.1813  0.4931
 2241TIP3    H1 6680   4.232   5.630   3.174  0.8459 -0.5086 -0.5628
 2241TIP3    H2 6681   4.378   5.657   3.203  0.4099  1.6327 -0.2129
 2242TIP3   OH2 6682   5.149   2.840   3.930  0.5479 -0.3949 -0.3691
 2242TIP3    H1 6683   5.096   2.872   3.858  0.7875  0.7959 -0.0336
 2242TIP3    H2 6684   5.098   2.768   3.967 -1.9276  1.9517  1.2245
 2243TIP3   OH2 6685   7.208   4.042   0.719  0.3790  0.3552  0.0728
 2243TIP3    H1 6686   7.245   4.127   0.695 -0.0733 -0.0718 -2.5175
 2243TIP3    H2 6687   7.113   4.057   0.724  0.4256  0.3251  1.2584
 2244TIP3   OH2 6688   0.575   1.889   4.781 -0.0252 -0.6212  0.5427
 2244TIP3    H1 6689   0.617   1.965   4.740 -1.1451 -0.7458 -0.8809
 2244TIP3    H2 6690   0.494   1.924   4.819  0.0885 -0.8723  1.0298
 2245TIP3   OH2 6691   4.186   3.474   0.146 -0.1551 -0.5441 -0.6919
 2245TIP3    H1 6692   4.207   3.559   0.184 -0.0125 -0.5365 -0.7844
 2245TIP3    H2 6693   4.264   3.450   0.096 -0.2882 -0.6168 -0.8671
 2246TIP3   OH2 6694   5.260   5.091   6.492 -0.2861 -0.5076  0.7870
 2246TIP3    H1 6695   5.322   5.164   6.488  0.1597 -0.9514 -1.0746
 2246TIP3    H2 6696   5.202   5.114   6.564 -0.3812  1.8778  0.0284
 2247TIP3   OH2 6697   7.039   1.932   1.664 -0.8491  0.3773  0.0151
 2247TIP3    H1 6698   7.023   1.961   1.574 -0.8142  0.2283 -0.0407
 2247TIP3    H2 6699   6.985   1.989   1.718 -0.5778  0.7139 -0.0704
 2248TIP3   OH2 6700   6.107   5.672   3.009  0.4372 -0.3883  0.3395
 2248TIP3    H1 6701   6.015   5.686   3.030  0.5362 -0.7628  1.0687
 2248TIP3    H2 6702   6.120   5.578   3.021  1.3709 -0.0605  2.1766
 2249TIP3   OH2 6703   4.214   0.073   5.812 -0.6414  0.5618  0.0152
 2249TIP3    H1 6704   4.293   0.125   5.800 -0.3247 -0.1944 -1.4542
 2249TIP3    H2 6705   4.244  -0.007   5.854 -1.0276  1.2399  1.6666
 2250TIP3   OH2 6706   7.411   4.942   4.552 -0.2022 -0.3670  0.7426
 2250TIP3    H1 6707   7.482   4.939   4.487  0.5891  0.0022  1.5599
 2250TIP3    H2 6708   7.441   5.007   4.617 -2.1303  1.1727  0.1748
 2251TIP3   OH2 6709   5.308   7.766   5.540 -0.3105 -0.9438 -0.1263
 2251TIP3    H1 6710   5.304   7.830   5.611 -0.2056 -0.3853 -0.6107
 2251TIP3    H2 6711   5.391   7.784   5.496 -0.5928 -0.9698 -0.6746
 2252TIP3   OH2 6712   2.271   6.391   6.020  0.0242  0.3185 -0.1613
 2252TIP3    H1 6713   2.346   6.449   6.023 -0.4902  1.0643 -1.1718
 2252TIP3    H2 6714   2.261   6.369   5.927 -1.6801  1.1741 -0.2280
 2253TIP3   OH2 6715   3.413   3.519   5.062  0.3803 -0.2172 -0.2020
 2253TIP3    H1 6716   3.488   3.486   5.111  0.0995 -1.7773 -0.7404
 2253TIP3    H2 6717   3.412   3.466   4.982 -2.3734 -1.6739  0.6249
 2254TIP3   OH2 6718   7.308   4.176   2.314  0.2215  0.2518  0.1443
 2254TIP3    H1 6719   7.272   4.193   2.226 -1.4084  2.0445  1.0678
 2254TIP3    H2 6720   7.250   4.109   2.350  0.5172 -0.0385  0.0847
 2255TIP3   OH2 6721   5.578   2.046   0.827  0.0547  0.2671 -0.2712
 2255TIP3    H1 6722   5.601   2.135   0.853  1.4743 -0.4512  1.0864
 2255TIP3    H2 6723   5.657   2.013   0.784  0.6338 -1.2921  1.8708
 2256TIP3   OH2 6724   1.429   0.819   5.887  0.9461  0.3916  0.6814
 2256TIP3    H1 6725   1.511   0.796   5.932  1.6754 -1.3697 -1.3199
 2256TIP3    H2 6726   1.361   0.775   5.937  1.4897  0.1007  1.1831
 2257TIP3   OH2 6727   4.300   0.674   4.344  0.3053 -0.2534  0.5325
 2257TIP3    H1 6728   4.205   0.679   4.342  0.2097 -1.8027 -0.1763
 2257TIP3    H2 6729   4.323   0.695   4.435 -0.8533 -1.7044  1.2104
 2258TIP3   OH2 6730   3.935   6.307   4.737 -0.3797  0.1523 -0.0398
 2258TIP3    H1 6731   3.922   6.345   4.650 -2.0655  0.5586  0.3594
 2258TIP3    H2 6732   3.973   6.221   4.720  0.6464  0.7957 -1.1011
 2259TIP3   OH2 6733   7.340   6.836   3.870 -0.6926  0.0542  0.2306
 2259TIP3    H1 6734   7.263   6.832   3.813 -0.6855 -3.9244  0.1773
 2259TIP3    H2 6735   7.414   6.831   3.810 -0.6699 -3.0899  0.3434
 2260TIP3   OH2 6736   7.412   0.050   2.370  0.2107 -0.3146 -0.2275
 2260TIP3    H1 6737   7.443   0.062   2.460 -0.0201  0.5504 -0.2591
 2260TIP3    H2 6738   7.323   0.016   2.380 -0.0542  0.4040 -0.1252
 2261TIP3   OH2 6739   3.358   2.580   5.128 -0.0258  0.4841  0.1201
 2261TIP3    H1 6740   3.297   2.565   5.200  0.6869 -1.9388  0.2934
 2261TIP3    H2 6741   3.416   2.650   5.160 -1.1379  1.0499  0.9397
 2262TIP3   OH2 6742   0.862   6.676   0.306  0.2238 -0.5796 -0.0972
 2262TIP3    H1 6743   0.867   6.615   0.232  0.0477 -0.4446 -0.2200
 2262TIP3    H2 6744   0.779   6.722   0.293  0.0952 -0.6989  0.2972
 2263TIP3   OH2 6745   0.039   5.738   6.221  0.2795  0.4778 -0.6380
 2263TIP3    H1 6746   0.078   5.812   6.268  1.9333 -0.9883  0.4385
 2263TIP3    H2 6747   0.099   5.723   6.147  1.4612 -1.3412  0.6135
 2264TIP3   OH2 6748   2.829   2.090   5.168 -0.0198 -0.4346 -0.3439
 2264TIP3    H1 6749   2.836   2.183   5.148 -2.7185 -0.1046 -0.2075
 2264TIP3    H2 6750   2.803   2.087   5.260  2.8833 -1.5298  0.5477
 2265TIP3   OH2 6751   1.731   7.714   0.045 -0.3573 -0.6587  0.4184
 2265TIP3    H1 6752   1.657   7.708   0.106 -1.3909  1.0298 -0.6015
 2265TIP3    H2 6753   1.740   7.808   0.028  1.9682 -0.8391  0.4133
 2266TIP3   OH2 6754   8.189   0.754   4.809  0.1000  0.0457 -0.0561
 2266TIP3    H1 6755   8.118   0.817   4.826 -0.1456 -0.0408 -0.7425
 2266TIP3    H2 6756   8.247   0.764   4.884 -0.9735 -0.3510  0.8613
 2267TIP3   OH2 6757   6.919   3.063   0.856 -0.0825  0.1398 -0.5780
 2267TIP3    H1 6758   6.983   3.057   0.926 -0.8523  1.6390  0.3175
 2267TIP3    H2 6759   6.898   2.972   0.834 -0.3555 -0.3876  1.6594
 2268TIP3   OH2 6760   7.235   5.231   5.211 -0.2117  0.4592  0.2959
 2268TIP3    H1 6761   7.225   5.153   5.156 -0.5853  0.5421  0.2454
 2268TIP3    H2 6762   7.258   5.196   5.297  1.4835  0.3767 -0.1646
 2269TIP3   OH2 6763   0.927   1.135   5.339  0.4398  0.4665  0.0849
 2269TIP3    H1 6764   0.853   1.083   5.307  1.6518 -1.5744  0.4321
 2269TIP3    H2 6765   0.959   1.087   5.415  2.0510  1.3874  0.0231
 2270TIP3   OH2 6766   4.708   1.264   5.692 -0.1691  0.3034  0.0274
 2270TIP3    H1 6767   4.628   1.288   5.645  0.8900  0.0461 -2.0234
 2270TIP3    H2 6768   4.766   1.338   5.679 -0.2634  0.7924  2.1002
 2271TIP3   OH2 6769   1.177   6.631   6.599  0.0448  0.3814 -0.3620
 2271TIP3    H1 6770   1.196   6.561   6.535  0.7310 -0.9278  1.2027
 2271TIP3    H2 6771   1.254   6.687   6.596 -0.1998  0.6839 -1.1273
 2272TIP3   OH2 6772   7.507   6.338   1.978  0.9115  0.3988  0.1891
 2272TIP3    H1 6773   7.465   6.320   1.893  1.9632  0.5508 -0.3776
 2272TIP3    H2 6774   7.549   6.423   1.966  0.5268  0.7324  1.0912
 2273TIP3   OH2 6775   2.311   7.715   2.227 -0.1787  0.2866  0.1787
 2273TIP3    H1 6776   2.314   7.694   2.320  2.0065 -1.7607 -0.2711
 2273TIP3    H2 6777   2.367   7.792   2.218  0.3535 -0.0601  0.4608
 2274TIP3   OH2 6778   4.582   2.078   2.741  0.2796  0.0607 -0.1711
 2274TIP3    H1 6779   4.652   2.048   2.799 -0.8704 -2.6207 -0.0428
 2274TIP3    H2 6780   4.621   2.150   2.692  2.5952 -0.2974  1.0112
 2275TIP3   OH2 6781   8.190   3.352   0.109 -0.2983 -0.2611  0.5357
 2275TIP3    H1 6782   8.236   3.305   0.039 -1.6473 -0.2501 -0.3926
 2275TIP3    H2 6783   8.098   3.352   0.081 -0.7517  0.3786  1.9667
 2276TIP3   OH2 6784   0.500   4.947   0.400 -0.7752 -0.0497  0.7100
 2276TIP3    H1 6785   0.472   4.990   0.319 -0.9131 -2.4999 -0.6394
 2276TIP3    H2 6786   0.557   4.876   0.371  0.9036  0.2700  2.9438
 2277TIP3   OH2 6787   3.302   6.403   0.449 -0.4708 -0.3166 -0.5870
 2277TIP3    H1 6788   3.325   6.321   0.404  0.1574 -0.5587  0.1615
 2277TIP3    H2 6789   3.256   6.375   0.528  1.0155 -0.0220  0.4129
 2278TIP3   OH2 6790   5.592   3.661   6.289 -0.6084 -0.4187 -0.1007
 2278TIP3    H1 6791   5.554   3.584   6.247  0.8517 -0.6180 -1.1432
 2278TIP3    H2 6792   5.652   3.626   6.355 -1.7495 -0.1208  1.1279
 2279TIP3   OH2 6793   7.248   4.563   2.402  0.3597  0.2091 -0.3073
 2279TIP3    H1 6794   7.201   4.519   2.331 -1.8453  3.2890 -0.9661
 2279TIP3    H2 6795   7.285   4.642   2.360  0.7435  1.0700  1.5563
 2280TIP3   OH2 6796   4.753   3.632   5.796  0.0884  0.6554 -0.3333
 2280TIP3    H1 6797   4.741   3.713   5.846  0.8843  1.3643 -1.2579
 2280TIP3    H2 6798   4.824   3.652   5.736  0.3827 -0.7914 -0.4850
 2281TIP3   OH2 6799   2.100   1.488   1.481 -0.0017  0.8145 -0.2682
 2281TIP3    H1 6800   2.147   1.404   1.474 -1.0800  0.1618  0.1400
 2281TIP3    H2 6801   2.131   1.526   1.563  0.2628  0.6610 -0.2957
 2282TIP3   OH2 6802   6.744   0.167   6.533  0.6856 -0.3482  0.2102
 2282TIP3    H1 6803   6.744   0.078   6.497  1.5286  0.0188 -0.7756
 2282TIP3    H2 6804   6.659   0.203   6.507  0.7870 -0.5077 -0.3752
 2283TIP3   OH2 6805   4.498   7.278   3.811 -0.1351  0.0238  0.4171
 2283TIP3    H1 6806   4.558   7.235   3.751  0.5123  0.5898  0.6456
 2283TIP3    H2 6807   4.411   7.249   3.783  0.2723 -1.6091  0.7152
 2284TIP3   OH2 6808   3.596   3.040   3.668 -0.0984 -0.1004 -0.0849
 2284TIP3    H1 6809   3.601   3.082   3.582 -1.0222  0.6459  0.2064
 2284TIP3    H2 6810   3.668   3.080   3.718  1.9147 -2.1714 -1.1433
 2285TIP3   OH2 6811   2.999   5.292   3.965 -0.2262  0.1820 -0.2982
 2285TIP3    H1 6812   3.015   5.369   4.021  1.8234 -0.1218 -0.3956
 2285TIP3    H2 6813   3.022   5.217   4.020 -0.8798 -0.3017 -0.6684
 2286TIP3   OH2 6814   0.079   7.774   6.167  0.8401  0.1182 -0.5578
 2286TIP3    H1 6815   0.132   7.849   6.139  0.5699  0.9223  1.0051
 2286TIP3    H2 6816   0.141   7.714   6.208  1.1336 -0.7781 -2.2128
 2287TIP3   OH2 6817   1.381   1.007   0.147  0.3026 -0.2654  0.1594
 2287TIP3    H1 6818   1.300   1.001   0.097 -1.1511  1.3851  2.1465
 2287TIP3    H2 6819   1.450   1.003   0.080 -1.5127  2.1524 -2.0887
 2288TIP3   OH2 6820   7.648   7.607   2.504  0.2451  0.1318  0.3212
 2288TIP3    H1 6821   7.730   7.626   2.459 -0.4473  1.1585 -0.5483
 2288TIP3    H2 6822   7.610   7.693   2.523 -1.1047 -0.3295 -0.1914
 2289TIP3   OH2 6823   0.420   1.453   6.527  0.4374 -0.5558  0.6414
 2289TIP3    H1 6824   0.340   1.506   6.516  0.3237 -0.7887  0.3369
 2289TIP3    H2 6825   0.491   1.516   6.521  0.3406 -0.5347 -0.5138
 2290TIP3   OH2 6826   6.119   7.495   3.339 -0.5112 -0.4441 -0.4590
 2290TIP3    H1 6827   6.108   7.521   3.430  1.6767 -0.3225 -0.1738
 2290TIP3    H2 6828   6.042   7.529   3.295 -0.5774  1.4138  0.9657
 2291TIP3   OH2 6829   8.046   0.774   5.060  0.4690  0.3608 -0.3544
 2291TIP3    H1 6830   8.117   0.831   5.091 -1.1561  2.3084  0.0261
 2291TIP3    H2 6831   8.000   0.827   4.995 -2.8783  0.7396  2.0786
 2292TIP3   OH2 6832   6.205   2.026   4.739 -0.8491  0.5229 -0.6214
 2292TIP3    H1 6833   6.181   1.967   4.811  2.5981 -2.5579 -1.7320
 2292TIP3    H2 6834   6.277   2.078   4.774 -0.1859  0.0990 -1.3327
 2293TIP3   OH2 6835   5.423   4.314   1.899  0.5242  0.1611  0.3309
 2293TIP3    H1 6836   5.453   4.404   1.887 -0.7053  0.4613 -0.6619
 2293TIP3    H2 6837   5.451   4.291   1.988  4.2511  0.1484 -0.6843
 2294TIP3   OH2 6838   2.177   4.441   1.951  0.1428  0.2986  0.4150
 2294TIP3    H1 6839   2.214   4.389   1.880  2.1812  2.6640 -0.4088
 2294TIP3    H2 6840   2.235   4.425   2.025 -0.3521 -0.0402  0.7335
 2295TIP3   OH2 6841   7.839   3.005   3.613  0.1944  0.4154  0.4920
 2295TIP3    H1 6842   7.835   3.053   3.696 -0.9954 -0.0834  0.7557
 2295TIP3    H2 6843   7.871   2.918   3.638  0.2950  0.4133  0.3541
 2296TIP3   OH2 6844   6.334   0.814   3.278  0.2648  0.1054 -0.5050
 2296TIP3    H1 6845   6.399   0.881   3.300 -2.0397  2.1226  0.6035
 2296TIP3    H2 6846   6.255   0.841   3.324 -0.8295 -3.4182 -0.0063
 2297TIP3   OH2 6847   2.978   4.794   2.477 -0.1263 -0.1974 -0.2730
 2297TIP3    H1 6848   3.053   4.775   2.420  0.2464 -1.1818  0.5243
 2297TIP3    H2 6849   2.998   4.880   2.514  0.5494 -0.3845 -0.1837
 2298TIP3   OH2 6850   0.206   3.179   3.590  0.3646  0.7903 -0.1724
 2298TIP3    H1 6851   0.301   3.188   3.598  0.1522  2.0242  1.3195
 2298TIP3    H2 6852   0.193   3.088   3.562  2.0471  1.1332 -2.4026
 2299TIP3   OH2 6853   8.087   6.344   4.028 -0.2150  0.3478 -0.9581
 2299TIP3    H1 6854   8.068   6.318   3.938  2.0791 -0.1130 -1.3879
 2299TIP3    H2 6855   8.134   6.270   4.065  1.0423  1.4740 -0.1908
 2300TIP3   OH2 6856   0.426   2.514   6.253 -0.6590 -0.6132  0.2804
 2300TIP3    H1 6857   0.492   2.531   6.321 -1.6763 -1.7697  1.6140
 2300TIP3    H2 6858   0.437   2.586   6.191  1.0860 -0.1521  1.0579
 2301TIP3   OH2 6859   4.234   0.997   4.307  0.4014  0.1067 -0.2634
 2301TIP3    H1 6860   4.326   1.007   4.331  0.1365 -1.3444  1.5804
 2301TIP3    H2 6861   4.192   0.960   4.385 -1.9343  1.4955 -0.7508
 2302TIP3   OH2 6862   4.081   6.167   3.086 -0.2935  0.1505  0.2561
 2302TIP3    H1 6863   3.987   6.186   3.085 -0.3208  0.1488 -1.7772
 2302TIP3    H2 6864   4.088   6.077   3.117 -0.9681  0.1191  0.3192
 2303TIP3   OH2 6865   4.747   2.543   0.252 -0.4113  0.1896 -0.3588
 2303TIP3    H1 6866   4.822   2.522   0.196  1.4623  1.2904  1.5564
 2303TIP3    H2 6867   4.677   2.486   0.222  1.3594 -1.3083 -1.8790
 2304TIP3   OH2 6868   0.405   6.387   4.186 -0.0468 -0.2856 -0.4599
 2304TIP3    H1 6869   0.324   6.364   4.232 -0.8773  1.2396 -1.0880
 2304TIP3    H2 6870   0.424   6.476   4.213  1.6005 -0.7091 -0.1264
 2305TIP3   OH2 6871   3.871   3.428   3.716 -0.1943  0.8471  0.5082
 2305TIP3    H1 6872   3.878   3.341   3.674  2.8662  1.0788  0.2474
 2305TIP3    H2 6873   3.875   3.489   3.642  3.2736  1.2096  0.8016
 2306TIP3   OH2 6874   1.504   1.356   5.525 -0.1332  0.1421  0.3254
 2306TIP3    H1 6875   1.423   1.328   5.569  0.1115  0.3158  0.8912
 2306TIP3    H2 6876   1.475   1.381   5.437 -1.5764  4.6863  1.7852
 2307TIP3   OH2 6877   3.442   4.767   1.372  0.0467  0.0383 -0.0268
 2307TIP3    H1 6878   3.390   4.720   1.438  1.3359 -1.9974 -0.3829
 2307TIP3    H2 6879   3.385   4.771   1.295  0.3376 -2.2109 -0.4286
 2308TIP3   OH2 6880   6.676   3.528   2.169  0.5623 -0.0472  0.1230
 2308TIP3    H1 6881   6.613   3.477   2.118  1.2375 -1.2141  0.4049
 2308TIP3    H2 6882   6.639   3.530   2.257  0.6196 -0.2106  0.1516
 2309TIP3   OH2 6883   8.222   3.660   0.060 -0.2014 -0.2661  0.1282
 2309TIP3    H1 6884   8.239   3.571   0.027  0.5530 -0.2177  0.3572
 2309TIP3    H2 6885   8.153   3.648   0.125  1.3521 -1.0223  1.7110
 2310TIP3   OH2 6886   6.284   0.028   6.411  0.1731 -0.3526 -0.2011
 2310TIP3    H1 6887   6.281  -0.031   6.336  1.2494 -0.7690  0.0687
 2310TIP3    H2 6888   6.308   0.113   6.374  2.7937 -0.9850 -0.1398
 2311TIP3   OH2 6889   4.107   4.836   6.587 -0.1664  0.1494 -0.2537
 2311TIP3    H1 6890   4.185   4.853   6.640  0.5344 -0.4960 -1.0534
 2311TIP3    H2 6891   4.080   4.922   6.555  0.8921  0.2640 -0.8908
 2312TIP3   OH2 6892   5.045   3.987   0.904 -0.2806  0.5083  0.0739
 2312TIP3    H1 6893   4.961   4.005   0.947 -0.8704 -1.0887 -0.3538
 2312TIP3    H2 6894   5.101   3.951   0.972 -0.6780 -0.4802 -0.1064
 2313TIP3   OH2 6895   1.339   6.174   5.378 -0.1966 -0.7260 -0.0451
 2313TIP3    H1 6896   1.281   6.144   5.307  0.5193 -1.4153 -0.3579
 2313TIP3    H2 6897   1.404   6.228   5.334 -2.7697  3.4926  0.7640
 2314TIP3   OH2 6898   5.707   7.495   2.541 -0.5534  0.1209  0.0609
 2314TIP3    H1 6899   5.762   7.524   2.614 -1.3904 -1.1106  1.2025
 2314TIP3    H2 6900   5.743   7.410   2.516 -1.1617 -0.1083 -0.0286
 2315TIP3   OH2 6901   4.876   4.656   0.090  0.1883  0.1221  0.4254
 2315TIP3    H1 6902   4.968   4.670   0.069 -0.0778 -0.3258 -1.1448
 2315TIP3    H2 6903   4.835   4.741   0.075 -0.4513 -0.7117 -3.7004
 2316TIP3   OH2 6904   4.476   6.098   0.525  0.3354 -0.3787 -0.5293
 2316TIP3    H1 6905   4.401   6.158   0.527  0.4748 -0.0832 -2.3309
 2316TIP3    H2 6906   4.486   6.068   0.616 -1.0829  0.6521 -0.0031
 2317TIP3   OH2 6907   0.549   5.809   2.679  0.5983 -0.1101 -0.4143
 2317TIP3    H1 6908   0.628   5.832   2.727 -0.3346  1.1386  0.5978
 2317TIP3    H2 6909   0.498   5.890   2.675 -0.1295 -0.5943 -2.0551
 2318TIP3   OH2 6910   4.961   4.827   4.664  0.7160 -0.6032 -0.3213
 2318TIP3    H1 6911   4.946   4.839   4.571  1.5322  0.7065 -0.3115
 2318TIP3    H2 6912   4.876   4.803   4.700 -0.2790  1.7034 -0.9756
 2319TIP3   OH2 6913   2.957   7.103   3.064  0.3200 -0.1948  0.1354
 2319TIP3    H1 6914   3.000   7.064   2.987  0.3619  0.5782 -0.2397
 2319TIP3    H2 6915   2.910   7.179   3.029 -1.5742 -1.1278  0.4789
 2320TIP3   OH2 6916   5.018   4.077   1.918  0.2419  0.5355  0.0481
 2320TIP3    H1 6917   4.987   3.998   1.875 -1.3437  1.2374 -0.1661
 2320TIP3    H2 6918   5.024   4.053   2.010  2.6559 -0.6723 -0.3586
 2321TIP3   OH2 6919   8.250   1.853   4.095  0.4692  0.1697 -0.3054
 2321TIP3    H1 6920   8.283   1.784   4.037  0.9681  0.5846 -0.5296
 2321TIP3    H2 6921   8.247   1.931   4.040 -2.7761 -0.2166 -0.8536
 2322TIP3   OH2 6922   7.510   7.247   4.866 -0.4910 -0.2576  0.1643
 2322TIP3    H1 6923   7.577   7.301   4.824  0.3741 -0.9200  0.6690
 2322TIP3    H2 6924   7.509   7.276   4.957 -1.3017  0.1335  0.0446
 2323TIP3   OH2 6925   3.758   2.008   6.514 -0.6929 -0.1288 -0.4141
 2323TIP3    H1 6926   3.692   1.984   6.450  0.6375 -1.8772 -1.2270
 2323TIP3    H2 6927   3.836   2.027   6.462 -0.6960  2.7474  0.4548
 2324TIP3   OH2 6928   5.869   4.885   3.391 -0.4551  0.0236 -0.0457
 2324TIP3    H1 6929   5.934   4.955   3.397  0.2982 -0.6750  0.1194
 2324TIP3    H2 6930   5.785   4.929   3.402 -0.0624  1.0407 -0.8823
 2325TIP3   OH2 6931   5.256   0.693   4.107 -0.1244  0.1499 -0.1230
 2325TIP3    H1 6932   5.332   0.638   4.087 -0.5114 -0.6974  0.6494
 2325TIP3    H2 6933   5.277   0.733   4.192 -0.2776  0.4140 -0.2068
 2326TIP3   OH2 6934   5.656   5.174   0.625  0.2702  0.2657  0.3467
 2326TIP3    H1 6935   5.733   5.199   0.676 -0.7324  0.7679  1.6539
 2326TIP3    H2 6936   5.667   5.220   0.541  2.4057 -1.3198 -0.3342
 2327TIP3   OH2 6937   5.822   3.873   5.316 -0.1452  0.0186  0.0650
 2327TIP3    H1 6938   5.902   3.922   5.336  0.5307 -0.9292 -0.2235
 2327TIP3    H2 6939   5.849   3.808   5.251 -0.7633 -1.4022  1.1657
 2328TIP3   OH2 6940   6.321   5.378   1.849  0.0964  0.1344  0.0554
 2328TIP3    H1 6941   6.328   5.329   1.768  0.1473 -0.9591  0.7064
 2328TIP3    H2 6942   6.235   5.420   1.844  0.3536  0.5891 -0.8238
 2329TIP3   OH2 6943   4.670   3.824   1.914  0.1116  0.4719  0.0487
 2329TIP3    H1 6944   4.698   3.780   1.834  0.2514  1.7029 -0.6094
 2329TIP3    H2 6945   4.583   3.789   1.932  0.2170 -0.0600 -0.4520
 2330TIP3   OH2 6946   0.401   7.135   5.327 -0.0806 -0.1585  0.2263
 2330TIP3    H1 6947   0.319   7.098   5.294 -0.1063 -0.9413  1.1270
 2330TIP3    H2 6948   0.398   7.227   5.303 -1.8548  0.1331  1.4092
 2331TIP3   OH2 6949   3.269   7.403   5.090 -0.0154 -0.0829  0.5947
 2331TIP3    H1 6950   3.207   7.467   5.125 -0.8855 -0.7491  0.3274
 2331TIP3    H2 6951   3.225   7.366   5.013  0.7590 -0.5049  0.3371
 2332TIP3   OH2 6952   1.362   4.239   3.993  0.6224 -0.1150  0.4178
 2332TIP3    H1 6953   1.454   4.245   4.019  0.2211 -1.5489  2.4286
 2332TIP3    H2 6954   1.313   4.259   4.073 -0.7721 -1.0791 -0.1502
 2333TIP3   OH2 6955   6.556   3.714   3.903 -0.0852  0.0189  0.3341
 2333TIP3    H1 6956   6.497   3.716   3.979  1.4037  2.4921  1.5906
 2333TIP3    H2 6957   6.561   3.805   3.875  1.7253 -0.3882 -0.8312
 2334TIP3   OH2 6958   1.522   6.911   2.154  0.1424 -0.7446  0.2277
 2334TIP3    H1 6959   1.516   6.933   2.061 -0.4695  0.4038  0.5242
 2334TIP3    H2 6960   1.588   6.971   2.189 -1.7092  0.8820  1.0907
 2335TIP3   OH2 6961   1.370   7.042   2.864  0.3753 -1.1538 -0.3780
 2335TIP3    H1 6962   1.316   7.059   2.941  2.8719 -2.3258  1.8056
 2335TIP3    H2 6963   1.385   7.128   2.825 -1.8482 -0.6677 -0.2667
 2336TIP3   OH2 6964   2.789   0.268   0.054  0.3773  0.1737  0.3495
 2336TIP3    H1 6965   2.816   0.355   0.024 -0.1938  0.5348  0.8590
 2336TIP3    H2 6966   2.791   0.214  -0.025  0.5535  0.7007 -0.0097
 2337TIP3   OH2 6967   0.810   4.041   3.598 -0.0721  0.0993 -0.3097
 2337TIP3    H1 6968   0.780   4.038   3.688 -0.5804  0.9164 -0.4372
 2337TIP3    H2 6969   0.859   3.960   3.585 -1.0790 -0.6240  0.3129
 2338TIP3   OH2 6970   2.122   5.326   2.859  0.6600  0.6761  0.2650
 2338TIP3    H1 6971   2.101   5.287   2.944 -0.4693 -2.3973 -1.2571
 2338TIP3    H2 6972   2.043   5.314   2.806  1.8763  0.9314 -1.7211
 2339TIP3   OH2 6973   7.165   0.162   4.005 -0.1358 -0.2855 -0.0465
 2339TIP3    H1 6974   7.193   0.078   3.969 -0.1198 -0.6508  0.7936
 2339TIP3    H2 6975   7.216   0.172   4.085  0.3334  0.8445 -0.4712
 2340TIP3   OH2 6976   3.593   4.606   0.550  0.1430 -0.7845 -0.0852
 2340TIP3    H1 6977   3.677   4.632   0.589 -0.1578  0.0460  0.0354
 2340TIP3    H2 6978   3.540   4.686   0.554 -0.0557 -0.7933 -1.7900
 2341TIP3   OH2 6979   3.523   4.499   6.775 -0.1974  0.5886  0.6695
 2341TIP3    H1 6980   3.540   4.517   6.682 -0.6985 -0.6406  0.3172
 2341TIP3    H2 6981   3.470   4.573   6.804  0.9873  1.6192  0.3226
 2342TIP3   OH2 6982   7.555   1.551   0.085 -0.0645  0.1449 -0.1068
 2342TIP3    H1 6983   7.504   1.631   0.090  0.0896  0.4713 -2.4991
 2342TIP3    H2 6984   7.504   1.493   0.030  0.5557 -0.8299  0.3098
 2343TIP3   OH2 6985   2.397   7.799   5.645 -0.4610 -0.2465 -0.1639
 2343TIP3    H1 6986   2.430   7.888   5.628 -0.5761  0.2670  1.9921
 2343TIP3    H2 6987   2.409   7.753   5.562  0.8165  1.4070 -0.9683
 2344TIP3   OH2 6988   0.784   0.940   3.026 -0.0098 -0.1536  0.3399
 2344TIP3    H1 6989   0.815   0.926   3.116 -0.4196  0.0978  0.5242
 2344TIP3    H2 6990   0.811   1.030   3.005  0.8598 -0.5107 -0.1137
 2345TIP3   OH2 6991   3.382   6.804   4.432  0.1915 -0.1696  0.0801
 2345TIP3    H1 6992   3.416   6.871   4.491 -1.1515 -1.7154  2.8149
 2345TIP3    H2 6993   3.448   6.735   4.432  0.9010  0.4466 -1.5761
 2346TIP3   OH2 6994   2.259   2.753   4.288  0.9849 -0.3778  0.3116
 2346TIP3    H1 6995   2.247   2.832   4.235 -1.7298  0.4822  1.9604
 2346TIP3    H2 6996   2.170   2.721   4.303  1.9235 -2.9500  0.9408
 2347TIP3   OH2 6997   4.778   4.098   6.424 -0.3338 -0.5835  0.0520
 2347TIP3    H1 6998   4.742   4.068   6.507  1.7239  0.7557  1.5280
 2347TIP3    H2 6999   4.865   4.059   6.419 -0.2658 -0.3160 -1.2807
 2348TIP3   OH2 7000   0.581   1.649   6.498 -0.6632 -0.1070 -0.4492
 2348TIP3    H1 7001   0.666   1.690   6.516 -0.2431 -1.5676  1.2045
 2348TIP3    H2 7002   0.524   1.681   6.568 -0.3118 -2.2537  0.9133
 2349TIP3   OH2 7003   0.504   6.283   3.647  0.1208 -0.4276 -0.0550
 2349TIP3    H1 7004   0.417   6.301   3.611  0.6381  0.1799 -1.0518
 2349TIP3    H2 7005   0.520   6.191   3.626  0.4138 -0.0838 -1.4405
 2350TIP3   OH2 7006   6.984   0.119   4.899 -0.1989  0.2137  0.4383
 2350TIP3    H1 7007   7.020   0.180   4.964  0.2947  1.3133 -0.8297
 2350TIP3    H2 7008   6.906   0.163   4.866  0.3524  0.3398 -0.7371
 2351TIP3   OH2 7009   7.200   3.015   2.032 -0.3021  0.5557 -0.3128
 2351TIP3    H1 7010   7.176   2.954   1.962 -1.6902  0.9463 -0.1991
 2351TIP3    H2 7011   7.244   3.087   1.987  0.3065  0.0316 -0.5761
 2352TIP3   OH2 7012   4.587   5.104   6.691 -0.1090  0.1084  0.2687
 2352TIP3    H1 7013   4.573   5.087   6.784 -0.2834 -1.3759 -0.0059
 2352TIP3    H2 7014   4.678   5.079   6.675 -0.5984 -1.4006 -0.3098
 2353TIP3   OH2 7015   4.047   3.966   4.113 -0.2029 -0.5079  0.1349
 2353TIP3    H1 7016   4.094   3.983   4.031 -0.6347 -2.5475 -0.5964
 2353TIP3    H2 7017   4.088   3.887   4.148  0.2379  0.5517  2.1391
 2354TIP3   OH2 7018   5.904   3.007   4.536  0.5445  0.1695  0.5288
 2354TIP3    H1 7019   5.876   2.941   4.600  0.2560  0.2846  0.5201
 2354TIP3    H2 7020   5.914   3.087   4.587  0.4545  0.2272  0.4555
 2355TIP3   OH2 7021   7.144   2.472   1.799  0.3183 -0.2164 -0.1759
 2355TIP3    H1 7022   7.162   2.384   1.768  1.2484  0.3067 -1.2030
 2355TIP3    H2 7023   7.057   2.467   1.837  0.2806 -1.5297 -0.3952
 2356TIP3   OH2 7024   0.250   4.190   5.671 -0.3324 -0.1254  1.0924
 2356TIP3    H1 7025   0.184   4.149   5.728 -2.8767 -1.6619 -2.5469
 2356TIP3    H2 7026   0.315   4.121   5.657  0.3415  0.2822  2.1145
 2357TIP3   OH2 7027   4.101   4.093   4.440  0.3630 -0.1183  0.0262
 2357TIP3    H1 7028   4.050   4.169   4.468  2.5497  1.5293 -0.2590
 2357TIP3    H2 7029   4.132   4.115   4.352  1.6114 -1.0284  0.2018
 2358TIP3   OH2 7030   2.351   3.616   2.620 -0.0624 -0.0459 -0.6129
 2358TIP3    H1 7031   2.325   3.629   2.711 -1.2953  0.2370 -0.9900
 2358TIP3    H2 7032   2.353   3.521   2.608  1.0947 -0.1101 -0.0308
 2359TIP3   OH2 7033   6.821   5.009   4.535 -0.2070  0.3881  0.0587
 2359TIP3    H1 7034   6.806   4.981   4.625  0.9280 -0.6822 -0.0552
 2359TIP3    H2 7035   6.737   4.998   4.492 -0.3134 -0.9607  0.5426
 2360TIP3   OH2 7036   4.845   2.272   5.183 -0.6977 -0.3416  0.2122
 2360TIP3    H1 7037   4.762   2.258   5.136 -0.1585 -2.4194 -0.1988
 2360TIP3    H2 7038   4.898   2.196   5.161  1.0771  0.6042  1.0543
 2361TIP3   OH2 7039   7.729   2.801   4.301  0.4045 -0.5347 -0.4677
 2361TIP3    H1 7040   7.764   2.889   4.307  3.8826 -1.8490  1.0126
 2361TIP3    H2 7041   7.634   2.811   4.313  0.8325  2.8252  0.9956
 2362TIP3   OH2 7042   1.937   2.657   1.294 -0.1412  0.4019 -0.2047
 2362TIP3    H1 7043   2.022   2.617   1.276 -0.4136  0.5543 -1.9662
 2362TIP3    H2 7044   1.892   2.657   1.210 -1.7413  0.6891  0.6260
 2363TIP3   OH2 7045   5.756   7.032   5.761 -0.0954  0.8517 -0.5324
 2363TIP3    H1 7046   5.835   7.048   5.814  0.9176 -1.8349 -1.0313
 2363TIP3    H2 7047   5.733   7.117   5.725  1.5148  2.0461  1.0986
 2364TIP3   OH2 7048   2.462   7.234   5.952  0.0627 -0.1306 -0.2716
 2364TIP3    H1 7049   2.393   7.299   5.966  0.4226  0.1765  0.0712
 2364TIP3    H2 7050   2.483   7.242   5.859 -0.9861 -0.8462 -0.5854
 2365TIP3   OH2 7051   2.798   3.963   1.381  0.2961 -0.0855 -0.5772
 2365TIP3    H1 7052   2.840   4.046   1.358 -0.6373  1.3567  2.3942
 2365TIP3    H2 7053   2.709   3.971   1.346 -0.0386  0.5793  0.3669
 2366TIP3   OH2 7054   3.347   0.588   2.077  0.9514 -0.0101  0.3658
 2366TIP3    H1 7055   3.302   0.532   2.014 -0.6933  2.5198 -0.8823
 2366TIP3    H2 7056   3.276   0.627   2.128  2.0853  0.3343  1.7146
 2367TIP3   OH2 7057   6.493   4.087   1.421 -0.2264  0.1682  0.2337
 2367TIP3    H1 7058   6.467   4.159   1.364 -1.1798 -1.0743 -0.9560
 2367TIP3    H2 7059   6.411   4.057   1.461  0.1028 -0.5095  0.4229
 2368TIP3   OH2 7060   7.832   5.914   2.737 -0.7121 -0.0103  0.0485
 2368TIP3    H1 7061   7.785   5.992   2.768 -0.0325  0.4161  0.0244
 2368TIP3    H2 7062   7.788   5.891   2.655 -0.7500  0.5068 -0.0776
 2369TIP3   OH2 7063   1.386   0.775   4.572 -0.1403 -0.6218 -0.2129
 2369TIP3    H1 7064   1.434   0.801   4.493  1.4449  0.0712  0.9399
 2369TIP3    H2 7065   1.323   0.846   4.586  0.0979 -0.3667 -0.4193
 2370TIP3   OH2 7066   5.288   0.200   1.612  0.2930  0.6507 -0.2129
 2370TIP3    H1 7067   5.295   0.116   1.657  1.3932  0.4192 -0.7960
 2370TIP3    H2 7068   5.306   0.265   1.680 -3.2426  0.6463  0.9384
 2371TIP3   OH2 7069   0.094   7.188   4.006 -0.2193  0.5211  0.2158
 2371TIP3    H1 7070   0.066   7.270   3.965 -2.1735  0.2006  0.8264
 2371TIP3    H2 7071   0.165   7.157   3.950 -1.9215  0.7601 -2.2357
 2372TIP3   OH2 7072   5.257   6.090   4.464 -0.2432 -0.1416 -0.1884
 2372TIP3    H1 7073   5.184   6.111   4.523  0.3637 -0.6212  0.7547
 2372TIP3    H2 7074   5.219   6.030   4.400 -0.9016  0.3614 -0.2832
 2373TIP3   OH2 7075   1.590   3.891   5.335  0.1845 -0.5155 -0.3055
 2373TIP3    H1 7076   1.545   3.827   5.390 -1.0595  1.8152  1.5756
 2373TIP3    H2 7077   1.659   3.927   5.390 -0.7152  1.4704 -0.3869
 2374TIP3   OH2 7078   3.559   1.762   5.136  0.0346 -0.1756 -0.2115
 2374TIP3    H1 7079   3.601   1.812   5.066  0.6510  0.9949  0.9425
 2374TIP3    H2 7080   3.500   1.701   5.091  0.5546  0.4152 -1.7357
 2375TIP3   OH2 7081   7.751   3.306   4.317 -0.3329 -0.1382  0.3855
 2375TIP3    H1 7082   7.701   3.349   4.387 -1.3815 -0.0151 -0.4216
 2375TIP3    H2 7083   7.835   3.353   4.315 -0.2746 -0.1519  1.5532
 2376TIP3   OH2 7084   4.270   1.358   3.975  0.9229  0.5602  0.3490
 2376TIP3    H1 7085   4.260   1.267   4.003  2.4907  0.3806  0.4673
 2376TIP3    H2 7086   4.196   1.404   4.013  1.5374 -0.1801  2.6196
 2377TIP3   OH2 7087   1.073   4.888   0.690 -0.7596 -0.1972 -0.6145
 2377TIP3    H1 7088   1.027   4.919   0.768 -1.7173 -1.4300 -0.6617
 2377TIP3    H2 7089   1.126   4.963   0.661 -0.5799  0.3504  1.0643
 2378TIP3   OH2 7090   7.680   6.395   0.614  0.4777 -0.5596 -0.4756
 2378TIP3    H1 7091   7.585   6.385   0.605  0.2787 -0.6682  1.4389
 2378TIP3    H2 7092   7.716   6.337   0.546 -0.8132 -2.3002  0.2469
 2379TIP3   OH2 7093   4.226   2.265   5.477  0.3532 -0.3883 -0.2958
 2379TIP3    H1 7094   4.138   2.240   5.505  0.1427  0.9779  0.3559
 2379TIP3    H2 7095   4.264   2.307   5.554  0.1421  2.5550 -1.6698
 2380TIP3   OH2 7096   3.784   5.229   1.974 -0.3521  0.0715 -0.3317
 2380TIP3    H1 7097   3.717   5.178   2.019 -1.8228  0.4265 -1.9972
 2380TIP3    H2 7098   3.849   5.165   1.945 -1.1547 -0.6056 -0.6597
 2381TIP3   OH2 7099   2.648   7.522   1.843  0.6654  0.4710 -0.2888
 2381TIP3    H1 7100   2.576   7.480   1.795  0.7040 -1.9214  1.5439
 2381TIP3    H2 7101   2.604   7.571   1.913  0.7647  0.2613 -0.0801
 2382TIP3   OH2 7102   6.608   5.073   0.049 -0.3652  0.6609 -0.1783
 2382TIP3    H1 7103   6.665   5.145   0.076  2.3200 -2.2627  2.9562
 2382TIP3    H2 7104   6.522   5.095   0.086 -0.3956  3.3968 -1.6790
 2383TIP3   OH2 7105   5.537   3.177   3.561 -0.2887 -0.1879 -0.2471
 2383TIP3    H1 7106   5.629   3.165   3.584 -0.2858 -1.2709 -0.7715
 2383TIP3    H2 7107   5.498   3.090   3.567 -1.5353  0.4155  0.9547
 2384TIP3   OH2 7108   2.429   0.832   3.979 -0.4152  0.0188  0.2732
 2384TIP3    H1 7109   2.399   0.771   4.046  0.2053  0.0361  0.5746
 2384TIP3    H2 7110   2.488   0.781   3.924 -0.7294  0.0692 -0.1186
 2385TIP3   OH2 7111   2.434   2.199   5.162 -0.0660  0.2905 -0.0956
 2385TIP3    H1 7112   2.380   2.171   5.088  1.5953 -0.7889 -0.9650
 2385TIP3    H2 7113   2.464   2.117   5.202 -3.4318  0.6625  3.8426
 2386TIP3   OH2 7114   3.623   7.718   5.995 -0.1333  0.4488  0.4092
 2386TIP3    H1 7115   3.574   7.680   5.923 -1.2296  1.7770  0.4123
 2386TIP3    H2 7116   3.559   7.730   6.065  0.8250 -0.4314  1.4850
 2387TIP3   OH2 7117   1.985   2.945   1.635  0.0330 -0.5223  0.0810
 2387TIP3    H1 7118   2.038   2.934   1.713 -0.9777  0.4470  0.9315
 2387TIP3    H2 7119   1.900   2.908   1.658  0.1597 -1.6478 -1.1078
 2388TIP3   OH2 7120   3.903   4.706   6.424  0.8262  0.0124  0.0660
 2388TIP3    H1 7121   3.952   4.661   6.355  0.1626 -1.9030  0.7653
 2388TIP3    H2 7122   3.970   4.747   6.478  1.5219 -0.6292 -0.2801
 2389TIP3   OH2 7123   0.777   7.603   6.323  0.0917  0.2527  0.1013
 2389TIP3    H1 7124   0.836   7.543   6.278 -0.7466 -0.7479  0.2900
 2389TIP3    H2 7125   0.705   7.616   6.261 -0.4268 -0.0917  0.6241
 2390TIP3   OH2 7126   0.590   0.256   0.183 -1.1054 -1.1231  0.6237
 2390TIP3    H1 7127   0.557   0.304   0.259 -1.6395 -0.0179 -0.2849
 2390TIP3    H2 7128   0.582   0.317   0.110  0.8915 -1.5863 -0.0536
 2391TIP3   OH2 7129   0.143   5.730   6.703  0.1458  0.8893  0.0403
 2391TIP3    H1 7130   0.088   5.771   6.636 -0.2533  0.9990  0.4328
 2391TIP3    H2 7131   0.096   5.744   6.785  0.1960 -0.0068  0.2356
 2392TIP3   OH2 7132   4.473   1.803   0.629  0.4967 -0.1453  0.3558
 2392TIP3    H1 7133   4.458   1.868   0.697 -0.1435  1.2720 -1.0638
 2392TIP3    H2 7134   4.391   1.800   0.581  0.5482 -1.9808  0.3423
 2393TIP3   OH2 7135   2.143   7.179   4.809 -0.3999  0.3196  0.0917
 2393TIP3    H1 7136   2.191   7.161   4.890  0.1273 -1.6817 -0.6122
 2393TIP3    H2 7137   2.198   7.141   4.740 -0.2290  3.0267 -1.4001
 2394TIP3   OH2 7138   3.968   4.051   2.155 -0.4589  0.4445 -0.2374
 2394TIP3    H1 7139   3.944   4.102   2.232 -1.2561  1.6106 -1.2266
 2394TIP3    H2 7140   3.887   4.005   2.132  0.1255 -0.9773  0.3690
 2395TIP3   OH2 7141   0.210   6.499   3.907  0.1059  0.4823  0.2005
 2395TIP3    H1 7142   0.133   6.551   3.929  0.2484  0.6895  0.2092
 2395TIP3    H2 7143   0.196   6.415   3.951  0.6383  1.0709  1.5364
 2396TIP3   OH2 7144   5.664   6.736   4.090 -0.6204 -0.3740 -0.8259
 2396TIP3    H1 7145   5.664   6.641   4.086 -1.0694 -0.3642 -1.2566
 2396TIP3    H2 7146   5.722   6.758   4.162 -0.8782 -0.9866 -0.4267
 2397TIP3   OH2 7147   4.763   6.157   1.545  0.3919 -0.2602  0.4614
 2397TIP3    H1 7148   4.711   6.238   1.539 -0.9639 -1.1265  0.0004
 2397TIP3    H2 7149   4.709   6.098   1.597  0.2432 -1.6521 -1.1802
 2398TIP3   OH2 7150   6.539   4.403   6.044  0.4898 -0.4785  0.5044
 2398TIP3    H1 7151   6.612   4.370   6.097  1.1087  0.2392  0.1334
 2398TIP3    H2 7152   6.518   4.331   5.984  0.8526 -0.7167  0.6587
 2399TIP3   OH2 7153   8.285   7.433   3.914  0.5519 -0.1584 -0.2945
 2399TIP3    H1 7154   8.306   7.499   3.848  1.9726 -1.7329 -1.4973
 2399TIP3    H2 7155   8.190   7.425   3.911  0.1264  2.8688  1.0045
 2400TIP3   OH2 7156   2.922   6.121   6.768 -0.0235  0.1864 -0.1796
 2400TIP3    H1 7157   3.007   6.162   6.749  0.8773 -1.3679  0.3486
 2400TIP3    H2 7158   2.912   6.055   6.699  0.4646 -1.4204  1.2172
 2401TIP3   OH2 7159   5.672   5.360   1.373 -0.7016 -0.3372 -0.2683
 2401TIP3    H1 7160   5.718   5.356   1.457  0.1316 -1.8901 -0.7589
 2401TIP3    H2 7161   5.581   5.340   1.395 -0.7083  0.3627  0.3984
 2402TIP3   OH2 7162   4.405   5.524   0.606 -0.7253  0.0924  0.2395
 2402TIP3    H1 7163   4.409   5.454   0.672 -2.3717  0.4585  0.7598
 2402TIP3    H2 7164   4.385   5.603   0.656  0.8970  0.9343 -0.3700
 2403TIP3   OH2 7165   4.944   7.611   2.226 -0.4393  0.9811  0.0792
 2403TIP3    H1 7166   4.973   7.694   2.189  3.9475 -0.3269 -0.0394
 2403TIP3    H2 7167   4.933   7.629   2.319 -1.4918  2.0938 -0.2454
 2404TIP3   OH2 7168   5.814   4.499   2.850 -0.5376 -0.8981 -0.3821
 2404TIP3    H1 7169   5.802   4.462   2.937 -3.2727  1.3393  0.3254
 2404TIP3    H2 7170   5.726   4.519   2.820  0.4398 -0.0932 -3.0039
 2405TIP3   OH2 7171   0.913   6.780   5.451  0.4664 -0.3867 -0.1895
 2405TIP3    H1 7172   0.890   6.754   5.540 -1.0632  2.2569  0.3013
 2405TIP3    H2 7173   1.008   6.769   5.446  0.6406 -0.1861  1.9370
 2406TIP3   OH2 7174   7.886   7.713   2.329  0.1571  0.4786 -0.3667
 2406TIP3    H1 7175   7.946   7.783   2.354 -0.8817  1.5958 -0.9294
 2406TIP3    H2 7176   7.942   7.651   2.281  0.8285  1.6181 -1.1058
 2407TIP3   OH2 7177   2.294   1.010   3.234  0.4656 -1.1202  0.0324
 2407TIP3    H1 7178   2.265   1.026   3.144 -2.3716  2.5821  1.3322
 2407TIP3    H2 7179   2.320   1.096   3.266  1.0340 -2.2408  2.8651
 2408TIP3   OH2 7180   4.360   7.659   4.552 -0.4467  0.2329  0.1844
 2408TIP3    H1 7181   4.439   7.605   4.549 -0.1508  0.6402 -2.5730
 2408TIP3    H2 7182   4.368   7.716   4.475 -3.6045  0.0340 -0.4054
 2409TIP3   OH2 7183   5.234   7.073   4.103  0.3400 -0.0482 -0.1646
 2409TIP3    H1 7184   5.300   7.010   4.131 -0.1139 -0.1699  0.6799
 2409TIP3    H2 7185   5.210   7.119   4.183 -0.4362  0.1415 -0.4972
 2410TIP3   OH2 7186   7.766   2.152   2.616  0.3326 -0.6029  0.9863
 2410TIP3    H1 7187   7.690   2.132   2.670 -1.1508  2.9369  0.5071
 2410TIP3    H2 7188   7.739   2.129   2.527 -1.5406  3.1919  0.3652
 2411TIP3   OH2 7189   6.871   7.307   1.428  0.2745  0.4283  0.3296
 2411TIP3    H1 7190   6.945   7.257   1.394  0.5018  2.1916 -1.9991
 2411TIP3    H2 7191   6.794   7.255   1.405  0.5267  0.8994 -1.7345
 2412TIP3   OH2 7192   1.515   1.045   3.093  0.3545  0.1538 -0.2798
 2412TIP3    H1 7193   1.604   1.075   3.073  0.2824  1.5464  1.2576
 2412TIP3    H2 7194   1.461   1.081   3.023  0.9083 -0.3255 -0.9754
 2413TIP3   OH2 7195   0.687   0.371   0.955 -0.1008  0.3796  0.0700
 2413TIP3    H1 7196   0.702   0.441   0.891  1.1050 -0.4148 -0.5682
 2413TIP3    H2 7197   0.641   0.303   0.906  1.7810 -0.6890 -0.3128
 2414TIP3   OH2 7198   0.923   0.620   2.046 -0.4668 -0.1586  0.1097
 2414TIP3    H1 7199   0.881   0.591   1.966 -0.2308  0.6684 -0.3266
 2414TIP3    H2 7200   1.008   0.576   2.046  1.5455  3.1944 -2.4835
 2415TIP3   OH2 7201   6.154   0.813   6.292 -0.0523 -0.4712 -0.2961
 2415TIP3    H1 7202   6.142   0.751   6.219 -1.6434  0.1895 -0.6418
 2415TIP3    H2 7203   6.139   0.760   6.370 -0.5910 -0.7160 -0.5581
 2416TIP3   OH2 7204   5.992   7.601   1.254 -0.0050 -0.0577 -0.4493
 2416TIP3    H1 7205   6.057   7.664   1.287 -1.4695  1.2074  0.1264
 2416TIP3    H2 7206   6.025   7.576   1.168  1.9715 -0.5389  0.3941
 2417TIP3   OH2 7207   2.560   4.596   2.553 -1.0452 -0.0634  0.4131
 2417TIP3    H1 7208   2.648   4.560   2.569 -0.5371  0.9507  0.0009
 2417TIP3    H2 7209   2.530   4.625   2.639  0.5161  2.8044  0.1029
 2418TIP3   OH2 7210   2.682   6.196   4.014 -0.0333 -0.0713  0.0381
 2418TIP3    H1 7211   2.703   6.133   3.945 -0.4933  0.7780 -0.8909
 2418TIP3    H2 7212   2.767   6.220   4.051  0.0595 -3.1947  2.2552
 2419TIP3   OH2 7213   0.646   7.096   0.450  0.2258 -0.8619 -0.2226
 2419TIP3    H1 7214   0.602   7.150   0.384 -2.2384 -0.9868  1.1857
 2419TIP3    H2 7215   0.690   7.028   0.400 -1.1287 -0.6605 -1.8001
 2420TIP3   OH2 7216   2.809   1.261   2.276 -0.0124 -0.5968  0.3394
 2420TIP3    H1 7217   2.880   1.322   2.256 -0.5511 -0.0835 -0.0405
 2420TIP3    H2 7218   2.794   1.271   2.370 -0.8389  0.7039  0.1038
 2421TIP3   OH2 7219   5.449   6.444   5.624  0.1056  0.2087  0.1536
 2421TIP3    H1 7220   5.461   6.447   5.529  0.4765  1.9173  0.2242
 2421TIP3    H2 7221   5.358   6.418   5.636 -0.8237  2.7269 -0.7711
 2422TIP3   OH2 7222   5.418   4.330   6.568 -0.1323 -0.9108 -0.6661
 2422TIP3    H1 7223   5.407   4.235   6.574  0.9924 -1.0746 -0.9590
 2422TIP3    H2 7224   5.487   4.350   6.631 -0.5367 -0.2412 -0.4233
 2423TIP3   OH2 7225   1.990   2.314   4.465 -0.5520 -0.1373 -0.1162
 2423TIP3    H1 7226   1.915   2.255   4.472 -1.5220  1.2242  1.6992
 2423TIP3    H2 7227   2.027   2.317   4.553  0.7687  0.3288 -0.6688
 2424TIP3   OH2 7228   4.614   1.355   2.399 -0.0297 -0.2594 -0.0082
 2424TIP3    H1 7229   4.624   1.326   2.490 -0.7390  0.6766  0.3810
 2424TIP3    H2 7230   4.527   1.394   2.396 -0.0379 -0.3360 -1.1149
 2425TIP3   OH2 7231   7.133   3.372   2.157 -0.0115  0.0810 -0.1200
 2425TIP3    H1 7232   7.127   3.340   2.247 -1.2810 -1.5359 -0.7380
 2425TIP3    H2 7233   7.227   3.376   2.140  0.3121  1.4729  1.5880
 2426TIP3   OH2 7234   6.953   2.629   6.281 -0.4104  0.3342 -0.3777
 2426TIP3    H1 7235   7.027   2.655   6.335 -0.8770 -1.0164  0.9597
 2426TIP3    H2 7236   6.989   2.566   6.218 -0.3951 -0.3080  0.2610
 2427TIP3   OH2 7237   0.389   2.400   0.384 -0.0744 -0.1851 -0.5818
 2427TIP3    H1 7238   0.439   2.335   0.334  0.1228  0.3491 -1.0933
 2427TIP3    H2 7239   0.319   2.350   0.425  0.6877 -0.8926 -0.1212
 2428TIP3   OH2 7240   2.367   0.470   3.927 -0.1011 -0.7640  0.2572
 2428TIP3    H1 7241   2.462   0.465   3.928  0.2297  2.7472 -0.0469
 2428TIP3    H2 7242   2.339   0.393   3.878  2.6700 -1.1735 -0.8433
 2429TIP3   OH2 7243   3.938   0.071   3.933  1.1749 -0.1566  0.0685
 2429TIP3    H1 7244   3.973   0.150   3.974  1.1397 -0.2485  0.2717
 2429TIP3    H2 7245   3.899   0.103   3.851  0.3048  0.1808  0.6031
 2430TIP3   OH2 7246   3.368   6.851   0.141 -0.2405  0.4227  0.0513
 2430TIP3    H1 7247   3.320   6.778   0.103  0.9502  0.2400 -1.1660
 2430TIP3    H2 7248   3.306   6.892   0.202 -2.0626  0.4119 -1.6994
 2431TIP3   OH2 7249   5.977   3.948   1.843 -0.4249 -1.0227  0.3070
 2431TIP3    H1 7250   6.017   4.033   1.823  1.1569 -1.7594  0.2260
 2431TIP3    H2 7251   5.902   3.970   1.899  0.7903  0.3485  1.4720
 2432TIP3   OH2 7252   3.049   4.159   2.583 -0.4095  0.1520  0.1516
 2432TIP3    H1 7253   2.999   4.109   2.647  0.8092 -0.4534  0.6742
 2432TIP3    H2 7254   3.037   4.250   2.608 -1.2864  0.0158  0.2296
 2433TIP3   OH2 7255   4.796   4.518   1.964  0.0390 -0.2355  0.0928
 2433TIP3    H1 7256   4.789   4.462   2.042 -0.8348 -1.3978 -0.7838
 2433TIP3    H2 7257   4.853   4.469   1.905  3.5373  2.1273  1.1690
 2434TIP3   OH2 7258   5.362   0.078   4.845 -0.5078 -0.2767  0.0088
 2434TIP3    H1 7259   5.451   0.048   4.865 -0.0827 -1.9519 -3.6096
 2434TIP3    H2 7260   5.306   0.004   4.871 -0.4040 -0.7214 -0.9855
 2435TIP3   OH2 7261   0.886   5.961   0.194  0.3866 -0.6701  0.1991
 2435TIP3    H1 7262   0.894   6.057   0.192 -1.5373 -0.4787 -0.8803
 2435TIP3    H2 7263   0.976   5.929   0.187  1.0961  1.0581  0.9623
 2436TIP3   OH2 7264   1.059   6.801   3.761 -0.2794 -0.2252 -0.2490
 2436TIP3    H1 7265   1.116   6.846   3.699  1.6584 -1.3092  0.6562
 2436TIP3    H2 7266   1.022   6.870   3.815  1.4723  0.4344  0.1648
 2437TIP3   OH2 7267   1.751   2.371   1.385  0.4975  0.1017 -0.1460
 2437TIP3    H1 7268   1.836   2.348   1.348  0.2314  1.8963 -2.0320
 2437TIP3    H2 7269   1.727   2.453   1.343 -1.4918  0.4530  1.4843
 2438TIP3   OH2 7270   6.042   5.932   4.603 -0.1972 -0.0106 -0.3554
 2438TIP3    H1 7271   6.131   5.910   4.577 -0.2122  0.4786 -0.8508
 2438TIP3    H2 7272   5.987   5.864   4.563 -0.1972  0.6140 -1.4572
 2439TIP3   OH2 7273   5.596   1.828   1.421 -0.8088 -0.7538  0.0783
 2439TIP3    H1 7274   5.632   1.822   1.509 -2.2297 -1.7496  0.6244
 2439TIP3    H2 7275   5.651   1.770   1.368 -0.3881 -0.6900  0.4396
 2440TIP3   OH2 7276   6.189   7.308   0.890  0.6560  0.1672 -0.5350
 2440TIP3    H1 7277   6.101   7.276   0.870  0.5599  0.7899 -1.1757
 2440TIP3    H2 7278   6.211   7.268   0.974 -1.4975  2.3727  1.2499
 2441TIP3   OH2 7279   8.252   1.075   6.682  0.4429  0.1313 -0.1891
 2441TIP3    H1 7280   8.183   1.138   6.701  0.3979  0.6955 -2.0822
 2441TIP3    H2 7281   8.211   1.009   6.627  0.9430 -0.6165  0.3001
 2442TIP3   OH2 7282   5.412   5.753   3.229  0.1495 -0.0983  0.2956
 2442TIP3    H1 7283   5.460   5.737   3.310 -2.3189  2.7179  2.5059
 2442TIP3    H2 7284   5.338   5.692   3.233  0.9230 -1.1635 -0.7935
 2443TIP3   OH2 7285   6.628   6.921   0.709  0.0192  0.1045  0.3922
 2443TIP3    H1 7286   6.671   6.836   0.720 -0.9797 -0.6233 -1.0388
 2443TIP3    H2 7287   6.667   6.958   0.629 -1.3683 -0.2000 -0.4626
 2444TIP3   OH2 7288   4.980   0.868   4.432  0.3533 -0.4271 -0.7681
 2444TIP3    H1 7289   5.044   0.872   4.503 -0.9509  0.8954  0.3882
 2444TIP3    H2 7290   4.990   0.951   4.386 -0.6391 -0.1223 -0.4571
 2445TIP3   OH2 7291   6.573   1.089   6.545  0.1700 -0.6203  0.2624
 2445TIP3    H1 7292   6.610   1.140   6.473 -0.5220 -0.6948 -0.1583
 2445TIP3    H2 7293   6.638   1.095   6.614  1.0805 -0.9589 -0.5390
 2446TIP3   OH2 7294   4.570   6.361   6.319 -0.0108 -0.0484 -0.0706
 2446TIP3    H1 7295   4.635   6.422   6.283 -0.2311  0.3699  0.2266
 2446TIP3    H2 7296   4.592   6.277   6.279  3.4177 -0.9557  3.1078
 2447TIP3   OH2 7297   0.996   0.596   0.487 -0.2533 -0.1722 -1.2166
 2447TIP3    H1 7298   1.090   0.614   0.494 -0.0870 -1.4791  0.6628
 2447TIP3    H2 7299   0.983   0.575   0.394  1.3354 -0.0695 -1.4911
 2448TIP3   OH2 7300   7.078   2.387   4.908 -0.2546  0.1685 -0.4264
 2448TIP3    H1 7301   7.154   2.346   4.949 -0.7899  0.1948  0.6435
 2448TIP3    H2 7302   7.013   2.391   4.979 -0.4870  2.1727 -0.7023
 2449TIP3   OH2 7303   1.854   3.539   1.872 -0.0406 -0.4378 -0.3935
 2449TIP3    H1 7304   1.778   3.489   1.899 -0.9596 -0.4107 -2.6818
 2449TIP3    H2 7305   1.886   3.581   1.952 -0.2552 -3.2688  1.2855
 2450TIP3   OH2 7306   5.381   4.128   2.911  0.6143 -0.0255  0.1722
 2450TIP3    H1 7307   5.315   4.116   2.842  0.3906 -0.8138  0.5067
 2450TIP3    H2 7308   5.440   4.194   2.876  0.4636 -0.3523 -0.7502
 2451TIP3   OH2 7309   3.514   0.750   6.729 -0.2659  0.0378  0.4709
 2451TIP3    H1 7310   3.570   0.746   6.806 -1.5150 -1.5083  1.3593
 2451TIP3    H2 7311   3.575   0.765   6.656  0.9985  0.9020  1.6633
 2452TIP3   OH2 7312   4.352   5.324   2.252 -0.4099  0.0398 -0.7036
 2452TIP3    H1 7313   4.286   5.393   2.259 -0.5532 -0.0527 -1.1004
 2452TIP3    H2 7314   4.401   5.346   2.172  0.5167  0.5194 -0.0234
 2453TIP3   OH2 7315   1.060   7.742   1.055 -0.0547  0.0735 -0.5979
 2453TIP3    H1 7316   1.143   7.728   1.010 -0.4367  0.4555 -1.4622
 2453TIP3    H2 7317   1.081   7.799   1.129  0.4364  0.2383 -0.8613
 2454TIP3   OH2 7318   5.461   7.394   1.245 -0.2787  0.2156 -0.0676
 2454TIP3    H1 7319   5.403   7.389   1.168 -0.6829  0.0842  0.2428
 2454TIP3    H2 7320   5.403   7.418   1.317  0.1892  0.8393  0.1049
 2455TIP3   OH2 7321   7.705   7.736   1.334  0.2028 -0.5266 -0.4941
 2455TIP3    H1 7322   7.778   7.737   1.396 -0.3312  0.8567  0.1456
 2455TIP3    H2 7323   7.743   7.703   1.253  2.0166  1.9174 -0.7117
 2456TIP3   OH2 7324   2.507   6.395   5.437  0.1261  0.1926 -0.4413
 2456TIP3    H1 7325   2.556   6.404   5.519  0.6899 -3.5424 -0.2014
 2456TIP3    H2 7326   2.415   6.403   5.462  0.3470  0.5151  0.2949
 2457TIP3   OH2 7327   7.742   5.417   0.169 -0.1608  0.2288  0.3881
 2457TIP3    H1 7328   7.707   5.352   0.230 -0.8929  0.5214  0.2835
 2457TIP3    H2 7329   7.821   5.376   0.134 -0.9735 -0.9097 -0.1845
 2458TIP3   OH2 7330   5.033   2.587   2.137  0.7896  0.0530 -0.5412
 2458TIP3    H1 7331   4.944   2.603   2.108  0.6356  0.9209  0.3565
 2458TIP3    H2 7332   5.072   2.674   2.145  1.2448 -0.2272  0.4679
 2459TIP3   OH2 7333   4.568   5.644   0.326 -0.3038  0.3198  0.6135
 2459TIP3    H1 7334   4.550   5.608   0.239 -1.9541  2.3007  0.0594
 2459TIP3    H2 7335   4.504   5.714   0.337  0.8238  1.1009  2.8415
 2460TIP3   OH2 7336   3.020   6.422   0.490 -0.2129 -0.0979 -0.3657
 2460TIP3    H1 7337   3.103   6.460   0.462  0.1961 -1.6704 -1.3968
 2460TIP3    H2 7338   3.016   6.440   0.584  0.0583  2.2306 -0.7464
 2461TIP3   OH2 7339   4.244   5.455   3.419 -0.5490 -0.9050 -0.2030
 2461TIP3    H1 7340   4.169   5.415   3.464 -1.7079  1.1247 -0.1746
 2461TIP3    H2 7341   4.219   5.456   3.327  0.3092 -1.9550 -0.4550
 2462TIP3   OH2 7342   5.851   1.007   2.606  0.6348 -0.3607 -0.5117
 2462TIP3    H1 7343   5.782   0.984   2.669  0.5873  1.8185  0.3049
 2462TIP3    H2 7344   5.926   0.953   2.632  0.1167 -0.6712  0.3898
 2463TIP3   OH2 7345   2.471   3.165   5.338 -0.0755  0.5507 -0.0728
 2463TIP3    H1 7346   2.481   3.217   5.259  0.6507 -1.8738 -1.6693
 2463TIP3    H2 7347   2.558   3.167   5.379 -0.1237  0.7799  0.0241
 2464TIP3   OH2 7348   4.970   5.224   1.910 -0.1629  0.4031 -0.5519
 2464TIP3    H1 7349   5.054   5.242   1.869 -0.1065  0.7514 -0.2952
 2464TIP3    H2 7350   4.911   5.290   1.873 -0.3721  0.0342 -0.8818
 2465TIP3   OH2 7351   1.826   2.950   4.069 -0.0425 -0.4972  0.3740
 2465TIP3    H1 7352   1.826   3.045   4.074  1.2936 -0.5168  1.0011
 2465TIP3    H2 7353   1.819   2.920   4.160  2.0305 -0.9626  0.4254
 2466TIP3   OH2 7354   3.420   4.951   5.880 -0.4256 -0.3327 -0.3541
 2466TIP3    H1 7355   3.328   4.964   5.857 -0.7597 -0.0323  1.0193
 2466TIP3    H2 7356   3.418   4.888   5.952  0.5600 -1.3399 -1.1671
 2467TIP3   OH2 7357   5.514   6.868   0.575 -0.0386  0.1135 -0.1359
 2467TIP3    H1 7358   5.550   6.803   0.636  1.0195  1.4946  0.7513
 2467TIP3    H2 7359   5.421   6.847   0.570  0.2359 -1.3119  0.3211
 2468TIP3   OH2 7360   7.037   2.383   2.582  0.3213 -0.5095  0.5104
 2468TIP3    H1 7361   7.050   2.327   2.659  0.9130 -0.2045  0.6375
 2468TIP3    H2 7362   7.076   2.466   2.607  0.1447 -0.2820  0.0273
 2469TIP3   OH2 7363   3.121   5.583   3.113 -0.3266 -0.2422  0.8612
 2469TIP3    H1 7364   3.148   5.615   3.028 -0.7210  0.1845  0.8888
 2469TIP3    H2 7365   3.152   5.493   3.116 -0.3367 -0.2705  0.2564
 2470TIP3   OH2 7366   7.492   6.576   3.871 -0.2079  0.5913  0.2311
 2470TIP3    H1 7367   7.461   6.504   3.815 -1.0025  0.9654  0.1696
 2470TIP3    H2 7368   7.496   6.651   3.812 -0.3116  0.8134  0.5089
 2471TIP3   OH2 7369   1.583   2.048   4.777 -0.2965 -0.0144 -0.6492
 2471TIP3    H1 7370   1.558   2.016   4.863 -1.7333  0.9371 -0.6816
 2471TIP3    H2 7371   1.626   2.133   4.794 -2.2584  1.0910 -0.9388
 2472TIP3   OH2 7372   2.802   7.107   6.619 -0.3355 -0.1149  0.1274
 2472TIP3    H1 7373   2.735   7.062   6.670 -0.4849  0.1989  0.2102
 2472TIP3    H2 7374   2.799   7.066   6.533 -0.7675  0.0258  0.0713
 2473TIP3   OH2 7375   4.271   0.050   5.409 -0.2796 -0.1824 -0.0525
 2473TIP3    H1 7376   4.365   0.036   5.395 -0.4515 -0.5810 -0.9104
 2473TIP3    H2 7377   4.234  -0.038   5.413 -0.6853 -0.0283 -0.2727
 2474TIP3   OH2 7378   2.191   4.398   2.869 -0.2115 -0.1821 -0.1205
 2474TIP3    H1 7379   2.156   4.401   2.958 -1.4560  0.5216 -0.5962
 2474TIP3    H2 7380   2.226   4.486   2.855  1.2286 -0.6995  0.1300
 2475TIP3   OH2 7381   6.792   3.234   5.091  0.3106  0.5608 -0.2994
 2475TIP3    H1 7382   6.778   3.316   5.044  0.9856 -0.0096 -1.5427
 2475TIP3    H2 7383   6.743   3.169   5.042  0.7914 -0.0028 -0.0534
 2476TIP3   OH2 7384   6.056   5.844   2.433  0.1467 -0.8503  0.1462
 2476TIP3    H1 7385   6.137   5.793   2.422 -0.5113 -1.7081 -0.8756
 2476TIP3    H2 7386   6.080   5.933   2.407  0.9880 -0.8797  0.7512
 2477TIP3   OH2 7387   0.256   2.578   6.750  0.3801 -0.3360  0.1327
 2477TIP3    H1 7388   0.252   2.547   6.659  0.1044 -1.9284  0.6567
 2477TIP3    H2 7389   0.263   2.499   6.802  0.6317  0.5636  1.5165
 2478TIP3   OH2 7390   7.332   6.138   5.365  0.0189  0.3200 -0.0045
 2478TIP3    H1 7391   7.418   6.150   5.406 -0.2979  1.7810  0.3102
 2478TIP3    H2 7392   7.271   6.143   5.438 -0.3401 -0.8418 -0.2137
 2479TIP3   OH2 7393   7.891   5.422   2.064 -0.1879  0.1374 -0.1480
 2479TIP3    H1 7394   7.938   5.377   2.134  1.7524  0.3643 -1.2420
 2479TIP3    H2 7395   7.850   5.351   2.014 -0.2589 -0.1316  0.2828
 2480TIP3   OH2 7396   1.518   6.457   1.686  0.4379  0.1417 -0.2394
 2480TIP3    H1 7397   1.470   6.466   1.769 -0.4306 -4.3303  0.0149
 2480TIP3    H2 7398   1.458   6.492   1.620  0.1084  1.5355  0.7489
 2481TIP3   OH2 7399   1.392   4.629   5.414  0.6907 -1.0900 -0.2889
 2481TIP3    H1 7400   1.303   4.613   5.444  0.9103 -1.4061  0.2021
 2481TIP3    H2 7401   1.390   4.718   5.379  0.0956 -1.2309 -0.6164
 2482TIP3   OH2 7402   7.434   7.268   1.278  0.1540 -0.5143  1.0307
 2482TIP3    H1 7403   7.525   7.292   1.261  0.8033 -3.2046  0.2329
 2482TIP3    H2 7404   7.390   7.279   1.193  0.0763 -0.6205  1.0573
 2483TIP3   OH2 7405   5.622   2.874   5.270 -0.2875  0.6078  0.1325
 2483TIP3    H1 7406   5.630   2.797   5.326  1.0795  1.0260  0.5680
 2483TIP3    H2 7407   5.630   2.841   5.181  2.4307  0.4272  0.3755
 2484TIP3   OH2 7408   8.307   0.825   3.533  0.4937  0.1934  0.5168
 2484TIP3    H1 7409   8.275   0.785   3.614 -1.7811 -0.0166 -0.4083
 2484TIP3    H2 7410   8.278   0.916   3.538  0.3983  0.1968 -0.0224
 2485TIP3   OH2 7411   3.924   6.475   6.384 -0.2890 -0.1054 -0.5334
 2485TIP3    H1 7412   3.862   6.414   6.425 -1.0064  0.7527 -0.3261
 2485TIP3    H2 7413   3.971   6.515   6.456 -0.3225  0.1155 -0.6329
 2486TIP3   OH2 7414   0.115   7.226   4.397 -0.1350  0.0781 -0.4221
 2486TIP3    H1 7415   0.104   7.319   4.376 -1.4945 -0.0189 -0.2590
 2486TIP3    H2 7416   0.077   7.217   4.484  0.5582 -0.5311 -0.1717
 2487TIP3   OH2 7417   0.822   6.896   5.209 -0.4469 -0.0871 -0.5628
 2487TIP3    H1 7418   0.732   6.885   5.238  0.0292 -1.9773  0.3302
 2487TIP3    H2 7419   0.875   6.865   5.282  0.9824  1.8208 -0.7059
 2488TIP3   OH2 7420   2.206   0.607   5.816 -0.4237 -0.2622  0.1543
 2488TIP3    H1 7421   2.137   0.597   5.881 -1.0190  0.5947 -0.3386
 2488TIP3    H2 7422   2.162   0.643   5.739  0.8231  1.8069  0.3500
 2489TIP3   OH2 7423   1.977   7.158   4.493  0.0253 -0.2993  0.1652
 2489TIP3    H1 7424   2.061   7.134   4.454  0.5305  0.0077  1.0324
 2489TIP3    H2 7425   1.980   7.118   4.580 -0.4195  0.3300  0.4721
 2490TIP3   OH2 7426   5.139   6.596   3.635  0.1872 -0.2347 -0.2740
 2490TIP3    H1 7427   5.068   6.645   3.677  0.4494 -2.0736  2.5296
 2490TIP3    H2 7428   5.120   6.505   3.655  3.1245 -0.8212  0.2538
 2491TIP3   OH2 7429   0.716   1.016   6.733  0.5970 -0.4575 -0.0772
 2491TIP3    H1 7430   0.720   0.922   6.749 -0.0527 -0.3023  1.1246
 2491TIP3    H2 7431   0.623   1.037   6.732  0.7226  0.1409 -0.6366
 2492TIP3   OH2 7432   8.081   4.087  -0.022  0.0384 -0.1006 -0.8570
 2492TIP3    H1 7433   8.014   4.113   0.042  0.0124 -2.4837  0.1997
 2492TIP3    H2 7434   8.156   4.061   0.032  0.5923 -0.6793 -1.8890
 2493TIP3   OH2 7435   2.561   7.142   3.918 -0.3673 -0.2289 -0.0274
 2493TIP3    H1 7436   2.550   7.200   3.842 -1.2644 -0.1188  0.1711
 2493TIP3    H2 7437   2.600   7.198   3.985 -2.9936  0.7542  0.8101
 2494TIP3   OH2 7438   6.670   5.898   5.193  0.7345 -0.4762  0.1256
 2494TIP3    H1 7439   6.636   5.849   5.118 -1.7601  3.0503 -1.3040
 2494TIP3    H2 7440   6.759   5.923   5.168  1.1471 -2.0989 -0.1352
 2495TIP3   OH2 7441   5.051   6.138   5.699 -1.2443 -0.0383 -0.4960
 2495TIP3    H1 7442   4.969   6.103   5.664 -1.6957  0.7633 -0.2553
 2495TIP3    H2 7443   5.064   6.093   5.782  0.2495 -2.5688 -1.9716
 2496TIP3   OH2 7444   5.795   4.175   2.805 -0.2987  0.4453 -0.2738
 2496TIP3    H1 7445   5.714   4.221   2.826  0.1083  1.2898 -0.5076
 2496TIP3    H2 7446   5.861   4.244   2.798  0.6090 -0.2797  0.6543
 2497TIP3   OH2 7447   7.686   5.079   0.012 -0.2505 -0.6481  0.4655
 2497TIP3    H1 7448   7.610   5.093   0.069 -1.7997 -0.4059 -1.5252
 2497TIP3    H2 7449   7.679   4.987  -0.014 -0.1529 -0.4982 -0.1012
 2498TIP3   OH2 7450   8.234   1.290   2.803 -0.0199 -0.3333 -0.1298
 2498TIP3    H1 7451   8.307   1.320   2.857 -0.7442  1.2137  0.0647
 2498TIP3    H2 7452   8.176   1.366   2.798 -1.1017 -1.1903 -1.1561
 2499TIP3   OH2 7453   3.695   5.979   3.202 -0.5558  0.0458 -0.1418
 2499TIP3    H1 7454   3.783   5.947   3.221 -1.2044 -1.6304  0.1642
 2499TIP3    H2 7455   3.689   5.978   3.107  0.1443  1.3131 -0.2185
 2500TIP3   OH2 7456   6.448   1.681   5.546  0.5768 -0.0708  0.0336
 2500TIP3    H1 7457   6.408   1.598   5.571  0.2457 -0.1977 -0.8756
 2500TIP3    H2 7458   6.507   1.657   5.474  1.6765  0.2442  0.7899
 2501TIP3   OH2 7459   7.692   7.239   5.951 -0.1219  0.0190 -0.2458
 2501TIP3    H1 7460   7.620   7.298   5.933  0.7853  1.1674 -0.2287
 2501TIP3    H2 7461   7.765   7.296   5.976  1.3845 -0.9299 -2.1786
 2502TIP3   OH2 7462   3.652   3.238   0.312 -0.0919  0.1980  0.0754
 2502TIP3    H1 7463   3.738   3.226   0.272  1.5972  2.9526  2.5536
 2502TIP3    H2 7464   3.654   3.184   0.391 -0.2285  1.0678  0.6803
 2503TIP3   OH2 7465   7.350   6.495   4.089 -0.1139 -0.1407 -0.0822
 2503TIP3    H1 7466   7.434   6.471   4.127  0.1083  0.5106 -0.1534
 2503TIP3    H2 7467   7.371   6.519   3.999 -0.5004 -0.7652 -0.3534
 2504TIP3   OH2 7468   1.849   0.818   5.656  0.4494 -0.2349 -0.6548
 2504TIP3    H1 7469   1.828   0.903   5.616 -0.2711  0.5516  1.2914
 2504TIP3    H2 7470   1.875   0.763   5.582  1.4522  1.8148 -1.9161
 2505TIP3   OH2 7471   3.748   3.724   5.316 -0.3441 -0.3089 -0.0740
 2505TIP3    H1 7472   3.731   3.658   5.383 -1.1084 -1.6693 -1.5384
 2505TIP3    H2 7473   3.732   3.678   5.233 -0.5659  1.6323 -1.1521
 2506TIP3   OH2 7474   8.192   2.223   2.478 -0.0483  0.1791  0.0509
 2506TIP3    H1 7475   8.106   2.261   2.460 -0.0251  0.4674  0.5276
 2506TIP3    H2 7476   8.255   2.287   2.445 -0.0127 -0.0978 -0.4290
 2507TIP3   OH2 7477   3.304   2.138   5.911  0.6754  0.9281 -0.1801
 2507TIP3    H1 7478   3.295   2.151   5.817  1.3793  0.1154 -0.3667
 2507TIP3    H2 7479   3.214   2.121   5.941  0.3199  2.0548 -0.5498
 2508TIP3   OH2 7480   1.298   0.834   2.518  0.6784 -0.1738 -0.2333
 2508TIP3    H1 7481   1.340   0.751   2.543 -1.5592 -1.5154 -0.6711
 2508TIP3    H2 7482   1.240   0.854   2.591  0.0838  0.2025 -0.8075
 2509TIP3   OH2 7483   5.254   3.328   3.016  0.0212  0.3156  0.1821
 2509TIP3    H1 7484   5.270   3.393   2.949  0.3925  0.2610  0.2147
 2509TIP3    H2 7485   5.296   3.363   3.094  1.4642 -0.6076 -0.1489
 2510TIP3   OH2 7486   5.725   7.696   2.926 -0.5439  0.6051 -0.3917
 2510TIP3    H1 7487   5.768   7.676   3.009  1.1629 -1.0051 -1.5961
 2510TIP3    H2 7488   5.641   7.650   2.930 -0.1986  0.0250  0.1879
 2511TIP3   OH2 7489   1.550   5.809   0.379  0.0040 -0.1475  0.0603
 2511TIP3    H1 7490   1.486   5.746   0.414  0.7997 -0.7433  0.4834
 2511TIP3    H2 7491   1.605   5.831   0.454 -0.3616  1.1936 -0.0529
 2512TIP3   OH2 7492   7.829   3.915   4.236 -0.0836 -0.3988  0.1865
 2512TIP3    H1 7493   7.834   3.847   4.170 -1.0733  0.7157 -1.1039
 2512TIP3    H2 7494   7.778   3.985   4.195  1.8812  1.6415  1.0007
 2513TIP3   OH2 7495   0.690   5.443   3.179  0.2967  0.5645 -0.0123
 2513TIP3    H1 7496   0.706   5.408   3.267 -1.8915  1.2708  0.7297
 2513TIP3    H2 7497   0.722   5.375   3.120 -2.3211 -2.0854  1.3671
 2514TIP3   OH2 7498   2.711   6.833   6.389  0.3968 -0.2913  0.2309
 2514TIP3    H1 7499   2.639   6.825   6.451 -0.6635 -0.3258 -0.9567
 2514TIP3    H2 7500   2.731   6.927   6.387  2.0145 -0.5308  2.2983
 2515TIP3   OH2 7501   5.419   4.423   2.517 -0.2336 -0.1335  0.5347
 2515TIP3    H1 7502   5.389   4.353   2.575 -0.1206 -1.9990 -1.5197
 2515TIP3    H2 7503   5.355   4.424   2.446 -0.9768  2.8190  1.0976
 2516TIP3   OH2 7504   4.944   2.495   1.158  0.1253  1.2341 -0.2926
 2516TIP3    H1 7505   4.948   2.442   1.079 -4.0884 -1.7116  1.0559
 2516TIP3    H2 7506   4.976   2.437   1.228 -2.6327  1.0253  0.9425
 2517TIP3   OH2 7507   7.225   1.211   4.953 -0.1266  0.2265  0.2063
 2517TIP3    H1 7508   7.135   1.182   4.968 -0.8417  0.7302 -2.5865
 2517TIP3    H2 7509   7.237   1.203   4.859  2.4139  1.2496  0.3725
 2518TIP3   OH2 7510   0.018   4.012   5.459  0.3557 -0.4590  1.1278
 2518TIP3    H1 7511   0.063   3.957   5.395  0.3983 -1.9855  2.4354
 2518TIP3    H2 7512   0.087   4.071   5.491 -0.2943  2.6135 -2.4435
 2519TIP3   OH2 7513   5.519   4.933   0.656  0.1596 -0.4078  0.5414
 2519TIP3    H1 7514   5.579   5.007   0.645 -1.3608  1.0760  1.7320
 2519TIP3    H2 7515   5.567   4.859   0.619  1.3060  1.3278 -1.7595
 2520TIP3   OH2 7516   8.262   1.112   4.850 -0.4451  0.0466  0.0083
 2520TIP3    H1 7517   8.313   1.101   4.930 -0.2891 -0.5443 -0.1627
 2520TIP3    H2 7518   8.174   1.134   4.879 -0.2026  0.6234  0.3189
 2521TIP3   OH2 7519   3.827   5.906   2.951  0.4869  0.0191  0.3230
 2521TIP3    H1 7520   3.798   5.855   2.876 -1.1865 -0.9278  1.5590
 2521TIP3    H2 7521   3.840   5.995   2.917 -0.0080 -0.4467 -1.1161
 2522TIP3   OH2 7522   6.391   4.002   6.488 -0.2226  0.2672  0.3338
 2522TIP3    H1 7523   6.350   4.078   6.446  0.1056  1.0340  1.3563
 2522TIP3    H2 7524   6.318   3.947   6.514 -0.5728  1.0221  1.0128
 2523TIP3   OH2 7525   5.715   2.512   4.290  0.3158  0.1390 -0.5932
 2523TIP3    H1 7526   5.764   2.578   4.241 -0.1986  1.4228  0.5463
 2523TIP3    H2 7527   5.775   2.485   4.359 -0.2816  1.2035  0.3811
 2524TIP3   OH2 7528   0.455   5.017   2.085  0.2235 -0.3034  0.4255
 2524TIP3    H1 7529   0.541   5.020   2.043  0.1604 -1.5674  0.1630
 2524TIP3    H2 7530   0.394   4.995   2.015 -0.6601  2.4696  0.2015
 2525TIP3   OH2 7531   7.197   6.256   0.961 -0.5668  0.3170  0.0315
 2525TIP3    H1 7532   7.268   6.304   0.918 -0.7416 -0.2973 -0.9744
 2525TIP3    H2 7533   7.241   6.180   1.001 -0.4515  0.7210  0.6892
 2526TIP3   OH2 7534   4.726   2.212   1.184 -0.3429 -0.4947 -0.0185
 2526TIP3    H1 7535   4.734   2.264   1.264  0.3129 -1.3572  0.4929
 2526TIP3    H2 7536   4.729   2.121   1.214 -1.9655 -0.8518 -0.8515
 2527TIP3   OH2 7537   0.435   7.055   5.895 -0.2005 -0.5815  0.4396
 2527TIP3    H1 7538   0.461   7.022   5.809 -0.8167 -1.3597  0.5458
 2527TIP3    H2 7539   0.427   7.150   5.883 -0.2295 -0.6786 -0.3429
 2528TIP3   OH2 7540   4.670   2.181   5.493 -0.1757 -0.7605  0.3928
 2528TIP3    H1 7541   4.582   2.180   5.531 -0.5078  1.5462 -0.1207
 2528TIP3    H2 7542   4.660   2.236   5.415  1.9590  0.5162  0.9689
 2529TIP3   OH2 7543   4.297   0.067   3.362 -0.4543 -0.4464 -0.2218
 2529TIP3    H1 7544   4.305   0.047   3.269  1.0312 -2.2371  0.2355
 2529TIP3    H2 7545   4.204   0.086   3.374 -0.2989  2.4441 -2.4908
 2530TIP3   OH2 7546   4.334   0.410   4.304  0.3789 -0.0867  0.4093
 2530TIP3    H1 7547   4.430   0.415   4.308  0.3561  0.4288  0.3226
 2530TIP3    H2 7548   4.304   0.498   4.326 -0.0864 -0.3179  0.7185
 2531TIP3   OH2 7549   6.764   4.866   3.271 -0.6535 -0.1137 -0.7484
 2531TIP3    H1 7550   6.854   4.886   3.296 -0.3895  0.9941 -2.3766
 2531TIP3    H2 7551   6.717   4.854   3.353  0.5052  1.5213  0.2092
 2532TIP3   OH2 7552   6.988   0.666   0.253  0.2561  0.6571 -0.1463
 2532TIP3    H1 7553   6.955   0.756   0.253 -1.2152  0.1940 -2.1187
 2532TIP3    H2 7554   6.910   0.612   0.238  1.1995 -0.9243  0.3521
 2533TIP3   OH2 7555   2.341   1.340   1.174  0.3318 -0.2011 -0.3154
 2533TIP3    H1 7556   2.256   1.343   1.129  0.6292  2.2443 -0.8436
 2533TIP3    H2 7557   2.404   1.366   1.107  1.1142  0.9945  0.8540
 2534TIP3   OH2 7558   5.132   6.916   6.131  0.0609 -0.0806 -0.4609
 2534TIP3    H1 7559   5.153   6.823   6.129  0.0325 -0.1235  0.7621
 2534TIP3    H2 7560   5.045   6.920   6.170  0.7335  0.5485  1.0432
 2535TIP3   OH2 7561   0.802   4.105   2.120 -0.2360  0.3850 -0.1375
 2535TIP3    H1 7562   0.813   4.146   2.206 -1.0908  0.2261  0.0577
 2535TIP3    H2 7563   0.888   4.068   2.100 -0.2482 -0.3515  1.0638
 2536TIP3   OH2 7564   0.730   5.239   3.657  0.2055 -0.5741  0.0387
 2536TIP3    H1 7565   0.738   5.269   3.747 -1.5194  3.3796 -0.8991
 2536TIP3    H2 7566   0.641   5.265   3.631  0.8034 -1.1145 -2.9479
 2537TIP3   OH2 7567   8.227   5.897   3.882 -0.1694 -0.1284  0.0244
 2537TIP3    H1 7568   8.256   5.823   3.935 -2.4973 -0.7197  0.5578
 2537TIP3    H2 7569   8.216   5.969   3.943 -1.6502 -0.4648  0.1940
 2538TIP3   OH2 7570   1.177   4.169   6.608  0.1692 -0.1169  0.1747
 2538TIP3    H1 7571   1.186   4.230   6.534  1.6702  0.0043  0.4287
 2538TIP3    H2 7572   1.195   4.083   6.571  0.9134 -0.0574  0.3898
 2539TIP3   OH2 7573   3.400   1.062   2.631  0.2215 -0.0347 -0.4074
 2539TIP3    H1 7574   3.340   0.988   2.648  2.7215 -2.1888 -0.3210
 2539TIP3    H2 7575   3.388   1.081   2.538 -3.2882  2.2804  0.3110
 2540TIP3   OH2 7576   4.892   7.597   0.060  0.0871 -0.1818 -0.4261
 2540TIP3    H1 7577   4.935   7.520   0.024 -1.0222  0.1486 -2.6156
 2540TIP3    H2 7578   4.864   7.648  -0.016 -1.6798  1.0075  0.9127
 2541TIP3   OH2 7579   3.289   4.670   0.263 -0.1233  0.5463  0.1194
 2541TIP3    H1 7580   3.256   4.739   0.206 -1.7200  0.7459  1.2087
 2541TIP3    H2 7581   3.379   4.656   0.235 -0.3033  1.8857 -1.2317
 2542TIP3   OH2 7582   2.564   6.695   4.211  0.3265 -0.1236  0.4997
 2542TIP3    H1 7583   2.647   6.739   4.228  0.2114 -0.2930  1.5680
 2542TIP3    H2 7584   2.512   6.759   4.162  1.5226 -0.4691 -1.3248
 2543TIP3   OH2 7585   5.114   1.969   4.777  0.3119 -0.0664 -0.8167
 2543TIP3    H1 7586   5.188   1.916   4.748  2.2111  0.6945  2.2667
 2543TIP3    H2 7587   5.060   1.909   4.829 -0.6287 -0.3051 -2.0235
 2544TIP3   OH2 7588   4.829   0.527   3.053  0.2641  0.4197 -0.1805
 2544TIP3    H1 7589   4.791   0.572   3.128 -1.5498  0.1862 -0.9022
 2544TIP3    H2 7590   4.782   0.562   2.978  2.7531  1.4042 -1.3778
 2545TIP3   OH2 7591   5.506   7.550   2.966  0.1770  0.2962  0.3241
 2545TIP3    H1 7592   5.439   7.581   3.027 -0.0610 -0.4214  0.4419
 2545TIP3    H2 7593   5.502   7.454   2.973 -1.9899 -0.0430 -3.0437
 2546TIP3   OH2 7594   8.002   3.300   4.078 -0.1795 -0.1098  0.2278
 2546TIP3    H1 7595   7.960   3.226   4.034 -2.1656  0.5463  0.9126
 2546TIP3    H2 7596   7.970   3.377   4.032 -0.4252  0.4655  1.3336
 2547TIP3   OH2 7597   5.209   6.332   1.165  0.5754  0.0494 -0.1252
 2547TIP3    H1 7598   5.235   6.250   1.124 -2.4265 -1.4746  0.7393
 2547TIP3    H2 7599   5.289   6.363   1.208  1.7589 -2.6095 -0.1921
 2548TIP3   OH2 7600   5.529   2.089   6.609 -0.3806  0.2252  0.5142
 2548TIP3    H1 7601   5.528   2.121   6.519 -0.8272 -0.3552  0.3092
 2548TIP3    H2 7602   5.622   2.075   6.629 -0.2677  0.5670  0.2212
 2549TIP3   OH2 7603   5.900   0.147   2.177  0.1937 -0.4838  0.6139
 2549TIP3    H1 7604   5.980   0.176   2.133 -0.9617  0.5515 -0.8873
 2549TIP3    H2 7605   5.929   0.126   2.266  1.9818  0.6689  0.3636
 2550TIP3   OH2 7606   5.179   2.898   6.564  0.0191  0.6187 -0.2949
 2550TIP3    H1 7607   5.127   2.872   6.488 -0.7671 -0.7286  0.6532
 2550TIP3    H2 7608   5.269   2.894   6.534 -0.0543 -2.7037 -0.4729
 2551TIP3   OH2 7609   8.134   4.132   1.852  0.3701  0.0554  0.4349
 2551TIP3    H1 7610   8.187   4.052   1.855 -0.1075 -0.6090 -3.2384
 2551TIP3    H2 7611   8.044   4.101   1.862  0.2421  0.1999 -0.1959
 2552TIP3   OH2 7612   4.381   1.550   5.181  0.3836 -0.2750 -0.0497
 2552TIP3    H1 7613   4.466   1.523   5.148  0.1413 -2.5119  0.9273
 2552TIP3    H2 7614   4.401   1.608   5.255  0.9776  0.8680 -1.0732
 2553TIP3   OH2 7615   4.157   2.370   1.086 -0.4239  0.1990 -0.1933
 2553TIP3    H1 7616   4.182   2.283   1.118 -0.9097  0.6421  1.4334
 2553TIP3    H2 7617   4.154   2.359   0.991 -1.3142 -1.8006  0.0054
 2554TIP3   OH2 7618   1.735   7.286   0.620 -0.4955  0.1619  0.0283
 2554TIP3    H1 7619   1.793   7.259   0.549  0.4451 -1.1990  1.2539
 2554TIP3    H2 7620   1.653   7.240   0.603  0.2365 -1.4478  0.6212
 2555TIP3   OH2 7621   7.182   3.834   3.340 -0.8021 -0.1230  0.4529
 2555TIP3    H1 7622   7.248   3.796   3.399 -0.2126  1.8367  1.1256
 2555TIP3    H2 7623   7.211   3.924   3.325 -2.8412  0.5299  0.0291
 2556TIP3   OH2 7624   4.360   1.444   3.063  0.2961  0.0471 -0.8194
 2556TIP3    H1 7625   4.365   1.531   3.025 -2.6377  0.2911 -0.8301
 2556TIP3    H2 7626   4.326   1.458   3.151 -0.6552 -1.0840 -0.9779
 2557TIP3   OH2 7627   3.290   1.948   0.058 -0.1242  0.3195  0.1603
 2557TIP3    H1 7628   3.348   1.994  -0.002 -2.7865 -0.7205 -3.5673
 2557TIP3    H2 7629   3.234   2.016   0.095 -1.8507  0.6247 -2.7383
 2558TIP3   OH2 7630   1.315   0.630   3.027 -0.3108 -0.1587 -0.3472
 2558TIP3    H1 7631   1.380   0.597   2.965  0.4160 -0.3496  0.5005
 2558TIP3    H2 7632   1.253   0.557   3.036  0.4680 -0.7509  0.3704
 2559TIP3   OH2 7633   0.558   5.823   1.342  0.0192 -0.1451 -0.8451
 2559TIP3    H1 7634   0.473   5.863   1.357  0.6912  1.0451 -0.1015
 2559TIP3    H2 7635   0.542   5.759   1.272 -1.4133  0.2490 -0.9092
 2560TIP3   OH2 7636   0.385   6.219   3.322  0.1930 -0.3350  0.5281
 2560TIP3    H1 7637   0.296   6.208   3.289  0.1685  0.3747  0.3402
 2560TIP3    H2 7638   0.386   6.172   3.405 -0.5007  0.0615  0.7708
 2561TIP3   OH2 7639   0.271   7.210   1.664  0.4870 -0.1742 -0.4158
 2561TIP3    H1 7640   0.352   7.188   1.617 -0.0050 -1.2598 -0.7755
 2561TIP3    H2 7641   0.219   7.259   1.601  0.7620  0.3350 -0.2546
 2562TIP3   OH2 7642   6.308   0.722   5.378 -0.0390  0.0963 -0.3164
 2562TIP3    H1 7643   6.323   0.642   5.328 -0.9669 -0.4447  0.2319
 2562TIP3    H2 7644   6.292   0.691   5.468 -1.2457  0.8171 -0.2636
 2563TIP3   OH2 7645   8.299   5.022   6.742 -0.1729 -0.1535 -0.4206
 2563TIP3    H1 7646   8.216   5.067   6.760  0.5973  0.9027  0.6491
 2563TIP3    H2 7647   8.275   4.929   6.741 -1.6878  0.1941 -2.0294
 2564TIP3   OH2 7648   4.092   4.458   4.713  0.2707  0.5035 -0.1925
 2564TIP3    H1 7649   4.128   4.530   4.661  0.7522  0.7381  0.4556
 2564TIP3    H2 7650   4.038   4.501   4.779  0.0467  0.2338 -0.1988
 2565TIP3   OH2 7651   4.112   7.515   6.602 -0.3679  0.6276 -0.1878
 2565TIP3    H1 7652   4.064   7.597   6.592  0.6152  0.9975 -2.2287
 2565TIP3    H2 7653   4.188   7.523   6.545  0.7283 -1.0122  0.9150
 2566TIP3   OH2 7654   5.292   7.630   3.110  0.2895 -0.0566 -0.0784
 2566TIP3    H1 7655   5.261   7.719   3.126  0.1236 -0.1908  0.3582
 2566TIP3    H2 7656   5.219   7.586   3.067  0.0072 -0.2620  0.6005
 2567TIP3   OH2 7657   7.533   5.953   3.661 -0.4771 -0.0748 -0.2302
 2567TIP3    H1 7658   7.541   5.858   3.670 -0.4519 -0.0490  0.0416
 2567TIP3    H2 7659   7.455   5.966   3.607 -2.0420 -0.2009  1.8602
 2568TIP3   OH2 7660   1.008   5.247   4.330 -0.0802  0.7919 -0.3285
 2568TIP3    H1 7661   1.056   5.210   4.256 -0.4837 -0.8509  0.1976
 2568TIP3    H2 7662   1.037   5.339   4.334  0.4547  0.7319 -2.0794
 2569TIP3   OH2 7663   3.826   0.191   3.706  0.0465 -0.5443 -0.1576
 2569TIP3    H1 7664   3.833   0.156   3.618 -0.3490  2.5968 -1.5748
 2569TIP3    H2 7665   3.900   0.250   3.715  0.2343 -0.9836  1.7503
 2570TIP3   OH2 7666   5.063   7.325   2.599 -0.3231  0.5925 -0.4411
 2570TIP3    H1 7667   5.000   7.368   2.542 -1.5137 -0.5524 -0.0345
 2570TIP3    H2 7668   5.033   7.235   2.605 -1.3757  1.0213  3.4221
 2571TIP3   OH2 7669   5.046   2.271   0.620  0.0646 -0.3236 -0.3654
 2571TIP3    H1 7670   5.138   2.272   0.596  0.3461  1.3417  0.6102
 2571TIP3    H2 7671   5.025   2.362   0.641 -1.8302 -0.6384 -0.6406
 2572TIP3   OH2 7672   1.443   7.771   2.017  0.0183  0.2692  0.0888
 2572TIP3    H1 7673   1.442   7.732   1.930  1.1881  0.3437  0.0328
 2572TIP3    H2 7674   1.461   7.864   2.001 -2.7625  0.9184  0.2138
 2573TIP3   OH2 7675   6.872   2.962   5.860 -0.7149 -0.7315 -0.0660
 2573TIP3    H1 7676   6.822   2.882   5.876 -0.2709 -0.9137  0.4525
 2573TIP3    H2 7677   6.850   3.019   5.934 -0.5802 -0.6075 -0.1223
 2574TIP3   OH2 7678   4.856   5.657   1.886  0.1963 -0.5564  0.5321
 2574TIP3    H1 7679   4.819   5.713   1.817 -0.0654 -0.4957  0.7185
 2574TIP3    H2 7680   4.908   5.592   1.839 -0.6129 -0.9943  0.2195
 2575TIP3   OH2 7681   0.240   4.411   4.582  0.3841  0.2749  0.2949
 2575TIP3    H1 7682   0.316   4.366   4.544  1.0940  1.0539  0.7398
 2575TIP3    H2 7683   0.233   4.376   4.670  1.4433  1.5423  0.9354
 2576TIP3   OH2 7684   6.842   2.284   3.424  0.0843  0.0540 -0.0994
 2576TIP3    H1 7685   6.862   2.282   3.518  0.4861  0.7572 -0.1656
 2576TIP3    H2 7686   6.780   2.212   3.412  0.6836 -0.5895  0.5540
 2577TIP3   OH2 7687   7.576   6.036   3.368  0.7514 -0.1484  0.3171
 2577TIP3    H1 7688   7.664   6.002   3.357  0.7430 -0.3163  0.7540
 2577TIP3    H2 7689   7.581   6.093   3.444  0.3374 -0.6730  0.7455
 2578TIP3   OH2 7690   2.776   3.755   1.574  0.1433  0.0503  0.8082
 2578TIP3    H1 7691   2.836   3.801   1.634 -0.3431  2.4687 -0.4486
 2578TIP3    H2 7692   2.772   3.811   1.497 -1.1290 -1.7813 -0.5268
 2579TIP3   OH2 7693   7.771   5.783   6.716 -0.1547 -0.1338  0.0889
 2579TIP3    H1 7694   7.848   5.803   6.770 -0.9108  2.1707  0.4067
 2579TIP3    H2 7695   7.714   5.732   6.775  0.1501  0.0985  0.5955
 2580TIP3   OH2 7696   0.717   4.369   1.856  0.1231 -0.1532  0.6202
 2580TIP3    H1 7697   0.702   4.360   1.762 -1.4374  0.5809  0.7771
 2580TIP3    H2 7698   0.709   4.280   1.890  0.5756 -0.4059  0.0812
 2581TIP3   OH2 7699   8.025   2.875   2.199 -0.1507  0.2519 -0.2196
 2581TIP3    H1 7700   8.100   2.879   2.141  0.3852  1.5038  0.5235
 2581TIP3    H2 7701   7.950   2.864   2.140  0.4793  0.3472 -1.0581
 2582TIP3   OH2 7702   5.509   1.207   6.600  0.3967 -0.1279  0.6883
 2582TIP3    H1 7703   5.598   1.191   6.569  0.1014  0.6207 -0.6100
 2582TIP3    H2 7704   5.506   1.165   6.687  1.4504 -1.7288 -0.0034
 2583TIP3   OH2 7705   2.316   3.658   3.728 -0.2314  0.2116  0.4485
 2583TIP3    H1 7706   2.310   3.624   3.817 -0.9352  1.8205  1.0617
 2583TIP3    H2 7707   2.225   3.670   3.701 -0.0147  0.6731 -0.1058
 2584TIP3   OH2 7708   7.578   3.131   2.647  0.0555 -0.4252 -0.0291
 2584TIP3    H1 7709   7.575   3.144   2.741  0.9511  0.2323 -0.0797
 2584TIP3    H2 7710   7.669   3.149   2.623 -0.4854  0.8845 -1.2327
 2585TIP3   OH2 7711   7.464   5.754   0.041  0.5771  0.2071  0.3611
 2585TIP3    H1 7712   7.400   5.746  -0.030  0.9484 -0.9149  0.1244
 2585TIP3    H2 7713   7.548   5.762  -0.003  0.7128  0.5522  0.6758
 2586TIP3   OH2 7714   4.557   3.084   2.440  0.0539  0.0746 -0.1568
 2586TIP3    H1 7715   4.483   3.070   2.381  0.4486 -0.0860 -0.6154
 2586TIP3    H2 7716   4.517   3.099   2.526 -0.4800 -3.0091  0.2322
 2587TIP3   OH2 7717   2.042   1.671   4.670 -0.4081  0.3881  0.2689
 2587TIP3    H1 7718   2.063   1.579   4.688  1.0349  0.4396 -0.9850
 2587TIP3    H2 7719   2.105   1.721   4.723 -0.1483  0.6306 -0.2673
 2588TIP3   OH2 7720   2.605   1.033   2.333  0.3181 -0.0286  0.4539
 2588TIP3    H1 7721   2.689   1.001   2.365  0.3028 -0.0142  0.5090
 2588TIP3    H2 7722   2.544   1.016   2.405 -0.0693 -1.5446 -0.1872
 2589TIP3   OH2 7723   4.744   0.210   2.912  1.3305 -0.9753  0.0387
 2589TIP3    H1 7724   4.656   0.219   2.876  1.5991  0.0003 -0.3920
 2589TIP3    H2 7725   4.777   0.129   2.872 -0.0175 -2.4096  1.6455
 2590TIP3   OH2 7726   6.303   2.837   2.354 -0.3575 -0.1187  0.2628
 2590TIP3    H1 7727   6.232   2.792   2.308 -1.0551 -0.3997  1.5566
 2590TIP3    H2 7728   6.383   2.795   2.322 -0.7916 -0.0392 -0.9535
 2591TIP3   OH2 7729   1.950   0.362   6.299 -0.9311  0.3157 -0.5898
 2591TIP3    H1 7730   2.033   0.364   6.347 -1.2401 -0.1161 -0.0273
 2591TIP3    H2 7731   1.961   0.292   6.235 -0.6830  0.5908 -0.8506
 2592TIP3   OH2 7732   4.539   4.924   1.558  0.3241 -0.1365 -0.6463
 2592TIP3    H1 7733   4.447   4.949   1.565 -0.0714 -1.6670  0.0321
 2592TIP3    H2 7734   4.536   4.834   1.524  1.5409 -0.4133 -0.0597
 2593TIP3   OH2 7735   7.502   3.465   3.844  0.5900  0.3776  0.3774
 2593TIP3    H1 7736   7.520   3.416   3.924 -0.1059  1.9352  1.5497
 2593TIP3    H2 7737   7.433   3.416   3.801  0.1245  0.1351  1.3683
 2594TIP3   OH2 7738   7.060   1.283   0.814 -0.4947 -0.5889 -0.0130
 2594TIP3    H1 7739   7.085   1.302   0.724 -1.3863 -1.3180 -0.4272
 2594TIP3    H2 7740   7.139   1.244   0.852  0.1837  0.5536 -0.1900
 2595TIP3   OH2 7741   5.313   3.327   3.558 -0.5417 -0.3044 -0.7775
 2595TIP3    H1 7742   5.402   3.293   3.561 -0.6316 -0.4943 -0.0431
 2595TIP3    H2 7743   5.259   3.257   3.595 -0.9285  0.0206 -0.7162
 2596TIP3   OH2 7744   5.062   0.945   6.372 -0.3942 -0.2371 -0.4097
 2596TIP3    H1 7745   5.053   0.895   6.453  2.1267 -0.1011  0.0550
 2596TIP3    H2 7746   5.037   1.034   6.396 -1.0395 -0.4768 -0.1733
 2597TIP3   OH2 7747   6.212   6.758   0.686 -0.5482 -0.7651  0.6648
 2597TIP3    H1 7748   6.209   6.847   0.722 -1.3028 -0.2266 -0.6463
 2597TIP3    H2 7749   6.120   6.733   0.677 -0.3523 -2.3439  2.4956
 2598TIP3   OH2 7750   3.108   5.450   6.222  0.4702 -0.5371 -0.7485
 2598TIP3    H1 7751   3.051   5.519   6.255  0.9071  0.0633 -1.2130
 2598TIP3    H2 7752   3.194   5.491   6.216  0.7522 -1.1465 -0.9621
 2599TIP3   OH2 7753   0.044   5.130   1.946 -0.1641  1.2379 -0.0086
 2599TIP3    H1 7754  -0.033   5.074   1.959  2.5653 -3.2765 -0.9614
 2599TIP3    H2 7755   0.100   5.112   2.021  1.3555  1.7539 -0.9574
 2600TIP3   OH2 7756   7.227   1.907   1.432  0.2652 -0.0539 -0.5041
 2600TIP3    H1 7757   7.144   1.868   1.404  0.7209 -1.3298 -0.1303
 2600TIP3    H2 7758   7.204   1.957   1.511  0.2305 -2.4817  1.1352
 2601TIP3   OH2 7759   5.467   7.618   3.308 -0.0984  0.3872 -0.3574
 2601TIP3    H1 7760   5.393   7.637   3.250  0.9671 -1.1456 -2.3736
 2601TIP3    H2 7761   5.544   7.637   3.254  0.9734 -0.2917  0.8813
 2602TIP3   OH2 7762   5.469   0.056   3.959  0.0289  0.1800 -0.0780
 2602TIP3    H1 7763   5.512  -0.027   3.978 -0.8693 -0.1268  0.6584
 2602TIP3    H2 7764   5.485   0.110   4.036  0.5075  0.6597 -0.5018
 2603TIP3   OH2 7765   7.505   4.158   1.836 -0.6508  0.1343  0.0164
 2603TIP3    H1 7766   7.557   4.223   1.884 -0.0644 -0.7778  0.6357
 2603TIP3    H2 7767   7.508   4.188   1.745  0.0136  0.7160  0.2214
 2604TIP3   OH2 7768   3.394   3.395   4.577 -0.0633 -0.0984  0.0168
 2604TIP3    H1 7769   3.340   3.474   4.570 -0.2841 -0.2718 -0.2565
 2604TIP3    H2 7770   3.474   3.417   4.529  0.2650  0.2838  0.7202
 2605TIP3   OH2 7771   6.503   0.207   3.894  0.0204  0.2649 -0.5313
 2605TIP3    H1 7772   6.481   0.204   3.801 -0.4561 -0.2103 -0.4078
 2605TIP3    H2 7773   6.419   0.204   3.939  0.2736 -0.1988 -0.0721
 2606TIP3   OH2 7774   0.982   3.865   1.647  0.1701  0.1395  0.3974
 2606TIP3    H1 7775   0.971   3.843   1.740 -3.6635 -0.5143 -0.0422
 2606TIP3    H2 7776   1.002   3.781   1.605  1.7752  0.4151  0.5367
 2607TIP3   OH2 7777   0.836   1.212   2.970 -0.1146  0.4178  0.4961
 2607TIP3    H1 7778   0.809   1.250   2.887 -0.9382 -3.5651 -1.2921
 2607TIP3    H2 7779   0.931   1.228   2.974 -0.1058  0.9315 -1.0399
 2608TIP3   OH2 7780   7.852   0.039   3.392  0.2522  0.2413  0.1001
 2608TIP3    H1 7781   7.788   0.108   3.409 -0.8593 -0.6027 -0.4995
 2608TIP3    H2 7782   7.909   0.075   3.323  1.2337  1.4700  1.4880
 2609TIP3   OH2 7783   0.850   5.793   5.141 -0.0336 -0.3926 -0.2560
 2609TIP3    H1 7784   0.883   5.881   5.152  0.2610 -0.7304  1.8223
 2609TIP3    H2 7785   0.757   5.798   5.166 -0.3219 -0.4661 -1.2460
 2610TIP3   OH2 7786   7.364   3.662   5.317 -0.2478 -0.2040  0.1958
 2610TIP3    H1 7787   7.428   3.620   5.260  0.5783  0.2256  0.7721
 2610TIP3    H2 7788   7.405   3.661   5.403 -1.4817 -0.8661  0.8032
 2611TIP3   OH2 7789   7.880   6.748   1.053  0.2200 -0.3707 -0.0037
 2611TIP3    H1 7790   7.812   6.745   0.986  0.2209 -0.5734  0.0014
 2611TIP3    H2 7791   7.961   6.727   1.006  0.2828 -0.1081 -0.0138
 2612TIP3   OH2 7792   6.138   4.083   3.056  0.2667  0.3216  0.2479
 2612TIP3    H1 7793   6.168   4.066   2.966  0.7418  2.9508 -0.1585
 2612TIP3    H2 7794   6.056   4.034   3.063  1.1174 -1.4035 -0.9599
 2613TIP3   OH2 7795   2.714   7.096   2.682  0.7518  0.6124  0.1147
 2613TIP3    H1 7796   2.774   7.097   2.608  1.6616 -0.5698  0.7987
 2613TIP3    H2 7797   2.770   7.076   2.758 -0.6590 -2.2180  0.5557
 2614TIP3   OH2 7798   2.293   0.851   2.799 -0.4520 -0.0051 -0.1827
 2614TIP3    H1 7799   2.233   0.924   2.785  1.6107  1.9600  0.6448
 2614TIP3    H2 7800   2.254   0.802   2.871 -2.3342 -0.3244 -1.3364
 2615TIP3   OH2 7801   7.892   0.222   2.519  0.1708 -0.4080  0.0789
 2615TIP3    H1 7802   7.980   0.184   2.527  0.2314 -0.0928  0.9324
 2615TIP3    H2 7803   7.891   0.295   2.581 -0.4290  0.0992 -0.5076
 2616TIP3   OH2 7804   5.865   6.052   5.739  0.2178  0.0960 -0.2420
 2616TIP3    H1 7805   5.788   6.059   5.682  0.5795 -0.7047 -0.8573
 2616TIP3    H2 7806   5.845   6.108   5.814 -0.3365  1.0680 -1.0868
 2617TIP3   OH2 7807   6.798   7.323   3.676 -0.0577 -0.0800 -0.2265
 2617TIP3    H1 7808   6.851   7.262   3.727  1.5191  0.1109 -1.5535
 2617TIP3    H2 7809   6.708   7.301   3.699  0.4864 -2.2607  0.0723
 2618TIP3   OH2 7810   5.893   0.215   3.463 -0.1000  0.5604  0.0704
 2618TIP3    H1 7811   5.911   0.273   3.388 -0.5022  0.4713 -0.0985
 2618TIP3    H2 7812   5.893   0.273   3.539 -0.5714  0.7936 -0.1063
 2619TIP3   OH2 7813   4.006   0.976   3.094 -0.4198 -0.4253  0.4922
 2619TIP3    H1 7814   4.020   0.882   3.091 -2.7241 -0.7849 -0.6541
 2619TIP3    H2 7815   3.916   0.987   3.124 -1.0937  1.2871 -1.8557
 2620TIP3   OH2 7816   3.734   0.918   0.357 -0.1597  0.6524 -0.2596
 2620TIP3    H1 7817   3.714   0.838   0.407 -0.9152  0.4960 -0.7995
 2620TIP3    H2 7818   3.828   0.930   0.369 -0.2321  0.3333  0.7897
 2621TIP3   OH2 7819   6.692   7.518   4.975  0.1451  0.7991  0.2462
 2621TIP3    H1 7820   6.781   7.554   4.982  0.4999  0.1317 -0.6166
 2621TIP3    H2 7821   6.680   7.502   4.881  1.2366 -4.1751  0.6716
 2622TIP3   OH2 7822   5.949   1.091   4.130  0.0491 -0.2899  0.3223
 2622TIP3    H1 7823   6.016   1.033   4.166 -0.4042 -0.7320  0.4619
 2622TIP3    H2 7824   5.867   1.044   4.142 -0.1069 -0.6073 -1.5865
 2623TIP3   OH2 7825   1.783  -0.004   5.948 -0.0270 -0.2198 -0.0526
 2623TIP3    H1 7826   1.831   0.022   5.869  0.2529  2.3985  0.8632
 2623TIP3    H2 7827   1.698   0.040   5.940 -1.1250 -2.2666 -0.1878
 2624TIP3   OH2 7828   5.558   5.684   0.889 -0.5810  0.4168  0.1455
 2624TIP3    H1 7829   5.508   5.762   0.866 -0.4327  0.8139  1.1479
 2624TIP3    H2 7830   5.549   5.627   0.812 -0.6046  1.4436 -0.6353
 2625TIP3   OH2 7831   1.333   5.605   1.487  0.6959  0.3953 -0.0356
 2625TIP3    H1 7832   1.308   5.698   1.486 -0.5409  0.0700 -0.3702
 2625TIP3    H2 7833   1.266   5.562   1.540  0.5943 -0.4855 -0.8450
 2626TIP3   OH2 7834   6.378   2.001   1.941  0.3139 -0.1877  0.5337
 2626TIP3    H1 7835   6.460   2.029   1.900  0.1702  1.3028  1.2143
 2626TIP3    H2 7836   6.394   2.010   2.035  0.3364 -2.7141  0.8369
 2627TIP3   OH2 7837   0.278   4.303   1.080 -0.1767  0.3710 -0.1215
 2627TIP3    H1 7838   0.345   4.297   1.011  0.8613  2.2695  0.6386
 2627TIP3    H2 7839   0.322   4.274   1.159 -0.8392 -0.1505  0.0653
 2628TIP3   OH2 7840   5.845   3.784   4.245 -0.3780 -0.5609  0.1733
 2628TIP3    H1 7841   5.749   3.786   4.255 -0.5036 -0.5324 -0.9007
 2628TIP3    H2 7842   5.859   3.734   4.165  0.5723 -1.5487  0.9321
 2629TIP3   OH2 7843   5.891   1.649   4.033  0.2404  0.2394  0.4803
 2629TIP3    H1 7844   5.874   1.733   3.989 -0.2565  1.8079  3.4112
 2629TIP3    H2 7845   5.812   1.632   4.083  0.7907 -1.4377  0.8501
 2630TIP3   OH2 7846   4.081   1.911   5.458 -0.3145 -0.3402 -0.4398
 2630TIP3    H1 7847   4.147   1.922   5.526 -1.0356  0.0949  0.2148
 2630TIP3    H2 7848   4.030   1.992   5.461 -0.6693 -0.5300 -1.1578
 2631TIP3   OH2 7849   1.676   7.217   6.147 -0.1310  0.2268 -0.6727
 2631TIP3    H1 7850   1.770   7.234   6.151  0.0665 -0.7917 -0.8472
 2631TIP3    H2 7851   1.639   7.298   6.111  0.6652  0.6608 -0.5412
 2632TIP3   OH2 7852   6.809   3.689   5.213  0.8781  0.5909 -0.0916
 2632TIP3    H1 7853   6.764   3.739   5.281  0.3546  0.9439 -0.6899
 2632TIP3    H2 7854   6.798   3.740   5.134 -0.8068 -1.0657 -1.0043
 2633TIP3   OH2 7855   3.227   1.145   2.420  0.2229 -0.5401 -0.8376
 2633TIP3    H1 7856   3.273   1.180   2.344  0.7477  1.2631  0.2398
 2633TIP3    H2 7857   3.191   1.222   2.464  1.7826 -1.2244  1.8999
 2634TIP3   OH2 7858   2.373   1.245   0.306  0.1589 -0.4297  0.3730
 2634TIP3    H1 7859   2.449   1.230   0.363  0.0472 -0.9813  0.3823
 2634TIP3    H2 7860   2.335   1.158   0.294 -1.7883  0.0764  2.1969
 2635TIP3   OH2 7861   0.713   1.814   3.112  0.7229 -0.1385 -0.3770
 2635TIP3    H1 7862   0.809   1.807   3.113  0.8472  0.6845 -2.0131
 2635TIP3    H2 7863   0.691   1.857   3.194  2.1191  2.8443 -1.3971
 2636TIP3   OH2 7864   4.552   4.665   1.447 -0.6993  0.7319 -0.2430
 2636TIP3    H1 7865   4.462   4.637   1.434 -1.2720  1.8411  1.0283
 2636TIP3    H2 7866   4.605   4.598   1.405 -2.1036 -0.0884 -0.7670
 2637TIP3   OH2 7867   1.430   5.988   3.931 -0.0652 -0.3440 -0.0513
 2637TIP3    H1 7868   1.500   5.924   3.918  1.6353  1.3327  0.3025
 2637TIP3    H2 7869   1.429   6.004   4.025 -1.2145 -0.6347 -0.0081
 2638TIP3   OH2 7870   3.631   6.985   5.585  0.0688  0.2002 -0.2610
 2638TIP3    H1 7871   3.614   6.901   5.542  1.4831 -0.4910  0.4759
 2638TIP3    H2 7872   3.670   7.039   5.516  1.2110 -0.5029 -0.1929
 2639TIP3   OH2 7873   4.084   5.205   1.505  0.1972  0.3398 -0.0866
 2639TIP3    H1 7874   4.046   5.171   1.586 -1.6621 -1.2890 -1.5213
 2639TIP3    H2 7875   4.008   5.232   1.452  1.3415  1.2746 -1.3269
 2640TIP3   OH2 7876   6.291   0.652   6.525  0.4781 -0.1354 -0.2303
 2640TIP3    H1 7877   6.273   0.622   6.614  0.8631 -0.7084 -0.3365
 2640TIP3    H2 7878   6.325   0.741   6.535  1.9920 -0.7404  0.3338
 2641TIP3   OH2 7879   0.677   3.180   0.005  0.0944  0.7262  0.4634
 2641TIP3    H1 7880   0.675   3.110   0.071 -1.5733  1.0342  0.7831
 2641TIP3    H2 7881   0.735   3.146  -0.064 -0.5799 -0.9380  0.6629
 2642TIP3   OH2 7882   2.795   6.138   0.718  0.3653  0.6807  0.3411
 2642TIP3    H1 7883   2.805   6.066   0.780 -2.7578 -0.5964 -0.3898
 2642TIP3    H2 7884   2.851   6.114   0.644  0.4421 -0.2797  0.6978
 2643TIP3   OH2 7885   1.121   5.327   2.648  0.2435 -0.1008  0.1595
 2643TIP3    H1 7886   1.172   5.354   2.724 -1.3241  0.4610  1.0743
 2643TIP3    H2 7887   1.065   5.256   2.680  0.1445 -0.4202 -0.6865
 2644TIP3   OH2 7888   2.074   6.519   5.006  1.2255 -0.0845 -0.1558
 2644TIP3    H1 7889   2.159   6.557   5.025  1.5008  0.1580 -1.6931
 2644TIP3    H2 7890   2.093   6.429   4.979  1.2500  0.5126 -2.3253
 2645TIP3   OH2 7891   4.884   2.957   4.479  0.2713  0.2833 -0.6392
 2645TIP3    H1 7892   4.839   2.879   4.509  1.2584 -0.7137 -1.6560
 2645TIP3    H2 7893   4.855   2.968   4.388  2.0585 -0.4369 -1.3514
 2646TIP3   OH2 7894   4.764   6.689   4.627  0.1448 -0.6137 -0.0814
 2646TIP3    H1 7895   4.845   6.738   4.616 -0.2458  0.0023 -0.2982
 2646TIP3    H2 7896   4.720   6.695   4.542 -0.2674 -0.6876  0.1205
 2647TIP3   OH2 7897   0.153   5.336   1.802 -0.6214  0.2586  0.4331
 2647TIP3    H1 7898   0.119   5.256   1.842  1.2344 -0.2032  1.2179
 2647TIP3    H2 7899   0.101   5.407   1.840 -0.3668 -0.3627  2.0229
 2648TIP3   OH2 7900   5.425   7.169   3.485  0.0740 -0.4710 -0.2733
 2648TIP3    H1 7901   5.369   7.247   3.476  0.7255 -0.0302 -0.5683
 2648TIP3    H2 7902   5.441   7.140   3.396 -0.7174 -1.3538 -0.1361
 2649TIP3   OH2 7903   3.002   2.968   3.681 -0.6916  0.2525  0.1283
 2649TIP3    H1 7904   3.011   2.955   3.775 -2.0408  1.4164  0.4481
 2649TIP3    H2 7905   3.092   2.984   3.651 -0.2886  0.2771  1.2783
 2650TIP3   OH2 7906   0.264   1.139   3.997 -0.3138 -0.5137 -0.1179
 2650TIP3    H1 7907   0.284   1.050   4.028  1.3179 -0.0831  0.1893
 2650TIP3    H2 7908   0.350   1.174   3.971 -0.9136  1.0440 -0.0513
 2651TIP3   OH2 7909   0.272   1.666   4.542 -0.3039 -0.1037  0.4992
 2651TIP3    H1 7910   0.356   1.686   4.584  0.1341 -0.1819 -0.3301
 2651TIP3    H2 7911   0.249   1.744   4.493 -0.9608  0.0910  1.0969
 2652TIP3   OH2 7912   3.566   3.060   1.541 -0.1387 -0.0965 -0.2189
 2652TIP3    H1 7913   3.603   2.991   1.485 -0.1633  0.6524 -1.1825
 2652TIP3    H2 7914   3.565   3.021   1.629  0.3214 -1.1379 -0.6521
 2653TIP3   OH2 7915   4.783   4.317   2.150 -0.3353  0.6553  0.5813
 2653TIP3    H1 7916   4.695   4.297   2.117  0.4001 -1.2148 -0.3998
 2653TIP3    H2 7917   4.784   4.279   2.238  0.7503 -3.3208 -0.9361
 2654TIP3   OH2 7918   4.266   5.792   5.385  0.0808 -0.2978  0.6069
 2654TIP3    H1 7919   4.218   5.716   5.419  2.2187 -1.0805  2.0837
 2654TIP3    H2 7920   4.234   5.865   5.439 -1.0861 -0.3367  0.0106
 2655TIP3   OH2 7921   7.592   2.673   5.714 -0.3825 -0.0924 -0.6275
 2655TIP3    H1 7922   7.544   2.594   5.691  1.6001 -1.8974  1.0061
 2655TIP3    H2 7923   7.670   2.672   5.657  1.1514 -1.0076  1.3628
 2656TIP3   OH2 7924   4.740   2.736   3.828 -0.3164 -0.6911 -0.1329
 2656TIP3    H1 7925   4.745   2.832   3.831  0.1015 -0.7033  2.6405
 2656TIP3    H2 7926   4.826   2.708   3.799  0.0001 -0.2138  0.3235
 2657TIP3   OH2 7927   5.293   7.082   5.903  0.0882  0.4780  0.6427
 2657TIP3    H1 7928   5.297   7.099   5.809  1.4681 -1.7010  0.2480
 2657TIP3    H2 7929   5.221   7.018   5.913 -1.8500  2.6310  1.4831
 2658TIP3   OH2 7930   5.324   3.860   0.138 -0.6159 -0.2932  0.2557
 2658TIP3    H1 7931   5.240   3.836   0.099 -0.6042 -0.7950  0.5199
 2658TIP3    H2 7932   5.372   3.777   0.142 -0.5717 -0.2339  1.2019
 2659TIP3   OH2 7933   5.361   3.640   0.748  0.1435  0.1518  0.7167
 2659TIP3    H1 7934   5.288   3.685   0.791  0.4561  1.5083 -0.1076
 2659TIP3    H2 7935   5.333   3.549   0.743 -2.7951  1.0167 -2.0555
 2660TIP3   OH2 7936   8.177   1.677   1.156 -0.2612 -0.1818 -1.1292
 2660TIP3    H1 7937   8.134   1.593   1.172 -0.0205  0.2681  3.1523
 2660TIP3    H2 7938   8.262   1.670   1.201 -0.8582  2.7134  0.8087
 2661TIP3   OH2 7939   0.088   6.741   4.240 -0.1690 -0.5860  0.0973
 2661TIP3    H1 7940   0.055   6.829   4.220 -0.9437 -1.0698 -0.8315
 2661TIP3    H2 7941   0.097   6.740   4.336  1.9737  1.2158  0.0063
 2662TIP3   OH2 7942   0.483   3.232   4.433  0.1087 -0.1269  0.3417
 2662TIP3    H1 7943   0.413   3.245   4.497  0.6042  3.3737  0.3812
 2662TIP3    H2 7944   0.441   3.245   4.348  0.4512  0.9068  0.3126
 2663TIP3   OH2 7945   5.838   7.580   4.917  0.1734  0.2642  0.1266
 2663TIP3    H1 7946   5.860   7.624   4.835 -1.5219 -2.4318 -1.9568
 2663TIP3    H2 7947   5.921   7.543   4.947  0.6603  0.4027 -0.9719
 2664TIP3   OH2 7948   3.452   5.662   1.493 -0.0254 -0.0783  0.0678
 2664TIP3    H1 7949   3.397   5.689   1.419  0.4975  1.5452  0.2298
 2664TIP3    H2 7950   3.486   5.576   1.467 -0.8157 -0.0816 -1.0364
 2665TIP3   OH2 7951   7.109   7.762   6.231 -0.1006 -0.0553  0.1935
 2665TIP3    H1 7952   7.092   7.842   6.281  0.8528  1.0114 -1.1020
 2665TIP3    H2 7953   7.204   7.764   6.215  0.0363 -1.7680  0.6441
 2666TIP3   OH2 7954   0.427   4.868   6.366 -0.6204 -0.0356  0.1225
 2666TIP3    H1 7955   0.445   4.879   6.459  1.6128  1.8969 -0.4301
 2666TIP3    H2 7956   0.382   4.949   6.340 -3.0739 -1.3882 -0.1780
 2667TIP3   OH2 7957   2.619   0.384   3.985  0.4249 -1.0323 -0.8468
 2667TIP3    H1 7958   2.708   0.419   3.992  0.4700 -0.8299 -2.1284
 2667TIP3    H2 7959   2.631   0.293   3.956  0.2660 -1.7886  1.2881
 2668TIP3   OH2 7960   5.640   0.906   0.860 -0.1951 -0.9414  0.0065
 2668TIP3    H1 7961   5.701   0.940   0.925 -0.1890 -0.5968 -0.1802
 2668TIP3    H2 7962   5.694   0.851   0.803 -0.0431 -0.5753 -0.2041
 2669TIP3   OH2 7963   2.970   0.389   3.448  0.5556 -0.1940  0.9143
 2669TIP3    H1 7964   3.007   0.452   3.387  0.7961  0.1726  1.4310
 2669TIP3    H2 7965   2.892   0.432   3.484  1.6379  0.5297  2.5216
 2670TIP3   OH2 7966   3.876   2.744   1.124 -0.4329 -0.5416  0.1217
 2670TIP3    H1 7967   3.966   2.773   1.109 -0.2371  0.0081  2.1082
 2670TIP3    H2 7968   3.876   2.710   1.213 -2.4573  0.5125  0.5766
 2671TIP3   OH2 7969   5.736   4.310   4.787  0.2601 -0.0717  0.4102
 2671TIP3    H1 7970   5.646   4.281   4.772  0.5070 -0.4962 -0.3373
 2671TIP3    H2 7971   5.735   4.348   4.875 -0.9239  1.0251 -0.0355
 2672TIP3   OH2 7972   7.324   0.145   4.233 -0.2099 -0.2706  0.0239
 2672TIP3    H1 7973   7.341   0.186   4.318  1.3020  1.3999 -1.0065
 2672TIP3    H2 7974   7.394   0.080   4.223  0.4614  0.5145 -0.5090
 2673TIP3   OH2 7975   8.072   2.667   2.659  0.1212 -0.8202  0.7917
 2673TIP3    H1 7976   8.058   2.573   2.669 -2.0099 -0.6343  0.0887
 2673TIP3    H2 7977   8.076   2.680   2.564  1.3389 -0.2825  0.8929
 2674TIP3   OH2 7978   5.777   4.091   4.369 -0.1019 -1.1462  0.4464
 2674TIP3    H1 7979   5.803   4.165   4.425 -0.3920 -1.3911  0.9084
 2674TIP3    H2 7980   5.691   4.066   4.401 -1.9174  0.9304 -2.3367
 2675TIP3   OH2 7981   1.384   6.769   0.378 -0.4346  0.5859 -0.2278
 2675TIP3    H1 7982   1.292   6.743   0.374 -0.1201 -1.3275  2.1634
 2675TIP3    H2 7983   1.422   6.736   0.297 -1.5694 -0.0094 -0.5473
 2676TIP3   OH2 7984   4.207   2.876   6.649  0.0052 -0.7220  0.0015
 2676TIP3    H1 7985   4.282   2.819   6.629  1.2646  0.4588  1.1135
 2676TIP3    H2 7986   4.223   2.955   6.598 -0.9206 -0.7612 -0.3600
 2677TIP3   OH2 7987   4.563   1.253   5.059 -0.1129  0.3316 -0.1781
 2677TIP3    H1 7988   4.549   1.201   4.979 -1.4067  0.4480 -0.0480
 2677TIP3    H2 7989   4.492   1.226   5.117 -0.4739  1.8122  0.1103
 2678TIP3   OH2 7990   1.917   3.007   4.683  0.0449  0.3351 -0.0927
 2678TIP3    H1 7991   1.842   2.948   4.677 -0.2210  0.8129 -1.9753
 2678TIP3    H2 7992   1.968   2.973   4.757 -1.9832 -0.0032  1.2253
 2679TIP3   OH2 7993   5.178   5.994   4.077 -0.1409 -0.5087 -0.6762
 2679TIP3    H1 7994   5.197   5.906   4.044  0.2595 -0.5333 -0.3896
 2679TIP3    H2 7995   5.212   6.052   4.009  0.6862 -0.5599 -0.3149
 2680TIP3   OH2 7996   0.182   4.352   1.785  0.0753  0.3706 -0.4816
 2680TIP3    H1 7997   0.260   4.326   1.834 -0.8575 -0.8827  0.4007
 2680TIP3    H2 7998   0.178   4.292   1.711  0.9855  1.6885 -1.6439
 2681TIP3   OH2 7999   2.469   6.461   4.239  0.0559  0.0631  0.0235
 2681TIP3    H1 8000   2.387   6.461   4.289 -0.0233 -2.1256  0.0023
 2681TIP3    H2 8001   2.492   6.554   4.231 -1.6222  0.6560  1.3139
 2682TIP3   OH2 8002   4.612   3.281   6.527 -0.0785 -0.1993  0.3531
 2682TIP3    H1 8003   4.520   3.261   6.512  0.0783 -0.6700  0.0089
 2682TIP3    H2 8004   4.651   3.281   6.439  0.2010  0.2536  0.4713
 2683TIP3   OH2 8005   2.533   1.993   1.934  0.2980  0.2119  0.1183
 2683TIP3    H1 8006   2.463   1.955   1.882  1.2584 -1.7166  0.1643
 2683TIP3    H2 8007   2.536   2.085   1.906 -0.6174 -0.2554 -1.6754
 2684TIP3   OH2 8008   1.911   0.427   2.575 -0.0876  0.0542 -0.1410
 2684TIP3    H1 8009   1.907   0.519   2.602  1.2399  0.6167 -1.6627
 2684TIP3    H2 8010   1.886   0.428   2.483  2.2910 -0.7162 -0.8682
 2685TIP3   OH2 8011   4.608   5.458   1.639  0.3517  0.2274 -0.3248
 2685TIP3    H1 8012   4.526   5.488   1.679 -0.4876  0.0470 -1.8129
 2685TIP3    H2 8013   4.593   5.468   1.545  2.3280  0.8858 -0.6242
 2686TIP3   OH2 8014   2.431   6.255   1.436 -0.5783 -0.0626  0.0540
 2686TIP3    H1 8015   2.391   6.258   1.349 -0.1875 -0.1635 -0.1305
 2686TIP3    H2 8016   2.357   6.259   1.496 -0.8187  0.7089 -0.2770
 2687TIP3   OH2 8017   6.412   1.826   1.739 -0.0698  0.3958  0.2982
 2687TIP3    H1 8018   6.418   1.746   1.791 -0.1217 -0.0915 -0.4366
 2687TIP3    H2 8019   6.375   1.891   1.799  0.3766 -0.0089  1.0289
 2688TIP3   OH2 8020   6.342   5.876   3.351 -0.4261 -0.0385 -0.0717
 2688TIP3    H1 8021   6.263   5.916   3.387 -0.0503  1.0977 -0.4827
 2688TIP3    H2 8022   6.413   5.933   3.380  0.2559 -1.0310  0.2661
 2689TIP3   OH2 8023   1.339   7.778   6.641  0.1327  0.2040 -0.1588
 2689TIP3    H1 8024   1.341   7.874   6.639  0.1584  0.2204 -2.8402
 2689TIP3    H2 8025   1.430   7.752   6.627 -0.1879 -0.1412 -1.8302
 2690TIP3   OH2 8026   5.726   6.169   1.777  0.4354  0.0618  0.7706
 2690TIP3    H1 8027   5.652   6.124   1.818 -0.2175 -2.7529 -2.9655
 2690TIP3    H2 8028   5.687   6.214   1.701  2.2815 -0.1616 -0.3680
 2691TIP3   OH2 8029   7.523   1.257   3.178 -0.4733  0.0466 -0.5767
 2691TIP3    H1 8030   7.556   1.212   3.100  1.1246 -0.2414  0.2299
 2691TIP3    H2 8031   7.600   1.273   3.231 -1.0397  3.3111 -0.5679
 2692TIP3   OH2 8032   2.851   0.447   0.735 -0.0418 -0.0118 -0.1303
 2692TIP3    H1 8033   2.880   0.460   0.825  0.5505 -0.3788 -0.2606
 2692TIP3    H2 8034   2.756   0.440   0.740 -0.0554  0.5353  0.3950
 2693TIP3   OH2 8035   5.594   1.953   4.707  0.0274  0.4755  0.1302
 2693TIP3    H1 8036   5.628   1.870   4.674 -0.8463  0.3101 -0.4008
 2693TIP3    H2 8037   5.658   1.982   4.772  0.0263 -0.9416  0.7959
 2694TIP3   OH2 8038   1.396   5.568   5.746 -0.5021  0.2578  0.6339
 2694TIP3    H1 8039   1.332   5.635   5.725 -2.6490 -1.8084  0.2606
 2694TIP3    H2 8040   1.347   5.486   5.749  1.7019 -1.1516  2.6240
 2695TIP3   OH2 8041   1.485   0.858   6.709  0.3647  0.1267 -0.2227
 2695TIP3    H1 8042   1.422   0.848   6.780  1.7633 -1.7341  0.8675
 2695TIP3    H2 8043   1.473   0.781   6.655  0.5847  0.5882 -0.9446
 2696TIP3   OH2 8044   0.445   3.438   3.740  0.2102 -0.1477 -0.0417
 2696TIP3    H1 8045   0.408   3.361   3.782  0.0309  0.3630  0.7609
 2696TIP3    H2 8046   0.414   3.511   3.792  0.0243  0.5132 -1.0489
 2697TIP3   OH2 8047   6.597   4.051   0.620  0.7187  0.1308  0.1599
 2697TIP3    H1 8048   6.611   4.141   0.648 -1.6849  0.4890  0.4804
 2697TIP3    H2 8049   6.578   4.058   0.526 -1.3321  0.2651  0.5349
 2698TIP3   OH2 8050   3.946   2.685   1.401 -0.2586 -0.3520 -0.1779
 2698TIP3    H1 8051   3.943   2.642   1.486  1.5186 -2.6346 -1.1634
 2698TIP3    H2 8052   4.038   2.705   1.387 -0.6382  0.8384 -1.2054
 2699TIP3   OH2 8053   8.135   1.340   0.349  0.0939  0.2651  0.2996
 2699TIP3    H1 8054   8.157   1.432   0.366 -0.5609  0.5820 -0.5219
 2699TIP3    H2 8055   8.126   1.302   0.436  2.4614  0.4432  0.6921
 2700TIP3   OH2 8056   0.661   4.585   1.500 -0.2698  0.1792  0.2097
 2700TIP3    H1 8057   0.708   4.615   1.578  1.8011  0.0822 -0.9228
 2700TIP3    H2 8058   0.637   4.494   1.520 -0.1190  0.2845  0.8853
 2701TIP3   OH2 8059   2.753   2.734   1.648  0.4032 -0.4036  0.0644
 2701TIP3    H1 8060   2.672   2.728   1.596  0.8051 -0.9304 -0.5125
 2701TIP3    H2 8061   2.751   2.655   1.702  0.3346 -0.2088  0.3488
 2702TIP3   OH2 8062   7.164   7.105   3.424 -0.2149  0.7323 -0.4247
 2702TIP3    H1 8063   7.098   7.041   3.397  1.0915 -0.8389 -0.0526
 2702TIP3    H2 8064   7.136   7.133   3.511  0.2952 -0.9463  0.3116
 2703TIP3   OH2 8065   6.861   5.967   6.698  0.5692  0.6995 -0.4069
 2703TIP3    H1 8066   6.839   6.014   6.779  0.9813 -1.7362  1.2185
 2703TIP3    H2 8067   6.956   5.955   6.704  0.4235 -0.6474 -0.5662
 2704TIP3   OH2 8068   7.831   4.755   0.129  0.4259 -0.2737  0.5157
 2704TIP3    H1 8069   7.815   4.694   0.201 -1.2993  0.2296  0.6166
 2704TIP3    H2 8070   7.818   4.842   0.167 -3.4771 -0.0365 -0.8973
 2705TIP3   OH2 8071   7.862   1.377   3.590  0.3636 -0.4488  0.3987
 2705TIP3    H1 8072   7.890   1.286   3.580  0.1895 -0.5010  0.3869
 2705TIP3    H2 8073   7.772   1.371   3.623  0.6835 -0.2800  1.3160
 2706TIP3   OH2 8074   0.098   4.250   5.986 -0.3651 -0.0159  0.2469
 2706TIP3    H1 8075   0.089   4.180   6.051 -0.3591  1.1801  1.5986
 2706TIP3    H2 8076   0.040   4.226   5.915 -0.5679 -1.2512  0.8163
 2707TIP3   OH2 8077   2.319   6.443   2.375  0.8954  0.5845  0.0048
 2707TIP3    H1 8078   2.225   6.433   2.356  0.9256 -3.6822  1.0263
 2707TIP3    H2 8079   2.356   6.477   2.294 -1.3694  1.2548 -0.8320
 2708TIP3   OH2 8080   5.414   3.356   0.496  0.4987 -1.0833  0.3300
 2708TIP3    H1 8081   5.366   3.277   0.472  0.2561 -0.5547 -0.9862
 2708TIP3    H2 8082   5.462   3.380   0.417 -1.6586  1.7135 -0.2675
 2709TIP3   OH2 8083   2.566   4.587   5.621  0.1338  0.1055  0.0705
 2709TIP3    H1 8084   2.559   4.673   5.580  1.6527  0.3056  0.1832
 2709TIP3    H2 8085   2.484   4.543   5.599 -0.6204  1.5332 -0.0888
 2710TIP3   OH2 8086   4.721   5.843   1.230  0.2126  0.0968  0.3101
 2710TIP3    H1 8087   4.751   5.933   1.218  0.3049 -0.0352 -0.5393
 2710TIP3    H2 8088   4.799   5.790   1.214 -0.0385 -0.1666 -0.0625
 2711TIP3   OH2 8089   5.933   5.277   3.695 -0.1512 -0.4754  0.2014
 2711TIP3    H1 8090   6.027   5.290   3.708  0.0946 -1.7280 -0.1756
 2711TIP3    H2 8091   5.913   5.196   3.742 -1.6792  1.2494  2.8087
 2712TIP3   OH2 8092   0.065   2.152   0.986  0.0050 -0.2338 -0.1918
 2712TIP3    H1 8093   0.013   2.158   1.066  0.2629  0.4759 -0.0691
 2712TIP3    H2 8094   0.045   2.066   0.951 -2.4603  0.5850 -0.9734
 2713TIP3   OH2 8095   5.813   1.692   1.046 -0.0805  0.0187  0.2859
 2713TIP3    H1 8096   5.800   1.634   1.121  0.3578 -0.5277 -0.0456
 2713TIP3    H2 8097   5.790   1.779   1.078 -0.9550 -0.3674  0.7318
 2714TIP3   OH2 8098   3.383   0.774   5.555 -0.3008  0.3312  0.2216
 2714TIP3    H1 8099   3.320   0.837   5.521  0.0622  1.0901  0.9325
 2714TIP3    H2 8100   3.468   0.806   5.524 -0.2113 -0.4968 -0.4442
 2715TIP3   OH2 8101   0.420   0.514   5.534  0.0281 -0.2698  0.0871
 2715TIP3    H1 8102   0.488   0.544   5.475  1.9253 -3.2565  0.5585
 2715TIP3    H2 8103   0.449   0.541   5.621 -2.4413  3.5573 -0.0459
 2716TIP3   OH2 8104   3.995   6.962   2.445  0.4092  0.3210 -0.4880
 2716TIP3    H1 8105   4.089   6.948   2.431  0.2069 -1.4003 -0.3037
 2716TIP3    H2 8106   3.953   6.891   2.396 -0.7191 -0.0047  0.8983
 2717TIP3   OH2 8107   3.080   5.396   5.314  0.2926  0.1840  0.0181
 2717TIP3    H1 8108   3.053   5.396   5.405  0.9361  0.2516  0.2165
 2717TIP3    H2 8109   3.011   5.443   5.268  0.1290  0.4408  0.5213
 2718TIP3   OH2 8110   2.499   4.730   1.625  0.4505  0.2878  0.1408
 2718TIP3    H1 8111   2.413   4.764   1.650 -0.2828 -0.7357 -0.8708
 2718TIP3    H2 8112   2.520   4.666   1.693  0.6214  0.8465  0.6214
 2719TIP3   OH2 8113   0.182   1.926   1.911  0.3880 -0.4063 -0.4328
 2719TIP3    H1 8114   0.221   1.852   1.956  0.0731 -2.6427 -3.5146
 2719TIP3    H2 8115   0.088   1.908   1.911  0.2994 -0.0132 -1.1925
 2720TIP3   OH2 8116   4.419   6.266   2.708 -0.3385  0.2468  0.1702
 2720TIP3    H1 8117   4.404   6.264   2.802 -0.6568  0.8339  0.1363
 2720TIP3    H2 8118   4.480   6.194   2.692  0.4657  0.7274  0.9559
 2721TIP3   OH2 8119   1.527   3.468   5.957  0.2324  0.4292 -0.3714
 2721TIP3    H1 8120   1.489   3.547   5.997  1.5091  0.2713  1.2573
 2721TIP3    H2 8121   1.620   3.473   5.979  0.2346 -1.8512  0.3843
 2722TIP3   OH2 8122   6.476   2.272   3.272 -0.0054  0.8106  0.1253
 2722TIP3    H1 8123   6.418   2.278   3.196  1.5282  1.8678 -1.0249
 2722TIP3    H2 8124   6.562   2.296   3.238  0.7241  1.3518  2.2214
 2723TIP3   OH2 8125   0.254   4.990   3.951  0.2217 -0.0021  0.2842
 2723TIP3    H1 8126   0.160   4.976   3.963  0.0319  0.6376 -0.4443
 2723TIP3    H2 8127   0.293   4.905   3.974 -0.5290 -0.2885  0.5453
 2724TIP3   OH2 8128   0.933   1.979   4.560  0.2884  0.1779  0.1618
 2724TIP3    H1 8129   0.993   2.043   4.597  2.2975 -2.2974  1.5353
 2724TIP3    H2 8130   0.962   1.968   4.470  0.9601  0.0856  0.3834
 2725TIP3   OH2 8131   5.477   6.179   0.509  0.1334  0.0468  0.1902
 2725TIP3    H1 8132   5.410   6.222   0.563  0.2943  2.0534 -1.0946
 2725TIP3    H2 8133   5.467   6.219   0.422  1.7627 -0.9775 -0.5171
 2726TIP3   OH2 8134   7.732   5.403   3.724  0.0019 -0.0473 -0.0837
 2726TIP3    H1 8135   7.754   5.338   3.790 -0.8880 -1.4432 -1.1112
 2726TIP3    H2 8136   7.675   5.465   3.769  0.3790 -0.2920  0.7553
 2727TIP3   OH2 8137   2.508   7.638   2.046  0.2761  0.5697  0.8365
 2727TIP3    H1 8138   2.430   7.661   2.097  1.0422  1.2067  1.7650
 2727TIP3    H2 8139   2.570   7.606   2.111  1.3004  1.4626  0.3342
 2728TIP3   OH2 8140   1.302   2.836   3.199 -0.4221  0.0104 -0.7036
 2728TIP3    H1 8141   1.218   2.820   3.157 -0.3528 -1.8829 -0.2163
 2728TIP3    H2 8142   1.287   2.817   3.291  1.1323 -3.3405 -0.9664
 2729TIP3   OH2 8143   6.560   3.890   1.724  0.5135 -0.5989  0.4473
 2729TIP3    H1 8144   6.636   3.842   1.692  0.5363  0.3951 -1.0648
 2729TIP3    H2 8145   6.596   3.973   1.756  0.0768 -0.0880 -0.3549
 2730TIP3   OH2 8146   2.476   1.450   4.574  0.3057 -0.0571  0.0725
 2730TIP3    H1 8147   2.464   1.414   4.486  1.4082  1.7476 -0.8701
 2730TIP3    H2 8148   2.387   1.472   4.603 -0.0363 -0.3463 -0.7209
 2731TIP3   OH2 8149   2.330   6.183   3.071 -0.2656  0.5206 -0.1115
 2731TIP3    H1 8150   2.331   6.188   2.976  0.3197  2.8327 -0.0451
 2731TIP3    H2 8151   2.407   6.130   3.093 -0.6234 -0.3532 -0.9076
 2732TIP3   OH2 8152   3.988   5.883   1.949 -0.0255  0.4723  0.2708
 2732TIP3    H1 8153   3.993   5.977   1.966 -0.2679  0.3787  0.8948
 2732TIP3    H2 8154   3.897   5.868   1.922 -0.0278  0.3926  0.3224
 2733TIP3   OH2 8155   0.976   4.839   1.329  0.0227  0.3932 -0.1907
 2733TIP3    H1 8156   1.059   4.793   1.332 -0.1544  0.0792 -0.0394
 2733TIP3    H2 8157   0.940   4.820   1.242 -0.1746  0.0163 -0.0321
 2734TIP3   OH2 8158   4.639   4.336   5.028 -0.0661  0.5817  0.0071
 2734TIP3    H1 8159   4.655   4.393   5.103  1.1867  0.2665 -0.0017
 2734TIP3    H2 8160   4.572   4.275   5.058  0.9956 -0.0648  1.1736
 2735TIP3   OH2 8161   7.103   3.444   6.768  0.3642 -0.2049 -0.3840
 2735TIP3    H1 8162   7.175   3.433   6.706  1.0295  0.9745  0.1533
 2735TIP3    H2 8163   7.065   3.357   6.776  1.5005 -0.7768 -0.9569
 2736TIP3   OH2 8164   7.988   0.726   2.586  0.4200  0.2550  0.0958
 2736TIP3    H1 8165   8.083   0.714   2.588  0.3885  0.0800  1.7020
 2736TIP3    H2 8166   7.971   0.767   2.501  2.0992  1.6996  0.3839
 2737TIP3   OH2 8167   0.076   7.263   3.205  0.3087  0.2523 -0.5952
 2737TIP3    H1 8168   0.001   7.246   3.148 -1.0077 -1.2501  1.4608
 2737TIP3    H2 8169   0.127   7.182   3.203  0.7469  0.5168 -0.3296
 2738TIP3   OH2 8170   4.287   1.244   0.896 -0.4013  0.2402 -0.1631
 2738TIP3    H1 8171   4.330   1.164   0.928 -1.7435 -0.9629 -1.2604
 2738TIP3    H2 8172   4.194   1.227   0.905 -0.7175  1.6498 -0.5323
 2739TIP3   OH2 8173   5.456   1.036   1.515 -0.0630  0.0139 -0.1151
 2739TIP3    H1 8174   5.377   1.028   1.463  0.3769 -0.4876 -0.7205
 2739TIP3    H2 8175   5.526   1.053   1.451  0.3578  0.2110  0.3834
 2740TIP3   OH2 8176   1.119   1.071   2.430  0.6765 -0.2626 -0.1388
 2740TIP3    H1 8177   1.157   0.993   2.389  1.8378  0.7049 -0.9574
 2740TIP3    H2 8178   1.118   1.050   2.524 -0.2372 -1.7515 -0.4456
 2741TIP3   OH2 8179   1.858   0.961   5.903  0.1036  0.0566  0.2128
 2741TIP3    H1 8180   1.884   0.897   5.837  3.3723 -2.3202  3.4326
 2741TIP3    H2 8181   1.923   1.031   5.895 -0.2339  0.3656  0.1429
 2742TIP3   OH2 8182   5.003   2.628   4.932  0.2301  0.3102 -0.0656
 2742TIP3    H1 8183   5.029   2.590   4.848 -1.3671 -1.2622  0.1081
 2742TIP3    H2 8184   4.946   2.701   4.908  0.6646  0.5621 -0.3525
 2743TIP3   OH2 8185   5.432   2.778   6.215 -0.0224  0.5521 -0.4220
 2743TIP3    H1 8186   5.526   2.785   6.196 -0.2223  2.2949 -0.8975
 2743TIP3    H2 8187   5.427   2.708   6.281  1.5475  0.1198 -0.6952
 2744TIP3   OH2 8188   3.630   7.494   2.168 -0.5161  0.1983  0.2934
 2744TIP3    H1 8189   3.572   7.504   2.244 -1.0388  0.1631 -0.0982
 2744TIP3    H2 8190   3.694   7.565   2.177 -0.7950  0.4133  0.5716
 2745TIP3   OH2 8191   1.791   0.303   3.706 -0.2867 -0.0625  0.2294
 2745TIP3    H1 8192   1.850   0.353   3.762 -0.6106  0.4579  0.1259
 2745TIP3    H2 8193   1.770   0.364   3.634 -0.3029 -0.5258 -0.1637
 2746TIP3   OH2 8194   5.588   3.165   4.040 -0.0012 -0.3211 -0.2367
 2746TIP3    H1 8195   5.537   3.238   4.074  1.4937  0.0128  1.4610
 2746TIP3    H2 8196   5.525   3.111   3.992 -1.2826  1.6631 -0.9022
 2747TIP3   OH2 8197   5.847   4.377   1.015  0.7015  0.2476 -0.1208
 2747TIP3    H1 8198   5.760   4.343   1.037  0.3606  0.3525 -1.2491
 2747TIP3    H2 8199   5.848   4.466   1.051  0.4718  0.1272  0.1877
 2748TIP3   OH2 8200   2.911   1.000   2.276  0.1261  0.1569  0.0604
 2748TIP3    H1 8201   2.962   1.007   2.196  0.9156 -0.5023  0.4935
 2748TIP3    H2 8202   2.872   1.087   2.288 -0.4143  0.1235 -1.2932
 2749TIP3   OH2 8203   4.146   4.814   3.959  0.8436 -0.4817  0.9563
 2749TIP3    H1 8204   4.224   4.806   3.904 -0.4849  0.2637 -1.1999
 2749TIP3    H2 8205   4.111   4.725   3.964  1.3541 -0.6721  1.1833
 2750TIP3   OH2 8206   6.944   6.196   6.489  0.1515 -0.5053  0.3296
 2750TIP3    H1 8207   6.973   6.261   6.553  1.2081  0.2546 -0.8749
 2750TIP3    H2 8208   6.851   6.213   6.479  0.3795  0.7187  0.1671
 2751TIP3   OH2 8209   7.746   6.927   0.207  0.0384 -0.6883  0.3982
 2751TIP3    H1 8210   7.713   7.014   0.184  1.0826 -0.3218  0.2400
 2751TIP3    H2 8211   7.706   6.908   0.292  0.5470  0.3634  0.8877
 2752TIP3   OH2 8212   5.885   1.593   0.776 -0.6383  0.0920  0.0874
 2752TIP3    H1 8213   5.933   1.671   0.802 -2.2968  1.2613 -0.1820
 2752TIP3    H2 8214   5.913   1.576   0.686  0.5492 -0.3024  0.5213
 2753TIP3   OH2 8215   4.391   7.755   3.625 -0.3259 -0.2783  0.2819
 2753TIP3    H1 8216   4.483   7.732   3.614 -0.2638  0.7189 -1.7879
 2753TIP3    H2 8217   4.346   7.704   3.558 -1.0508  0.4959  0.1678
 2754TIP3   OH2 8218   2.330   6.599   0.776  0.3402  0.3095  0.1291
 2754TIP3    H1 8219   2.350   6.525   0.833 -0.0782  0.4827  0.5070
 2754TIP3    H2 8220   2.281   6.660   0.832  0.8284  0.9485 -0.1263
 2755TIP3   OH2 8221   3.199   7.684   6.253  1.0421 -0.8106  0.4050
 2755TIP3    H1 8222   3.212   7.692   6.348  0.9472  0.2731  0.3397
 2755TIP3    H2 8223   3.116   7.638   6.244 -0.3600  1.4468  0.9008
 2756TIP3   OH2 8224   7.342   5.756   2.614 -0.5655  0.0083  0.1997
 2756TIP3    H1 8225   7.278   5.826   2.602  0.8745  1.2347 -0.7436
 2756TIP3    H2 8226   7.385   5.748   2.528 -0.6985 -2.0869  0.2551
 2757TIP3   OH2 8227   1.164   3.448   5.842  0.2289 -0.1220  0.4842
 2757TIP3    H1 8228   1.254   3.472   5.819  0.4572 -1.1513  0.2516
 2757TIP3    H2 8229   1.123   3.428   5.758 -0.3251  0.6472  0.5576
 2758TIP3   OH2 8230   2.474   0.690   0.439  0.4075  0.0335  0.0641
 2758TIP3    H1 8231   2.397   0.666   0.490 -0.5874  0.2724 -1.2728
 2758TIP3    H2 8232   2.543   0.630   0.469 -0.5992 -0.9307  0.5069
 2759TIP3   OH2 8233   0.057   3.017   6.501  1.0198 -0.2642 -0.3985
 2759TIP3    H1 8234   0.071   2.945   6.562 -0.9121 -0.0251  0.4101
 2759TIP3    H2 8235  -0.002   2.982   6.435 -0.7549  0.7944  0.5581
 2760TIP3   OH2 8236   5.602   3.169   3.171 -0.5854  0.7109  0.0295
 2760TIP3    H1 8237   5.618   3.099   3.235 -0.9765  0.0526 -0.5721
 2760TIP3    H2 8238   5.565   3.124   3.095  1.0759  1.2886 -1.1837
 2761TIP3   OH2 8239   7.306   4.286   6.359  0.4603  0.6948  0.4930
 2761TIP3    H1 8240   7.372   4.275   6.290 -0.9281 -1.5823 -0.6083
 2761TIP3    H2 8241   7.353   4.267   6.440  1.4330  0.2655 -0.1517
 2762TIP3   OH2 8242   4.905   7.514   3.148 -0.1806 -0.7143  0.0634
 2762TIP3    H1 8243   4.926   7.559   3.066 -0.1259 -1.3769 -0.2937
 2762TIP3    H2 8244   4.978   7.454   3.162  1.0013  1.0164  1.8419
 2763TIP3   OH2 8245   0.695   5.695   1.714 -0.4121 -0.2649 -0.1730
 2763TIP3    H1 8246   0.670   5.603   1.705 -2.3549  0.2507 -0.6162
 2763TIP3    H2 8247   0.668   5.719   1.803 -0.5762  0.0458 -0.3033
 2764TIP3   OH2 8248   8.225   2.089   3.429  0.7135 -0.1212 -0.0383
 2764TIP3    H1 8249   8.237   1.994   3.422  2.3274  0.2000 -4.0578
 2764TIP3    H2 8250   8.312   2.126   3.418 -0.0300  1.8591  0.3146
 2765TIP3   OH2 8251   0.116   2.721   2.891  0.4879  0.0237 -0.0838
 2765TIP3    H1 8252   0.103   2.665   2.967  0.6969  2.6148  2.0184
 2765TIP3    H2 8253   0.030   2.758   2.873  0.7704  0.7655  0.0442
 2766TIP3   OH2 8254   1.045   1.372   2.890  0.2070  0.0595  0.6687
 2766TIP3    H1 8255   0.998   1.455   2.899  0.0524  0.0474 -0.0067
 2766TIP3    H2 8256   1.059   1.361   2.796  1.5100  0.0250  0.8455
 2767TIP3   OH2 8257   6.421   6.748   4.589 -0.0210  0.0536 -0.1633
 2767TIP3    H1 8258   6.416   6.710   4.501 -0.0832  1.4615 -0.7991
 2767TIP3    H2 8259   6.344   6.804   4.596  1.0919  1.6725 -0.0794
 2768TIP3   OH2 8260   1.925   0.049   0.808 -0.6243  0.4541 -0.0151
 2768TIP3    H1 8261   1.986   0.101   0.860 -1.5494  0.6492  0.8786
 2768TIP3    H2 8262   1.978   0.020   0.733  0.1992  1.7383  0.0402
 2769TIP3   OH2 8263   1.768   2.988   2.471  0.5172  0.6110  0.1103
 2769TIP3    H1 8264   1.785   2.903   2.512 -0.7237  1.0525  1.6448
 2769TIP3    H2 8265   1.692   3.023   2.518 -1.0643  1.1565 -2.6064
 2770TIP3   OH2 8266   3.474   3.384   3.289  0.0860  0.2561 -0.5502
 2770TIP3    H1 8267   3.424   3.442   3.348 -0.5587 -0.7912 -0.0199
 2770TIP3    H2 8268   3.408   3.348   3.230  0.2915 -0.6890 -0.2278
 2771TIP3   OH2 8269   3.845   6.588   5.241 -0.3525  0.2412 -0.4816
 2771TIP3    H1 8270   3.856   6.529   5.166 -0.4414  1.1963 -1.2561
 2771TIP3    H2 8271   3.896   6.665   5.219  0.0087  0.3465  0.6649
 2772TIP3   OH2 8272   4.046   3.216   5.149 -0.3795 -0.2448 -0.5012
 2772TIP3    H1 8273   4.033   3.240   5.057  0.0423 -0.6681 -0.6807
 2772TIP3    H2 8274   4.126   3.163   5.148 -0.7808 -0.8780 -0.0005
 2773TIP3   OH2 8275   4.609   3.462   1.235 -0.0428 -0.0912 -0.3750
 2773TIP3    H1 8276   4.623   3.554   1.212 -2.6677  0.4672 -0.0307
 2773TIP3    H2 8277   4.696   3.423   1.232  0.8717  1.8778 -2.7699
 2774TIP3   OH2 8278   0.610   0.861   0.633  0.1043  0.0525  0.3834
 2774TIP3    H1 8279   0.642   0.920   0.565 -1.1155 -0.3273 -0.5652
 2774TIP3    H2 8280   0.687   0.808   0.657  0.6184  0.3723 -0.5066
 2775TIP3   OH2 8281   2.163   3.272   3.271  0.0817  0.0374  0.3177
 2775TIP3    H1 8282   2.211   3.194   3.242  0.6597 -0.3174  2.0964
 2775TIP3    H2 8283   2.075   3.239   3.293 -0.2807  0.2621 -0.7405
 2776TIP3   OH2 8284   5.877   1.279   0.770 -0.5853  0.4977  0.2795
 2776TIP3    H1 8285   5.813   1.298   0.838 -0.9390 -0.2695  0.1729
 2776TIP3    H2 8286   5.962   1.298   0.812 -0.8674  1.5596  0.4009
 2777TIP3   OH2 8287   7.345   4.790   4.878 -0.2440 -0.1161  0.5727
 2777TIP3    H1 8288   7.286   4.719   4.851  0.9744 -1.5431  1.5268
 2777TIP3    H2 8289   7.423   4.778   4.824 -0.0909  0.6452  0.6058
 2778TIP3   OH2 8290   3.816   2.993   1.334  0.1298  0.3164 -0.3294
 2778TIP3    H1 8291   3.740   2.934   1.335 -0.8060  1.4297  1.9115
 2778TIP3    H2 8292   3.890   2.938   1.356 -0.0944 -0.6493 -1.8000
 2779TIP3   OH2 8293   2.611   0.792   4.757 -0.5397  0.6293  0.2831
 2779TIP3    H1 8294   2.600   0.848   4.681  0.3780  1.1220  0.5079
 2779TIP3    H2 8295   2.677   0.836   4.811  1.0326 -1.1831 -0.0540
 2780TIP3   OH2 8296   8.116   7.057   3.107  0.0064  0.0611 -0.1222
 2780TIP3    H1 8297   8.095   7.040   3.199 -2.0124  0.5074 -0.4446
 2780TIP3    H2 8298   8.151   6.974   3.075 -0.2110 -0.4074  0.8067
 2781TIP3   OH2 8299   6.413   5.666   0.219 -0.5047  0.3050 -0.1029
 2781TIP3    H1 8300   6.334   5.703   0.178  1.1987  2.3506 -1.7796
 2781TIP3    H2 8301   6.476   5.660   0.147  1.0861 -0.6840  1.3214
 2782TIP3   OH2 8302   0.189   2.419   0.623 -0.0259  0.1710  0.4923
 2782TIP3    H1 8303   0.191   2.473   0.545  1.0851 -0.3407  0.1454
 2782TIP3    H2 8304   0.143   2.339   0.596  0.1655  0.0854  0.4151
 2783TIP3   OH2 8305   4.661   4.724   6.437 -0.1915 -0.0852 -0.0050
 2783TIP3    H1 8306   4.749   4.749   6.466  0.1742  1.6383 -2.2718
 2783TIP3    H2 8307   4.612   4.711   6.518  0.9016  3.6199  1.4929
 2784TIP3   OH2 8308   6.613   1.110   2.477 -0.1002 -0.1339  0.1589
 2784TIP3    H1 8309   6.673   1.151   2.540  0.0898  0.9770 -0.7164
 2784TIP3    H2 8310   6.669   1.052   2.425 -0.5147 -2.2968  1.9732
 2785TIP3   OH2 8311   1.878   6.993   4.753  0.2022  0.1985  0.1093
 2785TIP3    H1 8312   1.934   7.043   4.813  0.2198 -0.0280  0.2802
 2785TIP3    H2 8313   1.932   6.919   4.726  0.6835  1.0195 -1.2473
 2786TIP3   OH2 8314   3.195   5.188   1.412 -0.0965 -0.2640 -0.3318
 2786TIP3    H1 8315   3.161   5.270   1.447 -1.3946 -0.3157 -1.3875
 2786TIP3    H2 8316   3.265   5.214   1.352  2.0198 -0.1649  2.0184
 2787TIP3   OH2 8317   0.680   1.711   1.493 -0.0177  0.1900 -0.0625
 2787TIP3    H1 8318   0.766   1.670   1.506  0.1974  1.0035  1.3040
 2787TIP3    H2 8319   0.691   1.765   1.414  0.7306  0.2712  0.0870
 2788TIP3   OH2 8320   6.151   4.491   4.861 -0.3129 -0.3354 -0.6018
 2788TIP3    H1 8321   6.078   4.550   4.877  0.1617  0.4918 -1.4109
 2788TIP3    H2 8322   6.115   4.404   4.878 -1.4277  0.0656 -0.7938
 2789TIP3   OH2 8323   2.732   3.916   5.577 -0.4693  0.7547 -0.0348
 2789TIP3    H1 8324   2.679   3.838   5.593 -0.6413  0.8516 -0.1431
 2789TIP3    H2 8325   2.717   3.971   5.654 -0.6633  0.8614 -0.1506
 2790TIP3   OH2 8326   1.040   2.277   5.310  0.3824  0.4125  0.3666
 2790TIP3    H1 8327   1.100   2.206   5.332 -0.3898  0.5095  3.0924
 2790TIP3    H2 8328   0.966   2.234   5.267  0.5664 -0.2500  0.7041
 2791TIP3   OH2 8329   2.383   5.586   5.214 -0.3126  0.3744 -0.0314
 2791TIP3    H1 8330   2.469   5.594   5.174 -0.1509 -2.9831 -0.7059
 2791TIP3    H2 8331   2.400   5.544   5.299 -1.2259  0.4990  0.2221
 2792TIP3   OH2 8332   4.045   7.769   3.631  0.0128 -0.6020  0.9472
 2792TIP3    H1 8333   3.986   7.709   3.585  0.8118 -2.2092  1.9250
 2792TIP3    H2 8334   4.090   7.714   3.695  0.9670  1.0169  1.7339
 2793TIP3   OH2 8335   8.050   3.589   4.596  0.3115  0.6802 -0.3910
 2793TIP3    H1 8336   8.129   3.635   4.566  0.3863  0.1956 -0.9652
 2793TIP3    H2 8337   8.031   3.626   4.682  1.6515  0.1901  0.1224
 2794TIP3   OH2 8338   3.971   7.801   1.744 -0.2491 -0.5972  0.0084
 2794TIP3    H1 8339   3.938   7.804   1.654 -1.2390  1.2597  0.3808
 2794TIP3    H2 8340   4.059   7.764   1.737  0.6375  1.6423 -2.0500
 2795TIP3   OH2 8341   0.139   0.655   1.946  0.4953 -0.0958  0.0640
 2795TIP3    H1 8342   0.227   0.666   1.983  0.1881 -1.6644  1.3702
 2795TIP3    H2 8343   0.155   0.619   1.858  1.1560 -1.3155  0.6680
 2796TIP3   OH2 8344   7.983   2.390   1.532 -0.1505  0.4491  0.5213
 2796TIP3    H1 8345   8.062   2.382   1.477  0.3626  0.0970  1.2916
 2796TIP3    H2 8346   8.015   2.382   1.622 -1.2378 -1.3230  0.8076
 2797TIP3   OH2 8347   7.998   3.435   5.304 -0.4054  0.2396  0.1562
 2797TIP3    H1 8348   8.087   3.400   5.300 -1.0178 -1.4803  0.4877
 2797TIP3    H2 8349   7.972   3.447   5.213 -0.2868 -0.5099  0.0207
 2798TIP3   OH2 8350   5.744   4.823   6.697 -0.2247  0.1092 -0.0682
 2798TIP3    H1 8351   5.821   4.841   6.751  0.6959  1.6782 -1.8013
 2798TIP3    H2 8352   5.770   4.747   6.644 -0.1227  0.2293 -0.1905
 2799TIP3   OH2 8353   2.847   2.764   6.469  0.4013  0.4770  0.0528
 2799TIP3    H1 8354   2.858   2.771   6.374 -0.2443 -0.1457 -0.0744
 2799TIP3    H2 8355   2.755   2.743   6.481  0.2045  1.7003  0.8868
 2800TIP3   OH2 8356   6.474   3.868   6.062 -0.1678 -0.2839  0.3804
 2800TIP3    H1 8357   6.462   3.846   5.969 -0.7970 -0.2467  0.4468
 2800TIP3    H2 8358   6.513   3.789   6.100  0.8194 -0.0203 -0.0639
 2801TIP3   OH2 8359   0.888   3.551   0.308  0.0080  0.4994  0.4953
 2801TIP3    H1 8360   0.810   3.502   0.330 -0.2085  0.3233 -0.5845
 2801TIP3    H2 8361   0.897   3.616   0.378 -1.5655  1.0459  0.2214
 2802TIP3   OH2 8362   8.214   7.747   4.787  0.3187 -0.2939 -0.3434
 2802TIP3    H1 8363   8.214   7.813   4.856  2.9449 -1.7545  1.1969
 2802TIP3    H2 8364   8.139   7.691   4.806 -1.3227  1.5230 -1.0766
 2803TIP3   OH2 8365   4.902   1.550   4.972 -0.6298  0.1678 -0.2985
 2803TIP3    H1 8366   4.996   1.564   4.964 -0.5775  0.5766  0.8309
 2803TIP3    H2 8367   4.892   1.500   5.053 -1.3722  0.0767 -0.4403
 2804TIP3   OH2 8368   7.079   6.425   6.166 -0.3411  0.4072  0.2546
 2804TIP3    H1 8369   7.072   6.502   6.110 -0.2978 -1.0473 -1.8390
 2804TIP3    H2 8370   7.104   6.461   6.252 -0.9376  2.7531 -0.4657
 2805TIP3   OH2 8371   7.061   2.582   3.291 -0.0703 -0.7632 -0.4667
 2805TIP3    H1 8372   7.054   2.591   3.386 -1.9869  0.9432 -0.6976
 2805TIP3    H2 8373   7.082   2.490   3.277  0.7807 -0.9332  1.6160
 2806TIP3   OH2 8374   6.081   6.184   6.437  0.2133  0.4985 -0.3255
 2806TIP3    H1 8375   6.116   6.104   6.477  1.0807  0.8846 -0.2793
 2806TIP3    H2 8376   6.150   6.212   6.376  1.0354  2.5146  1.3892
 2807TIP3   OH2 8377   5.091   5.037   1.280  0.5132 -0.0684 -0.1272
 2807TIP3    H1 8378   5.077   4.988   1.199  0.3143 -2.0096  1.0272
 2807TIP3    H2 8379   5.012   5.022   1.332  1.5318 -0.6666  1.2996
 2808TIP3   OH2 8380   5.372   4.052   3.692 -1.0890  0.2276  0.4433
 2808TIP3    H1 8381   5.404   4.013   3.773  1.1183  1.8697  0.4507
 2808TIP3    H2 8382   5.418   4.004   3.623 -0.2605  1.1140  0.3533
 2809TIP3   OH2 8383   0.737   6.842   1.646  0.0036 -0.7046 -0.3333
 2809TIP3    H1 8384   0.799   6.890   1.701 -0.0027  0.2277 -1.1140
 2809TIP3    H2 8385   0.735   6.891   1.564  0.4695 -2.4026 -1.4061
 2810TIP3   OH2 8386   0.141   1.257   1.624 -0.0463  0.5429 -0.7030
 2810TIP3    H1 8387   0.155   1.253   1.718  2.8914 -1.9358 -1.0999
 2810TIP3    H2 8388   0.101   1.173   1.602  0.5841  0.5103 -1.7927
 2811TIP3   OH2 8389   4.130   1.899   4.167 -0.1412 -0.1195  0.1789
 2811TIP3    H1 8390   4.064   1.930   4.229  0.2681 -0.7309  0.9323
 2811TIP3    H2 8391   4.082   1.887   4.085 -1.6716 -3.3393  1.3984
 2812TIP3   OH2 8392   7.815   5.895   3.654 -0.3016  0.4567 -0.5279
 2812TIP3    H1 8393   7.815   5.804   3.625  0.5490  0.1511  0.3607
 2812TIP3    H2 8394   7.727   5.927   3.635 -0.3676 -0.3098 -1.5702
 2813TIP3   OH2 8395   6.370   0.636   4.988  0.4275  0.1724  0.4515
 2813TIP3    H1 8396   6.294   0.589   5.024 -0.7631  1.1940 -0.6425
 2813TIP3    H2 8397   6.378   0.603   4.898  1.5632 -0.2232  0.6801
 2814TIP3   OH2 8398   7.664   2.096   0.771 -0.1274 -0.3756  0.1116
 2814TIP3    H1 8399   7.662   2.051   0.856 -0.2003  0.3021  0.4789
 2814TIP3    H2 8400   7.724   2.045   0.718 -0.1834 -0.8862  0.5335
 2815TIP3   OH2 8401   0.207   5.021   2.458  0.0184  0.5313  0.2679
 2815TIP3    H1 8402   0.223   5.080   2.531  1.2090  0.0356  0.4386
 2815TIP3    H2 8403   0.293   4.983   2.439 -0.3030  0.4883 -1.2479
 2816TIP3   OH2 8404   0.481   6.358   6.496  0.3006  0.0963  0.1727
 2816TIP3    H1 8405   0.433   6.441   6.493 -0.1156 -0.1484 -0.0556
 2816TIP3    H2 8406   0.433   6.300   6.437 -0.7033 -1.0118  1.9879
 2817TIP3   OH2 8407   1.394   5.987   0.169 -0.1925  0.5755  0.3050
 2817TIP3    H1 8408   1.308   5.989   0.129 -1.1716 -1.4385  2.0570
 2817TIP3    H2 8409   1.383   5.930   0.246  2.3771  1.3415  1.3579
 2818TIP3   OH2 8410   1.077   7.221   4.175 -0.0975 -0.2382 -0.3438
 2818TIP3    H1 8411   0.985   7.243   4.164  0.1036  0.0019 -1.7034
 2818TIP3    H2 8412   1.122   7.306   4.179  0.1526 -0.3572 -0.5812
 2819TIP3   OH2 8413   5.371   1.608   5.235 -0.2655  0.2502 -0.6550
 2819TIP3    H1 8414   5.365   1.513   5.223 -2.3712  0.1010  1.0478
 2819TIP3    H2 8415   5.282   1.636   5.255  0.8448  1.9619  2.7566
 2820TIP3   OH2 8416   4.598   7.479   0.926  0.0501  0.4637  0.5896
 2820TIP3    H1 8417   4.622   7.411   0.988 -2.6484 -2.8256 -1.5491
 2820TIP3    H2 8418   4.639   7.452   0.843 -0.9653  1.5059 -0.2932
 2821TIP3   OH2 8419   5.511   7.666   0.783 -0.1345 -0.2234  0.1745
 2821TIP3    H1 8420   5.575   7.694   0.848  0.0637 -0.2395 -0.0132
 2821TIP3    H2 8421   5.494   7.744   0.730  1.2804 -0.7149 -1.0756
 2822TIP3   OH2 8422   2.163   0.455   4.088  0.6623  0.0446 -0.1710
 2822TIP3    H1 8423   2.194   0.528   4.142  0.1072  1.2033 -1.3715
 2822TIP3    H2 8424   2.226   0.450   4.016 -0.0065  0.1897 -0.7810
 2823TIP3   OH2 8425   8.194   6.172   6.193  0.4588  0.7362 -0.4563
 2823TIP3    H1 8426   8.145   6.182   6.275 -0.4314  1.1538 -1.0244
 2823TIP3    H2 8427   8.132   6.132   6.132  1.4215 -0.5242 -0.6538
 2824TIP3   OH2 8428   0.876   0.446   3.653  0.0165  0.1241 -0.0850
 2824TIP3    H1 8429   0.782   0.440   3.671  0.1429  1.4376  1.1402
 2824TIP3    H2 8430   0.915   0.375   3.704 -0.2265  0.0159 -0.0468
 2825TIP3   OH2 8431   0.687   6.263   5.168  0.2469  0.1916 -0.0945
 2825TIP3    H1 8432   0.636   6.207   5.109  0.9713 -1.2514  0.6056
 2825TIP3    H2 8433   0.765   6.287   5.117  1.9281 -2.7938  0.8919
 2826TIP3   OH2 8434   5.046   4.836   2.256 -0.5471 -0.1667 -0.2112
 2826TIP3    H1 8435   5.062   4.741   2.251  1.8170  0.2018 -0.8639
 2826TIP3    H2 8436   5.058   4.866   2.166 -0.9592  0.8037  0.0538
 2827TIP3   OH2 8437   5.453   6.166   5.425 -0.4631  0.0872  0.0097
 2827TIP3    H1 8438   5.363   6.188   5.450 -0.4726  0.9869 -0.7878
 2827TIP3    H2 8439   5.458   6.188   5.332 -0.5180 -3.3913 -0.9679
 2828TIP3   OH2 8440   6.500   4.688   1.759  0.5742  0.2070  0.2271
 2828TIP3    H1 8441   6.557   4.661   1.832  1.1958  0.4148 -0.1787
 2828TIP3    H2 8442   6.412   4.667   1.790  0.7417  1.1784  1.4426
 2829TIP3   OH2 8443   0.360   6.919   4.169  0.1784 -0.4199  0.0695
 2829TIP3    H1 8444   0.276   6.887   4.202 -1.3458  1.3910 -1.8012
 2829TIP3    H2 8445   0.377   6.999   4.219 -0.9422  1.0143 -1.7098
 2830TIP3   OH2 8446   2.102   3.822   0.246  0.3319  0.2173 -0.0816
 2830TIP3    H1 8447   2.120   3.731   0.270 -0.3685  0.3762  1.1054
 2830TIP3    H2 8448   2.023   3.844   0.294  0.8338  1.6520  0.1127
 2831TIP3   OH2 8449   2.955   4.249   4.861  0.2883  0.4160 -0.2452
 2831TIP3    H1 8450   2.887   4.185   4.842 -1.3722  3.1259 -5.4865
 2831TIP3    H2 8451   3.034   4.211   4.821  0.4058 -0.1892  0.5473
 2832TIP3   OH2 8452   0.476   7.178   0.270  0.9176 -0.5202  0.5333
 2832TIP3    H1 8453   0.503   7.267   0.246  1.5649 -0.0480  2.7409
 2832TIP3    H2 8454   0.449   7.138   0.188  0.9906  1.5861 -0.5917
 2833TIP3   OH2 8455   2.142   5.556   2.224  0.0446  0.2984 -0.0443
 2833TIP3    H1 8456   2.150   5.505   2.144  0.7368 -0.1192  0.2793
 2833TIP3    H2 8457   2.121   5.492   2.292 -1.0896  0.7212  0.0289
 2834TIP3   OH2 8458   5.249   6.057   6.245 -0.0090 -0.0665 -0.0873
 2834TIP3    H1 8459   5.240   5.983   6.305 -0.8758  0.9481  1.0987
 2834TIP3    H2 8460   5.338   6.049   6.210  0.5490 -0.6718  1.3731
 2835TIP3   OH2 8461   2.042   7.416   4.635  0.1776  0.9113 -0.1651
 2835TIP3    H1 8462   2.069   7.335   4.679  0.3445  0.0229 -1.8104
 2835TIP3    H2 8463   1.950   7.401   4.611  0.9419  0.0056 -2.8887
 2836TIP3   OH2 8464   5.534   6.113   0.933  0.9266 -0.0271  0.2926
 2836TIP3    H1 8465   5.530   6.095   0.839 -0.5689  3.2644 -0.4247
 2836TIP3    H2 8466   5.596   6.186   0.940  0.1448  0.5323  1.6873
 2837TIP3   OH2 8467   3.018   2.027   3.218  1.0454 -0.4237 -0.2492
 2837TIP3    H1 8468   3.042   1.943   3.257  0.2851 -1.8011 -2.5454
 2837TIP3    H2 8469   2.922   2.028   3.221  1.0530  0.9590  0.8193
 2838TIP3   OH2 8470   2.352   4.242   1.851  0.3065 -0.0492  0.6529
 2838TIP3    H1 8471   2.415   4.257   1.922  1.3821  0.0493 -0.2976
 2838TIP3    H2 8472   2.360   4.149   1.831 -2.4353 -0.9109  2.8651
 2839TIP3   OH2 8473   3.872   3.944   1.642 -0.6165  0.0207 -0.1664
 2839TIP3    H1 8474   3.854   3.957   1.736  0.1956 -2.3627  0.3727
 2839TIP3    H2 8475   3.958   3.903   1.639 -0.3785  0.5619 -2.0338
 2840TIP3   OH2 8476   0.053   5.336   3.973  0.0782  0.1067  0.6546
 2840TIP3    H1 8477   0.005   5.395   4.031 -2.6361 -0.3149 -0.9983
 2840TIP3    H2 8478  -0.014   5.284   3.931  2.1076 -1.2450 -1.1205
 2841TIP3   OH2 8479   8.041   4.456   1.483  0.0008  0.2375 -0.1401
 2841TIP3    H1 8480   8.104   4.469   1.412  0.2748  1.8755  0.3502
 2841TIP3    H2 8481   7.964   4.506   1.455 -0.8814 -1.2227 -0.4425
 2842TIP3   OH2 8482   6.242   3.091   6.465  0.1711  0.5485 -0.4534
 2842TIP3    H1 8483   6.296   3.139   6.403  0.5389  0.2156 -0.3961
 2842TIP3    H2 8484   6.304   3.047   6.523 -0.1704  0.7337  0.0566
 2843TIP3   OH2 8485   8.073   7.303   3.023  0.5753  0.2829  0.0820
 2843TIP3    H1 8486   8.086   7.217   3.060  2.5243  0.5771  0.1830
 2843TIP3    H2 8487   8.131   7.305   2.946 -0.7348  0.9061 -0.9270
 2844TIP3   OH2 8488   0.132   0.948   6.207 -0.1607  0.7500  0.2627
 2844TIP3    H1 8489   0.226   0.962   6.216  0.0400 -0.1812 -0.2821
 2844TIP3    H2 8490   0.108   0.896   6.283  0.2610 -1.2012 -0.8748
 2845TIP3   OH2 8491   7.843   6.971   1.988  0.1204 -0.7551  0.8583
 2845TIP3    H1 8492   7.845   6.925   1.904 -0.2270 -0.8312  0.8903
 2845TIP3    H2 8493   7.856   6.902   2.053  1.9426 -0.5015  0.8096
 2846TIP3   OH2 8494   6.567   4.925   6.177 -0.6177  0.2187 -0.3621
 2846TIP3    H1 8495   6.646   4.966   6.212  2.1009 -0.5173 -4.9070
 2846TIP3    H2 8496   6.568   4.836   6.211  0.0278  0.4681  0.2942
 2847TIP3   OH2 8497   2.317   7.096   5.002 -0.5481  0.4173 -0.2696
 2847TIP3    H1 8498   2.350   7.158   5.067 -3.2240  0.3498  1.2844
 2847TIP3    H2 8499   2.348   7.010   5.032 -1.9338  0.3593  1.1306
 2848TIP3   OH2 8500   4.719   4.863   0.063 -0.7712 -0.4312  0.1820
 2848TIP3    H1 8501   4.659   4.849  -0.010  0.4303 -0.1814 -0.8964
 2848TIP3    H2 8502   4.731   4.958   0.066  1.3576 -0.5925 -1.1754
 2849TIP3   OH2 8503   7.166   1.622   6.299 -0.3470 -0.6282 -0.7079
 2849TIP3    H1 8504   7.159   1.534   6.263  1.6606 -1.1906  0.1442
 2849TIP3    H2 8505   7.216   1.671   6.233 -0.8028 -0.3159 -0.8302
 2850TIP3   OH2 8506   4.197   6.637   1.540  0.1427  0.0961 -0.3660
 2850TIP3    H1 8507   4.150   6.669   1.464  1.2863  0.6954 -0.8473
 2850TIP3    H2 8508   4.132   6.637   1.611 -0.7509  0.1824 -1.1762
 2851TIP3   OH2 8509   3.730   5.895   5.769  0.0024  1.1406 -0.0787
 2851TIP3    H1 8510   3.648   5.906   5.817  0.1013 -1.5471  0.8875
 2851TIP3    H2 8511   3.704   5.892   5.677 -1.1014 -0.1066  0.2406
 2852TIP3   OH2 8512   2.970   7.345   1.060 -0.3496 -0.3938 -0.2830
 2852TIP3    H1 8513   2.879   7.368   1.038  0.5217  2.0914 -1.8093
 2852TIP3    H2 8514   2.992   7.275   0.999 -0.6442  0.4975 -1.4754
 2853TIP3   OH2 8515   2.025   4.861   0.717 -0.3688  0.0220 -0.3818
 2853TIP3    H1 8516   2.001   4.953   0.712  0.8717  0.3626 -0.6199
 2853TIP3    H2 8517   1.973   4.826   0.789 -0.6195  0.9869 -0.0743
 2854TIP3   OH2 8518   2.819   4.040   5.825 -0.2351  0.0875 -0.3000
 2854TIP3    H1 8519   2.747   4.089   5.786  1.0258  2.6011  0.2921
 2854TIP3    H2 8520   2.894   4.058   5.768  0.3355 -1.0167  0.0726
 2855TIP3   OH2 8521   3.405   6.672   1.373  0.5463  0.2724 -0.0867
 2855TIP3    H1 8522   3.408   6.716   1.288  0.8367  0.6022  0.0915
 2855TIP3    H2 8523   3.461   6.725   1.430 -0.4677  0.6542  0.5858
 2856TIP3   OH2 8524   6.772   2.996   6.149 -0.0651  0.1358  0.4117
 2856TIP3    H1 8525   6.758   2.996   6.244  0.9359  0.6229  0.5788
 2856TIP3    H2 8526   6.849   2.940   6.136  0.3554  0.7816  0.0039
 2857TIP3   OH2 8527   1.468   7.247   2.043 -0.0882  0.3077 -0.3107
 2857TIP3    H1 8528   1.475   7.304   1.967  0.3096 -0.8754 -1.1896
 2857TIP3    H2 8529   1.374   7.235   2.056 -0.1848  1.2689 -0.0096
 2858TIP3   OH2 8530   1.740   6.948   3.894 -0.5560  0.2891  0.4137
 2858TIP3    H1 8531   1.715   6.980   3.807 -3.5800 -0.2510  0.9683
 2858TIP3    H2 8532   1.810   6.885   3.877 -3.1865 -2.2920 -2.1213
 2859TIP3   OH2 8533   5.188   5.897   2.132  0.4315 -0.9566 -1.0542
 2859TIP3    H1 8534   5.129   5.826   2.157  1.4494 -1.9299 -1.3763
 2859TIP3    H2 8535   5.247   5.907   2.206 -1.0482  1.1035 -0.0319
 2860TIP3   OH2 8536   3.774   1.617   0.149 -0.2902  0.2233 -0.1861
 2860TIP3    H1 8537   3.712   1.615   0.222  0.3119 -1.1809  0.3180
 2860TIP3    H2 8538   3.825   1.697   0.163  1.2464 -1.0640  2.1876
 2861TIP3   OH2 8539   3.022   4.414   2.701 -0.0001 -0.5652 -0.5914
 2861TIP3    H1 8540   3.015   4.409   2.797  0.3028 -1.9976 -0.6243
 2861TIP3    H2 8541   2.945   4.464   2.674 -0.1521 -0.2453  0.3951
 2862TIP3   OH2 8542   6.696   5.981   3.148  0.2363 -0.0948 -0.1310
 2862TIP3    H1 8543   6.712   5.960   3.056  0.0469 -1.3586  0.1097
 2862TIP3    H2 8544   6.673   5.897   3.188 -1.4869  0.7243  0.6955
 2863TIP3   OH2 8545   0.838   1.505   1.107  0.2038 -0.1201  0.6832
 2863TIP3    H1 8546   0.912   1.502   1.046  0.5025  0.9098  0.9702
 2863TIP3    H2 8547   0.769   1.454   1.064  1.1990 -1.4670  0.6066
 2864TIP3   OH2 8548   3.854   0.279   0.933 -0.5316 -0.2087 -0.2902
 2864TIP3    H1 8549   3.910   0.288   0.856  2.5000  2.0252  1.9051
 2864TIP3    H2 8550   3.791   0.351   0.926 -0.4716 -0.2034 -0.8038
 2865TIP3   OH2 8551   4.415   1.762   5.356 -1.2936  0.4815 -0.1700
 2865TIP3    H1 8552   4.386   1.853   5.344 -1.3029  0.7535  1.6290
 2865TIP3    H2 8553   4.378   1.736   5.441 -0.0151 -0.6842  0.0661
 2866TIP3   OH2 8554   4.467   4.218   3.467 -0.0289 -0.2385  0.2256
 2866TIP3    H1 8555   4.459   4.310   3.493 -2.2081 -0.4486  0.4691
 2866TIP3    H2 8556   4.561   4.204   3.456  0.4595  1.6159  1.6271
 2867TIP3   OH2 8557   0.585   6.276   6.759  0.3099  0.6863 -0.1262
 2867TIP3    H1 8558   0.578   6.285   6.663 -2.2760 -0.6138 -0.1494
 2867TIP3    H2 8559   0.556   6.361   6.792 -3.2013 -0.1929 -0.5496
 2868TIP3   OH2 8560   3.947   0.629   2.823  0.1083  0.0929  0.4655
 2868TIP3    H1 8561   4.033   0.585   2.821  0.6807  0.9185  2.8764
 2868TIP3    H2 8562   3.951   0.693   2.752  1.4742  0.0345  0.4533
 2869TIP3   OH2 8563   3.058   4.535   4.234  0.9745 -0.2342 -0.3003
 2869TIP3    H1 8564   3.125   4.479   4.196  1.0608  0.0901 -0.6373
 2869TIP3    H2 8565   2.987   4.533   4.169  1.1221  0.3233 -0.4822
 2870TIP3   OH2 8566   7.203   5.297   2.087  1.0206  0.1004  0.4044
 2870TIP3    H1 8567   7.203   5.227   2.153 -1.2350 -1.3780 -1.0488
 2870TIP3    H2 8568   7.168   5.256   2.008  1.7587  2.3297 -1.1791
 2871TIP3   OH2 8569   8.273   3.788   2.400 -0.3427 -0.1798 -0.0759
 2871TIP3    H1 8570   8.292   3.716   2.461 -0.6340 -0.1103  0.0985
 2871TIP3    H2 8571   8.250   3.744   2.318  0.0245 -0.2744 -0.1274
 2872TIP3   OH2 8572   5.139   4.479   2.781 -0.0726  0.4114 -0.1632
 2872TIP3    H1 8573   5.174   4.541   2.717 -0.1469  0.9926  0.3438
 2872TIP3    H2 8574   5.147   4.524   2.865 -1.4561  0.3286  0.0471
 2873TIP3   OH2 8575   3.331   4.345   3.258 -0.0878  0.3936  0.0080
 2873TIP3    H1 8576   3.256   4.393   3.223 -1.6446 -1.6017  0.4628
 2873TIP3    H2 8577   3.375   4.409   3.314 -1.6364  1.5220  0.0106
 2874TIP3   OH2 8578   6.237   5.520   0.521  0.1719  0.2651  0.2142
 2874TIP3    H1 8579   6.303   5.549   0.584 -0.1658 -0.4957  0.9297
 2874TIP3    H2 8580   6.197   5.443   0.561 -1.5953  1.0697  0.0722
 2875TIP3   OH2 8581   7.679   4.768   1.696 -0.2259 -0.2937  0.1750
 2875TIP3    H1 8582   7.720   4.693   1.653 -0.0157 -0.6520  0.9784
 2875TIP3    H2 8583   7.653   4.735   1.782 -1.1057  0.2663  0.1331
 2876TIP3   OH2 8584   1.451   5.698   2.815  0.1756 -0.2293  0.0141
 2876TIP3    H1 8585   1.407   5.723   2.896 -1.4042  0.0256 -0.8751
 2876TIP3    H2 8586   1.512   5.629   2.840  0.0465  0.1752  1.4878
 2877TIP3   OH2 8587   0.374   0.647   2.092 -0.4675 -0.6135 -0.4313
 2877TIP3    H1 8588   0.388   0.616   2.182  1.6640  0.3348 -0.3838
 2877TIP3    H2 8589   0.433   0.722   2.083 -1.1573 -0.2539 -2.4244
 2878TIP3   OH2 8590   7.800   6.716   0.020 -0.1550  0.5581 -0.0229
 2878TIP3    H1 8591   7.776   6.796   0.066  1.5439  1.0108  0.1625
 2878TIP3    H2 8592   7.851   6.746  -0.055 -0.1705 -0.3211 -0.3953
 2879TIP3   OH2 8593   2.041   3.656   2.614 -0.2695  0.7909  0.6203
 2879TIP3    H1 8594   2.133   3.630   2.616 -0.3101  0.3273 -1.5885
 2879TIP3    H2 8595   2.039   3.742   2.656  1.5986  1.9610 -1.4730
 2880TIP3   OH2 8596   1.313   3.279   3.961 -0.2492 -0.1738 -0.1628
 2880TIP3    H1 8597   1.285   3.342   4.027  2.1387 -0.9676  1.7294
 2880TIP3    H2 8598   1.238   3.220   3.951 -1.2193  0.8909  0.6138
 2881TIP3   OH2 8599   2.032   1.287   2.585  0.6850  0.4245  0.0528
 2881TIP3    H1 8600   1.992   1.370   2.559 -0.3018  0.2676  1.0026
 2881TIP3    H2 8601   2.082   1.260   2.508  0.0101  1.2764 -0.7191
 2882TIP3   OH2 8602   7.966   2.335   2.281 -0.6040 -0.6143  0.5071
 2882TIP3    H1 8603   8.037   2.390   2.247 -0.5611 -0.4713  0.8192
 2882TIP3    H2 8604   7.923   2.390   2.347  0.2110 -1.3755  1.7164
 2883TIP3   OH2 8605   1.890   4.782   3.501 -0.3117  0.0607  0.2206
 2883TIP3    H1 8606   1.943   4.859   3.521 -1.3886  1.4376 -1.9684
 2883TIP3    H2 8607   1.827   4.811   3.436 -2.0646 -2.1965  0.7708
 2884TIP3   OH2 8608   0.163   5.930   2.247 -0.0006  0.0526 -0.3311
 2884TIP3    H1 8609   0.202   5.990   2.310 -0.4863  1.3196 -1.2015
 2884TIP3    H2 8610   0.071   5.923   2.274 -0.3432  1.0368 -1.1954
 2885TIP3   OH2 8611   7.767   1.496   0.922  0.6691  0.2016  0.5543
 2885TIP3    H1 8612   7.773   1.568   0.984  0.2413 -0.5173  1.4661
 2885TIP3    H2 8613   7.678   1.501   0.887  0.7027  0.2291  0.4718
 2886TIP3   OH2 8614   7.881   2.737   5.077  0.1470 -0.2514 -0.0399
 2886TIP3    H1 8615   7.830   2.769   5.003  0.2401  1.0371  0.4304
 2886TIP3    H2 8616   7.819   2.733   5.149  0.3972 -0.0218  0.1911
 2887TIP3   OH2 8617   0.330   1.849   3.743 -1.1524  0.2727 -0.0255
 2887TIP3    H1 8618   0.359   1.768   3.784 -2.4085 -0.5788 -0.7795
 2887TIP3    H2 8619   0.359   1.918   3.803  0.4941 -0.6669  0.3053
 2888TIP3   OH2 8620   6.451   1.748   3.221 -0.2491  0.7547 -0.4855
 2888TIP3    H1 8621   6.360   1.727   3.201 -0.5294  0.7687  0.7201
 2888TIP3    H2 8622   6.446   1.814   3.290  0.6855  0.4299 -0.0953
 2889TIP3   OH2 8623   0.470   6.532   6.129  0.2971  0.2843  0.6792
 2889TIP3    H1 8624   0.380   6.531   6.162  0.7721 -0.7464  2.0650
 2889TIP3    H2 8625   0.486   6.441   6.102  0.7798  0.5668 -0.0186
 2890TIP3   OH2 8626   6.173   1.220   0.856 -0.0256 -0.8345  0.0146
 2890TIP3    H1 8627   6.203   1.207   0.767 -2.0333 -1.1684 -0.6742
 2890TIP3    H2 8628   6.191   1.313   0.874 -0.6356 -0.4645 -1.1724
 2891TIP3   OH2 8629   2.830   4.159   2.753 -0.2369  0.6174 -0.1263
 2891TIP3    H1 8630   2.861   4.074   2.782  1.9893  1.6229  0.6982
 2891TIP3    H2 8631   2.801   4.203   2.833 -1.1164  0.7391 -0.5015
 2892TIP3   OH2 8632   1.467   5.657   3.584  0.5222 -0.1265 -0.0119
 2892TIP3    H1 8633   1.423   5.703   3.512 -0.2895 -2.4158 -1.0852
 2892TIP3    H2 8634   1.560   5.665   3.563  0.2799 -1.3894 -1.8079
 2893TIP3   OH2 8635   7.721   7.309   2.976  1.0896 -0.1980  0.0167
 2893TIP3    H1 8636   7.687   7.338   3.061  1.4935 -1.5168  0.6497
 2893TIP3    H2 8637   7.814   7.295   2.992  0.9163 -1.7870 -0.2666
 2894TIP3   OH2 8638   0.190   4.926   4.440 -0.2890 -0.1366 -0.2208
 2894TIP3    H1 8639   0.271   4.917   4.490 -0.2842 -0.4609 -0.2814
 2894TIP3    H2 8640   0.203   4.870   4.363 -0.2622  0.4235 -0.6251
 2895TIP3   OH2 8641   6.312   1.437   0.571 -0.2308  0.2612  0.6566
 2895TIP3    H1 8642   6.397   1.437   0.529 -0.9684  0.4545 -0.9049
 2895TIP3    H2 8643   6.299   1.347   0.599 -0.2494 -0.1732 -0.6922
 2896TIP3   OH2 8644   4.925   6.196   5.338 -0.8328 -0.3726  0.3694
 2896TIP3    H1 8645   4.964   6.262   5.395 -0.7615 -1.4829  1.6312
 2896TIP3    H2 8646   4.860   6.153   5.392  0.9199 -3.1216  0.4692
 2897TIP3   OH2 8647   6.986   0.436   4.990  0.0374  0.0836  0.9230
 2897TIP3    H1 8648   6.935   0.512   5.017 -0.5949 -0.9965  2.9942
 2897TIP3    H2 8649   7.072   0.472   4.965 -0.5309  1.5376  0.9944
 2898TIP3   OH2 8650   4.952   7.551   1.217 -0.0311 -0.7196  0.3176
 2898TIP3    H1 8651   4.985   7.471   1.175  0.2499 -1.1072  1.2550
 2898TIP3    H2 8652   4.895   7.590   1.151 -1.3249 -2.4389  0.3313
 2899TIP3   OH2 8653   8.143   6.103   5.698  0.3434  0.2859 -0.1243
 2899TIP3    H1 8654   8.143   6.162   5.623 -0.6855  0.4576 -0.0046
 2899TIP3    H2 8655   8.142   6.015   5.659 -0.7024  0.3779 -0.3263
 2900TIP3   OH2 8656   4.292   4.839   0.370 -0.7179 -0.5052 -0.4604
 2900TIP3    H1 8657   4.340   4.916   0.339 -0.2358 -0.5205  0.2219
 2900TIP3    H2 8658   4.349   4.765   0.348 -0.4245 -0.5258  0.3104
 2901TIP3   OH2 8659   3.651   2.516   2.865 -0.2195 -0.2529 -0.0034
 2901TIP3    H1 8660   3.736   2.552   2.892 -0.9700  2.5060 -0.9695
 2901TIP3    H2 8661   3.600   2.512   2.945 -0.3647  1.7340  0.0461
 2902TIP3   OH2 8662   5.077   7.697   1.496 -0.1968 -0.5539  0.4014
 2902TIP3    H1 8663   5.164   7.687   1.534 -0.1924 -0.2039  0.4859
 2902TIP3    H2 8664   5.060   7.791   1.499 -0.4559 -0.5897  0.1122
 2903TIP3   OH2 8665   5.428   5.910   5.571 -0.1010  0.2600 -0.9529
 2903TIP3    H1 8666   5.488   5.844   5.535 -0.0038  1.1315 -2.4507
 2903TIP3    H2 8667   5.451   5.991   5.525  0.4591  1.6180  1.5514
 2904TIP3   OH2 8668   1.461   7.243   0.644 -0.0128  0.0738  0.4321
 2904TIP3    H1 8669   1.428   7.181   0.579  0.0134 -0.4015  0.8637
 2904TIP3    H2 8670   1.398   7.237   0.716  0.2366  0.2152  0.6617
 2905TIP3   OH2 8671   5.295   7.619   5.132 -0.5476 -0.4995  0.0097
 2905TIP3    H1 8672   5.384   7.586   5.121 -0.5750 -0.1500 -1.3739
 2905TIP3    H2 8673   5.303   7.688   5.199  0.1712 -0.6475  0.0763
 2906TIP3   OH2 8674   7.493   1.554   3.305 -0.5645  0.0198  0.0436
 2906TIP3    H1 8675   7.585   1.533   3.319 -0.2562  2.2027  1.9911
 2906TIP3    H2 8676   7.493   1.631   3.249 -1.4668 -2.1447 -3.2075
 2907TIP3   OH2 8677   0.176   5.262   4.208  0.1354 -0.3762 -0.2452
 2907TIP3    H1 8678   0.116   5.188   4.213 -1.2173  0.6747 -0.2455
 2907TIP3    H2 8679   0.141   5.317   4.138 -1.7095  2.5712  2.6905
 2908TIP3   OH2 8680   7.992   3.273   3.554  0.8301  0.8318 -0.9786
 2908TIP3    H1 8681   8.052   3.282   3.628  0.9098  1.6942 -1.1407
 2908TIP3    H2 8682   7.906   3.290   3.591  0.7821  0.4911 -0.9302
 2909TIP3   OH2 8683   2.690   5.328   2.398  0.0069 -0.1449  0.2999
 2909TIP3    H1 8684   2.708   5.237   2.375  0.4957 -0.5383  2.0497
 2909TIP3    H2 8685   2.595   5.332   2.409 -0.0237 -0.4304  0.1268
 2910TIP3   OH2 8686   2.216   3.439   2.953 -0.0411  0.1402 -0.2714
 2910TIP3    H1 8687   2.288   3.378   2.967  0.4351  1.0056  1.3226
 2910TIP3    H2 8688   2.146   3.386   2.915  0.2869 -1.4610  1.2257
 2911TIP3   OH2 8689   3.173   0.018   2.927 -0.3535  0.0122 -0.5261
 2911TIP3    H1 8690   3.207   0.066   3.002 -0.7384  1.0476 -0.9942
 2911TIP3    H2 8691   3.246   0.014   2.866  0.3075 -1.8007  0.3171
 2912TIP3   OH2 8692   4.631   2.682   1.011  0.0020 -0.5045  0.7571
 2912TIP3    H1 8693   4.634   2.604   1.066  0.2797  1.2598  3.4236
 2912TIP3    H2 8694   4.652   2.754   1.070  1.2678  1.4819 -1.9006
 2913TIP3   OH2 8695   1.839   5.897   6.666 -0.1357 -0.2045  0.2487
 2913TIP3    H1 8696   1.770   5.831   6.672  2.1346 -2.7538  0.2064
 2913TIP3    H2 8697   1.856   5.906   6.572  0.4702 -0.6175  0.3116
 2914TIP3   OH2 8698   2.041   7.044   5.135 -0.5678 -0.1306 -0.2352
 2914TIP3    H1 8699   2.039   7.003   5.222  0.2275  0.4385  0.0577
 2914TIP3    H2 8700   2.103   6.991   5.085  0.6454  0.8371  0.2168
 2915TIP3   OH2 8701   8.254   0.069   0.384  0.5512  0.6673 -0.1043
 2915TIP3    H1 8702   8.257   0.106   0.472  1.4419  0.2105  0.0708
 2915TIP3    H2 8703   8.202   0.131   0.333 -1.2254  0.2216  1.0685
 2916TIP3   OH2 8704   0.170   4.613   2.878 -0.2002  0.9203  0.0475
 2916TIP3    H1 8705   0.134   4.545   2.934 -1.3486  0.9731 -0.6012
 2916TIP3    H2 8706   0.094   4.655   2.838  0.5385  1.7271 -0.5635
 2917TIP3   OH2 8707   7.141   6.353   2.263 -0.0461 -0.1741 -0.6344
 2917TIP3    H1 8708   7.147   6.296   2.187 -0.4795 -1.4838  0.2696
 2917TIP3    H2 8709   7.154   6.442   2.229  1.1915 -0.8549 -1.9913
 2918TIP3   OH2 8710   6.531   6.202   4.491  0.0330 -0.0342  0.3426
 2918TIP3    H1 8711   6.625   6.190   4.478  0.1164  0.2267  0.6679
 2918TIP3    H2 8712   6.506   6.131   4.550  0.2515  0.5461  1.1532
 2919TIP3   OH2 8713   4.341   6.816   2.934 -0.2407  0.1354 -0.0990
 2919TIP3    H1 8714   4.385   6.750   2.881 -0.5470  0.6090 -0.9768
 2919TIP3    H2 8715   4.294   6.767   3.001  0.9009 -0.4262  0.3195
 2920TIP3   OH2 8716   0.497   6.040   0.088 -0.0235  0.2137 -0.1448
 2920TIP3    H1 8717   0.579   5.997   0.112  0.5073  1.1984 -0.1440
 2920TIP3    H2 8718   0.453   6.056   0.171 -0.9561 -1.6661 -0.2161
 2921TIP3   OH2 8719   7.162   5.099   6.417 -0.1399  0.7090  0.2185
 2921TIP3    H1 8720   7.232   5.051   6.372 -1.8665 -0.9963 -0.8027
 2921TIP3    H2 8721   7.154   5.056   6.502  0.1343  1.0055  0.3972
 2922TIP3   OH2 8722   3.775   4.182   6.006  0.0167  0.3131 -0.8309
 2922TIP3    H1 8723   3.786   4.132   5.925 -1.0302  2.3392 -2.3233
 2922TIP3    H2 8724   3.865   4.204   6.032  0.3654  0.0454 -1.7415
 2923TIP3   OH2 8725   1.190   1.690   5.255 -0.6594 -0.1679  0.1710
 2923TIP3    H1 8726   1.184   1.671   5.161 -0.2403  0.1152  0.0859
 2923TIP3    H2 8727   1.174   1.784   5.261  4.7841  1.0678 -0.2350
 2924TIP3   OH2 8728   3.832   3.721   1.223 -0.0730 -0.3397  0.0096
 2924TIP3    H1 8729   3.902   3.697   1.284  0.9744  0.6495 -0.7515
 2924TIP3    H2 8730   3.754   3.679   1.258  0.3424  0.7458  2.4313
 2925TIP3   OH2 8731   1.349   6.232   5.927  0.0805 -0.7551  0.3479
 2925TIP3    H1 8732   1.275   6.224   5.987 -0.3376  0.8242  0.0794
 2925TIP3    H2 8733   1.388   6.317   5.949  0.9489 -0.9246 -0.4893
 2926TIP3   OH2 8734   3.257   1.312   3.073 -0.2616 -0.3860  1.0211
 2926TIP3    H1 8735   3.164   1.292   3.072 -0.1870 -0.7874 -0.1604
 2926TIP3    H2 8736   3.275   1.346   2.985  0.3459  1.4798  1.8023
 2927TIP3   OH2 8737   7.222   3.319   4.489  0.5160  0.5182  0.2344
 2927TIP3    H1 8738   7.133   3.286   4.500  0.3985 -0.1223 -2.0922
 2927TIP3    H2 8739   7.211   3.414   4.482  0.1483  0.5391  1.0405
 2928TIP3   OH2 8740   1.265   1.243   4.318  0.0019  0.5379  0.2712
 2928TIP3    H1 8741   1.219   1.160   4.313  1.9815 -0.6290  0.1777
 2928TIP3    H2 8742   1.298   1.246   4.408  1.2627  0.4342 -0.1670
 2929TIP3   OH2 8743   5.458   3.449   5.109 -0.0432 -0.3962 -0.0154
 2929TIP3    H1 8744   5.544   3.418   5.136 -0.0530  0.7182  1.4068
 2929TIP3    H2 8745   5.402   3.434   5.185 -0.2122  2.3171  0.4971
 2930TIP3   OH2 8746   6.755   6.866   2.027 -0.0390  0.1818 -0.0644
 2930TIP3    H1 8747   6.781   6.788   2.075  0.6874  0.5806  0.2140
 2930TIP3    H2 8748   6.671   6.844   1.987 -0.1502 -0.5109  0.5418
 2931TIP3   OH2 8749   7.620   4.245   6.340 -0.3883  0.1945  0.4361
 2931TIP3    H1 8750   7.690   4.292   6.295 -1.8309  0.8880 -1.2312
 2931TIP3    H2 8751   7.612   4.289   6.425  0.3681  0.9143  0.1485
 2932TIP3   OH2 8752   1.383   3.088   4.986 -0.2511 -0.1741  0.0610
 2932TIP3    H1 8753   1.469   3.071   4.948 -0.1054 -0.1198  0.3558
 2932TIP3    H2 8754   1.321   3.048   4.926 -0.0465  0.1752 -0.3840
 2933TIP3   OH2 8755   3.768   3.814   2.854  0.5353  0.2488  0.2858
 2933TIP3    H1 8756   3.814   3.897   2.841  0.3823  0.0483 -1.9431
 2933TIP3    H2 8757   3.782   3.766   2.772 -1.7828 -0.7318  0.3885
 2934TIP3   OH2 8758   7.754   4.009   0.381  0.3947 -0.1358 -0.2643
 2934TIP3    H1 8759   7.716   3.924   0.403 -0.0948  0.0960 -0.2091
 2934TIP3    H2 8760   7.708   4.071   0.437  1.7961  0.0019  0.8098
 2935TIP3   OH2 8761   1.932   2.451   3.565  0.2919 -0.5215  0.7989
 2935TIP3    H1 8762   1.870   2.429   3.634 -1.7581 -0.2665 -0.8459
 2935TIP3    H2 8763   1.949   2.544   3.575 -0.2123 -0.4292  0.8269
 2936TIP3   OH2 8764   4.464   1.024   0.996 -0.5112  0.4836  0.1924
 2936TIP3    H1 8765   4.505   1.062   1.073 -0.1813 -0.5050  0.5261
 2936TIP3    H2 8766   4.424   0.943   1.028  0.6184 -0.5348 -0.8738
 2937TIP3   OH2 8767   5.769   3.623   1.342 -0.3487 -0.0275 -0.0758
 2937TIP3    H1 8768   5.826   3.570   1.287  0.0568 -0.5502  0.8175
 2937TIP3    H2 8769   5.824   3.648   1.416 -1.4239 -1.1358  1.1694
 2938TIP3   OH2 8770   5.102   5.281   5.156  0.1701 -0.3995 -0.0637
 2938TIP3    H1 8771   5.012   5.313   5.161  0.8290  1.4727  0.5345
 2938TIP3    H2 8772   5.093   5.187   5.140 -1.8922 -0.3777  0.6624
 2939TIP3   OH2 8773   2.328   6.217   4.408 -0.6896 -0.2671  0.0032
 2939TIP3    H1 8774   2.389   6.144   4.412 -0.1376  0.2312  1.2151
 2939TIP3    H2 8775   2.317   6.234   4.314  1.6919  0.1744 -0.2527
 2940TIP3   OH2 8776   2.599   2.257   2.230 -0.4024 -0.3513 -0.0077
 2940TIP3    H1 8777   2.586   2.169   2.266 -1.3702 -0.3764 -0.3874
 2940TIP3    H2 8778   2.513   2.299   2.240  0.7440  1.6433  3.0567
 2941TIP3   OH2 8779   6.702   2.313   3.738 -0.3496 -0.4985 -0.3397
 2941TIP3    H1 8780   6.783   2.271   3.707 -0.1863 -0.3121 -0.1691
 2941TIP3    H2 8781   6.632   2.254   3.710 -0.1818 -0.4717 -0.8124
 2942TIP3   OH2 8782   4.990   4.042   0.195  0.4043  0.0947  0.4216
 2942TIP3    H1 8783   5.014   3.997   0.275  0.3796 -0.7196 -0.0223
 2942TIP3    H2 8784   4.899   4.070   0.209 -0.0624 -1.2391  0.1627
 2943TIP3   OH2 8785   2.244   3.016   1.443 -0.6870  0.1086  0.0563
 2943TIP3    H1 8786   2.269   3.052   1.527  2.6296 -2.0718  0.2148
 2943TIP3    H2 8787   2.186   2.943   1.464 -0.6717  0.1875  0.3675
 2944TIP3   OH2 8788   7.937   2.471   4.877 -0.2585  0.3757 -0.5389
 2944TIP3    H1 8789   7.945   2.534   4.948  1.5829 -1.2131  0.7548
 2944TIP3    H2 8790   7.991   2.507   4.807 -1.0325  1.3090 -0.6800
 2945TIP3   OH2 8791   0.826   1.343   0.808 -0.1001 -0.1892  0.0740
 2945TIP3    H1 8792   0.768   1.419   0.808  0.8406  0.5596 -0.0156
 2945TIP3    H2 8793   0.818   1.306   0.896  0.7799  1.1025  0.7246
 2946TIP3   OH2 8794   3.384   6.045   2.623 -0.2392 -0.8735  0.3512
 2946TIP3    H1 8795   3.405   5.951   2.619 -0.3296 -0.8768 -0.2492
 2946TIP3    H2 8796   3.288   6.048   2.616 -0.2869 -0.7619  0.9927
 2947TIP3   OH2 8797   0.784   7.635   4.625 -0.2030  0.0746 -0.1515
 2947TIP3    H1 8798   0.811   7.704   4.564 -0.0573 -0.7924 -1.0972
 2947TIP3    H2 8799   0.862   7.581   4.637  0.6160  1.7498  3.0246
 2948TIP3   OH2 8800   3.622   2.146   5.866 -0.1919  0.0257  0.2914
 2948TIP3    H1 8801   3.675   2.097   5.802 -0.1460 -0.5764  0.7767
 2948TIP3    H2 8802   3.643   2.106   5.950 -1.3072 -0.1296  0.5150
 2949TIP3   OH2 8803   5.402   5.027   0.870  0.7897  1.0479 -0.3858
 2949TIP3    H1 8804   5.362   4.961   0.926 -0.8671  1.0385 -1.4867
 2949TIP3    H2 8805   5.440   4.976   0.798 -0.8908  1.2554 -1.4750
 2950TIP3   OH2 8806   6.063   2.339   3.939  0.3321  0.5237  0.0053
 2950TIP3    H1 8807   6.084   2.246   3.928  0.5009  0.8481 -3.6051
 2950TIP3    H2 8808   6.145   2.379   3.966  0.0608 -0.3768  2.4801
 2951TIP3   OH2 8809   8.206   3.383   4.260 -0.1703 -0.5082 -0.4430
 2951TIP3    H1 8810   8.168   3.318   4.318 -0.4550 -0.2373 -0.3204
 2951TIP3    H2 8811   8.192   3.349   4.172 -0.3942 -0.5738 -0.3825
 2952TIP3   OH2 8812   7.654   4.151   3.755 -0.2465 -0.3710 -0.2224
 2952TIP3    H1 8813   7.689   4.191   3.676 -1.9928  0.3489 -0.6850
 2952TIP3    H2 8814   7.603   4.221   3.797  1.6320 -0.3357  2.2390
 2953TIP3   OH2 8815   5.992   7.017   2.205  0.2501 -0.0579  0.1712
 2953TIP3    H1 8816   6.051   7.092   2.210  2.1541 -1.3907 -0.8953
 2953TIP3    H2 8817   6.050   6.941   2.196 -1.6288 -1.4552 -0.9731
 2954TIP3   OH2 8818   5.606   4.048   5.289  0.3293  0.1849 -0.4809
 2954TIP3    H1 8819   5.617   4.126   5.344 -0.4545  0.1756 -0.3035
 2954TIP3    H2 8820   5.683   3.995   5.307  1.6946  1.6090 -1.7607
 2955TIP3   OH2 8821   7.904   2.484   0.650 -0.1668  0.0870  0.0069
 2955TIP3    H1 8822   7.990   2.463   0.686 -0.0794  0.5589  0.0837
 2955TIP3    H2 8823   7.841   2.446   0.711 -0.0442  1.7486  1.2445
 2956TIP3   OH2 8824   5.357   1.954   0.378  0.0740  0.0171  0.3899
 2956TIP3    H1 8825   5.288   2.008   0.415 -0.0556  0.2012 -0.1143
 2956TIP3    H2 8826   5.389   1.903   0.452 -0.9932 -0.4983  0.5157
 2957TIP3   OH2 8827   2.509   4.706   2.037  0.4828  0.3051  0.0637
 2957TIP3    H1 8828   2.414   4.716   2.044  0.4483 -0.4699  1.0105
 2957TIP3    H2 8829   2.536   4.676   2.124  1.3841 -0.9958 -0.6308
 2958TIP3   OH2 8830   2.731   3.789   6.715 -0.7071  0.0598 -0.2419
 2958TIP3    H1 8831   2.708   3.879   6.695 -0.3956  0.1314 -0.2801
 2958TIP3    H2 8832   2.806   3.795   6.774 -0.1630 -0.1799 -0.8948
 2959TIP3   OH2 8833   0.444   0.565   1.371  0.2722 -0.1015 -0.1867
 2959TIP3    H1 8834   0.510   0.535   1.309  0.1938  1.2576 -0.9679
 2959TIP3    H2 8835   0.488   0.632   1.422 -0.3746  0.5254 -0.4372
 2960TIP3   OH2 8836   1.647   6.261   4.088  0.2772  0.2962  0.0877
 2960TIP3    H1 8837   1.646   6.191   4.024  0.0932  0.9445 -0.6287
 2960TIP3    H2 8838   1.710   6.325   4.053  1.9349 -0.3678  1.6783
 2961TIP3   OH2 8839   3.504   3.836   2.884  0.5578 -0.2386  0.5236
 2961TIP3    H1 8840   3.598   3.835   2.864  0.2741 -0.0336 -0.8825
 2961TIP3    H2 8841   3.471   3.913   2.838 -0.5805 -1.2029 -0.2986
 2962TIP3   OH2 8842   6.376   2.913   2.794  0.0157 -0.2147 -0.3186
 2962TIP3    H1 8843   6.306   2.944   2.736  0.5483  1.6304 -0.0405
 2962TIP3    H2 8844   6.332   2.888   2.875 -0.4257 -0.1255 -0.5324
 2963TIP3   OH2 8845   6.243   2.231   1.792  0.6651  0.4095  0.2634
 2963TIP3    H1 8846   6.162   2.249   1.840 -0.1410 -1.0336 -0.4983
 2963TIP3    H2 8847   6.256   2.137   1.803  0.8436  0.1699 -1.7595
 2964TIP3   OH2 8848   3.854   7.766   5.832  0.2811 -0.3827  0.3208
 2964TIP3    H1 8849   3.856   7.861   5.820 -1.2511 -0.2250  1.1816
 2964TIP3    H2 8850   3.788   7.751   5.899  1.8502 -1.9404  1.6002
 2965TIP3   OH2 8851   3.997   6.368   6.139  0.6438 -0.2004  0.4433
 2965TIP3    H1 8852   4.003   6.438   6.205 -0.9582  0.7564 -0.3709
 2965TIP3    H2 8853   4.067   6.388   6.077  1.1646 -0.2135  1.0117
 2966TIP3   OH2 8854   2.350   5.930   5.406 -0.3122 -0.5735  0.0795
 2966TIP3    H1 8855   2.299   5.892   5.334  1.4385 -0.9907 -1.0214
 2966TIP3    H2 8856   2.438   5.892   5.395  0.5609  1.0283  1.1419
 2967TIP3   OH2 8857   6.188   0.147   0.140 -0.0972  0.2082  0.1030
 2967TIP3    H1 8858   6.232   0.172   0.221  0.1561 -2.0115  0.7017
 2967TIP3    H2 8859   6.225   0.061   0.118 -2.4834 -0.7143 -0.5991
 2968TIP3   OH2 8860   6.723   4.218   4.719  0.1901  0.3690  0.5320
 2968TIP3    H1 8861   6.692   4.222   4.809  0.8561  0.1060  0.7779
 2968TIP3    H2 8862   6.646   4.240   4.666 -0.7455 -1.3776  1.0675
 2969TIP3   OH2 8863   3.804   3.028   2.380 -0.0538 -0.0643  0.1823
 2969TIP3    H1 8864   3.810   3.095   2.312 -0.0832  1.0336  1.2252
 2969TIP3    H2 8865   3.892   2.990   2.384 -0.4959 -1.4295 -1.6854
 2970TIP3   OH2 8866   1.613   2.991   0.337  0.5200 -0.0326 -0.5242
 2970TIP3    H1 8867   1.569   2.906   0.347  0.0105  0.3460  0.5942
 2970TIP3    H2 8868   1.653   3.008   0.422 -3.2128  2.9092  0.9666
 2971TIP3   OH2 8869   2.590   3.735   3.066 -0.7466 -0.2924  0.2890
 2971TIP3    H1 8870   2.665   3.692   3.107 -0.4716  0.3330  0.4495
 2971TIP3    H2 8871   2.623   3.820   3.038 -1.4453  0.0694  0.5361
 2972TIP3   OH2 8872   2.251   7.520   1.923 -0.6229  0.3164  0.4525
 2972TIP3    H1 8873   2.240   7.615   1.917 -0.7315  0.3284  0.8059
 2972TIP3    H2 8874   2.331   7.508   1.973  0.7906  0.2200 -1.6871
 2973TIP3   OH2 8875   5.048   1.361   3.059  0.1033  0.0927  0.0556
 2973TIP3    H1 8876   5.122   1.414   3.087  0.6359 -0.3713 -0.4621
 2973TIP3    H2 8877   4.978   1.383   3.121  0.9873 -0.2575  1.2204
 2974TIP3   OH2 8878   4.296   4.371   6.391 -0.0430 -0.0631 -0.8164
 2974TIP3    H1 8879   4.260   4.294   6.346  2.0265 -1.7478  0.2904
 2974TIP3    H2 8880   4.389   4.353   6.401  0.2950  2.0527  0.5982
 2975TIP3   OH2 8881   1.191   1.243   0.558  0.5806  0.3473 -0.6139
 2975TIP3    H1 8882   1.105   1.235   0.517  0.4436  1.7815 -0.6571
 2975TIP3    H2 8883   1.251   1.200   0.497 -0.1348 -1.0192 -0.3921
 2976TIP3   OH2 8884   2.869   5.998   2.914 -0.2533 -0.1397 -0.2388
 2976TIP3    H1 8885   2.823   6.081   2.929  0.5416  0.2382  0.1582
 2976TIP3    H2 8886   2.807   5.931   2.943 -2.1215  0.0755 -3.2674
 2977TIP3   OH2 8887   0.582   0.806   0.002  0.4081  0.2827 -0.7012
 2977TIP3    H1 8888   0.618   0.890  -0.025  0.8429  0.4569  0.3828
 2977TIP3    H2 8889   0.492   0.827   0.029  0.4484  0.3536 -0.6236
 2978TIP3   OH2 8890   1.814   0.824   2.431 -0.2873  1.1674  0.2002
 2978TIP3    H1 8891   1.808   0.882   2.355 -0.3911  1.0028  0.0848
 2978TIP3    H2 8892   1.902   0.787   2.425 -0.5249  0.6516 -0.2026
 2979TIP3   OH2 8893   5.532   5.639   1.180 -0.0756  0.1501  0.1203
 2979TIP3    H1 8894   5.454   5.585   1.195  0.1672 -0.2231  0.0428
 2979TIP3    H2 8895   5.544   5.638   1.085  0.5321 -0.5140  0.1988
 2980TIP3   OH2 8896   5.447   6.400   4.768  0.1143  0.2585  0.0519
 2980TIP3    H1 8897   5.376   6.446   4.723 -0.5629 -1.2910 -0.5527
 2980TIP3    H2 8898   5.424   6.307   4.760  0.0755 -0.1558  3.3452
 2981TIP3   OH2 8899   3.937   3.572   0.305 -0.4031  0.8221 -0.2017
 2981TIP3    H1 8900   3.997   3.599   0.375 -1.2093  1.3430  0.3011
 2981TIP3    H2 8901   3.851   3.602   0.334 -1.1271 -1.0127 -0.3087
 2982TIP3   OH2 8902   3.730   1.192   1.191 -0.1776 -0.9018 -0.0122
 2982TIP3    H1 8903   3.655   1.141   1.158 -1.3459  0.9350 -0.3626
 2982TIP3    H2 8904   3.709   1.206   1.283 -0.4589 -0.1116 -0.1870
 2983TIP3   OH2 8905   5.472   4.719   6.542  0.0435 -0.0005 -0.0260
 2983TIP3    H1 8906   5.478   4.695   6.450  0.2781  0.5936 -0.1704
 2983TIP3    H2 8907   5.536   4.663   6.586  1.4269  1.1264 -0.5215
 2984TIP3   OH2 8908   3.176   4.446   5.093 -0.2603  0.2580 -0.1379
 2984TIP3    H1 8909   3.131   4.502   5.156  0.0217 -0.4658  0.7332
 2984TIP3    H2 8910   3.172   4.359   5.131  1.0143  0.0051 -0.5068
 2985TIP3   OH2 8911   4.467   1.363   5.525 -0.1564  0.3051 -0.0042
 2985TIP3    H1 8912   4.442   1.272   5.511  1.9679 -0.2402 -0.5813
 2985TIP3    H2 8913   4.520   1.386   5.449 -0.0694  1.8116  0.4705
 2986TIP3   OH2 8914   4.755   6.626   0.442 -0.3275 -0.2731 -0.8404
 2986TIP3    H1 8915   4.733   6.555   0.503  1.9229 -0.5452 -0.2511
 2986TIP3    H2 8916   4.795   6.581   0.368 -0.2535  0.2820 -1.1350
 2987TIP3   OH2 8917   7.099   2.549   6.676  0.3516  0.5001 -0.9169
 2987TIP3    H1 8918   7.043   2.508   6.741 -0.7140  0.0660 -2.0608
 2987TIP3    H2 8919   7.160   2.480   6.649 -0.2793  0.1698 -1.5450
 2988TIP3   OH2 8920   4.572   6.329   4.780 -0.0683  0.0825  0.7391
 2988TIP3    H1 8921   4.566   6.355   4.688  3.6706  0.4569  0.4392
 2988TIP3    H2 8922   4.513   6.388   4.826  0.6947  2.4144 -1.0554
 2989TIP3   OH2 8923   7.421   2.271   1.241 -0.0293 -0.3101  0.1449
 2989TIP3    H1 8924   7.435   2.338   1.308 -0.8187  0.3905 -0.3654
 2989TIP3    H2 8925   7.454   2.191   1.281 -1.8601 -0.2317  2.0029
 2990TIP3   OH2 8926   4.274   2.112   4.007  0.1976 -0.0590  0.4876
 2990TIP3    H1 8927   4.213   2.043   4.032 -0.6055  0.5955  0.3759
 2990TIP3    H2 8928   4.314   2.080   3.927  0.0002 -0.4974  0.5576
 2991TIP3   OH2 8929   7.861   1.797   2.305  0.2755  0.1516 -0.1133
 2991TIP3    H1 8930   7.849   1.888   2.333 -0.2761 -0.1376  0.6272
 2991TIP3    H2 8931   7.888   1.752   2.385  1.9357 -0.0886 -0.7564
 2992TIP3   OH2 8932   3.865   5.268   6.449 -0.0395 -0.1180  0.0278
 2992TIP3    H1 8933   3.849   5.264   6.543  1.0090 -1.8283  0.1767
 2992TIP3    H2 8934   3.821   5.191   6.414  1.5783 -0.8289 -0.5239
 2993TIP3   OH2 8935   5.015   6.750   2.613  0.6878 -0.1007  0.3510
 2993TIP3    H1 8936   5.104   6.761   2.578  1.0854 -1.2564  0.9604
 2993TIP3    H2 8937   4.959   6.793   2.549  1.6907  0.7579  0.0154
 2994TIP3   OH2 8938   1.768   5.308   1.501  0.0503 -0.1052  0.4326
 2994TIP3    H1 8939   1.798   5.232   1.449 -0.5563 -1.4447  1.9498
 2994TIP3    H2 8940   1.819   5.303   1.582 -1.2564  0.0260  1.3029
 2995TIP3   OH2 8941   7.482   2.943   4.320 -0.9219  0.6322 -0.0643
 2995TIP3    H1 8942   7.538   2.985   4.385  0.0486 -0.5560 -0.0971
 2995TIP3    H2 8943   7.415   3.009   4.300  0.4063  2.0672  0.0298
 2996TIP3   OH2 8944   5.267   1.858   3.106 -0.7781 -0.0129  0.4870
 2996TIP3    H1 8945   5.343   1.853   3.049 -1.1293 -2.3856  0.1120
 2996TIP3    H2 8946   5.291   1.921   3.174  1.0168  0.2008 -0.3056
 2997TIP3   OH2 8947   5.413   1.126   0.731 -0.2949  0.3469 -0.1640
 2997TIP3    H1 8948   5.507   1.142   0.727 -0.2735  0.0317 -1.4818
 2997TIP3    H2 8949   5.375   1.213   0.744  0.1800  0.4338  0.7396
 2998TIP3   OH2 8950   6.011   3.179   4.229  0.0275 -0.4130 -0.1730
 2998TIP3    H1 8951   5.979   3.187   4.139  0.8718 -0.0373 -0.4506
 2998TIP3    H2 8952   6.042   3.266   4.252  0.4924 -0.6716  0.2173
 2999TIP3   OH2 8953   5.665   0.239   4.387 -0.3973  0.1038  0.3692
 2999TIP3    H1 8954   5.662   0.301   4.460 -2.5306 -1.2643  1.5810
 2999TIP3    H2 8955   5.680   0.154   4.429  2.8834 -0.2707 -1.2821
 3000TIP3   OH2 8956   1.294   4.795   1.561  0.0058 -0.1909 -0.2427
 3000TIP3    H1 8957   1.330   4.753   1.639  0.5691 -2.6470 -1.7137
 3000TIP3    H2 8958   1.205   4.820   1.586  0.8414  1.0048  1.7793
 3001TIP3   OH2 8959   5.384   6.869   4.639 -0.2426  0.4646 -0.1586
 3001TIP3    H1 8960   5.365   6.942   4.581 -2.8388  0.0865  0.0919
 3001TIP3    H2 8961   5.340   6.891   4.721 -2.2023 -1.8398 -0.4715
 3002TIP3   OH2 8962   0.685   6.057   1.305 -0.6354  0.2956 -0.0262
 3002TIP3    H1 8963   0.601   6.104   1.304 -0.7848  0.1225  1.5874
 3002TIP3    H2 8964   0.661   5.967   1.328 -0.0280  0.2207  0.3285
 3003TIP3   OH2 8965   3.523   0.045   0.397  0.5005 -0.3614  0.1683
 3003TIP3    H1 8966   3.527  -0.048   0.418  1.4295 -0.0587  1.4627
 3003TIP3    H2 8967   3.612   0.069   0.372 -0.3193 -0.4311 -3.2419
 3004TIP3   OH2 8968   5.273   1.646   5.584  0.0673  0.4129 -0.1523
 3004TIP3    H1 8969   5.320   1.677   5.662  0.1241  1.0463 -0.4298
 3004TIP3    H2 8970   5.247   1.726   5.538  0.8025  0.0615 -1.2411
 3005TIP3   OH2 8971   0.792   1.818   0.177  0.0539 -0.3977  0.3962
 3005TIP3    H1 8972   0.779   1.907   0.143 -0.8302 -0.4235  0.6494
 3005TIP3    H2 8973   0.839   1.773   0.107 -0.0348  0.0976  0.0099
 3006TIP3   OH2 8974   1.233   0.214   2.772  0.0944 -0.0011 -0.3854
 3006TIP3    H1 8975   1.284   0.151   2.823 -0.9064 -2.7560 -2.4710
 3006TIP3    H2 8976   1.143   0.199   2.800 -0.2925 -0.4801 -1.8075
 3007TIP3   OH2 8977   0.987   7.125   2.198 -0.1483  0.4392  0.0444
 3007TIP3    H1 8978   1.028   7.153   2.279 -0.7198  0.7348  0.2316
 3007TIP3    H2 8979   0.997   7.030   2.197  2.7345  0.6552 -1.0894
 3008TIP3   OH2 8980   2.552   2.233   1.815  0.1877 -0.1322 -0.0748
 3008TIP3    H1 8981   2.605   2.295   1.764  1.9306  0.8087  2.6559
 3008TIP3    H2 8982   2.464   2.272   1.816 -0.2026 -0.7113 -3.0595
 3009TIP3   OH2 8983   0.475   1.622   3.808 -0.6682 -0.0465 -0.0275
 3009TIP3    H1 8984   0.471   1.529   3.831 -0.2313 -0.5787 -1.9294
 3009TIP3    H2 8985   0.562   1.650   3.836 -0.3791 -0.5064 -0.4614
 3010TIP3   OH2 8986   4.443   0.435   6.564 -0.2312  0.2535  0.0297
 3010TIP3    H1 8987   4.387   0.485   6.505  0.5269  0.3641 -0.6082
 3010TIP3    H2 8988   4.450   0.489   6.643 -2.0707 -0.3500  0.6565
 3011TIP3   OH2 8989   1.068   7.236   0.749 -0.3343 -0.0097 -0.2921
 3011TIP3    H1 8990   1.096   7.282   0.669  2.0570 -0.2822  0.3072
 3011TIP3    H2 8991   1.099   7.292   0.820  0.0329 -1.1234  0.4352
 3012TIP3   OH2 8992   3.173   0.357   6.340 -0.9182 -0.0436 -0.0314
 3012TIP3    H1 8993   3.123   0.405   6.407 -2.2519  0.3139 -1.2321
 3012TIP3    H2 8994   3.154   0.404   6.259  0.3074 -0.7431 -0.7420
 3013TIP3   OH2 8995   2.013   5.835   2.905 -0.7776  0.4709 -0.4899
 3013TIP3    H1 8996   2.077   5.793   2.848  0.5077  0.4502  0.9132
 3013TIP3    H2 8997   2.065   5.875   2.974 -2.3255 -0.1321  1.0902
 3014TIP3   OH2 8998   3.047   6.682   0.731  0.0663 -0.2063  0.6785
 3014TIP3    H1 8999   3.010   6.634   0.805  1.1808  0.3730  1.6456
 3014TIP3    H2 9000   3.142   6.666   0.736  0.1944  0.0624 -0.4721
 3015TIP3   OH2 9001   5.158   4.716   0.094  0.0744 -0.1325  0.5947
 3015TIP3    H1 9002   5.152   4.807   0.122 -0.4549 -0.3580  1.2424
 3015TIP3    H2 9003   5.157   4.665   0.176  0.7847 -0.7066  0.2652
 3016TIP3   OH2 9004   4.631   7.096   4.903 -0.3963  0.2906  0.2726
 3016TIP3    H1 9005   4.710   7.047   4.881  0.0613  0.0612  2.2439
 3016TIP3    H2 9006   4.586   7.107   4.819  1.7626  0.5445 -0.9421
 3017TIP3   OH2 9007   5.533   5.965   0.694 -0.1149 -0.6487 -0.0147
 3017TIP3    H1 9008   5.628   5.958   0.683 -0.1633 -0.3566 -0.7422
 3017TIP3    H2 9009   5.502   6.001   0.610 -1.1036 -2.6408 -0.5778
 3018TIP3   OH2 9010   7.564   6.746   2.971  0.0880  0.1119 -0.1296
 3018TIP3    H1 9011   7.634   6.792   3.018  1.1654 -1.7917  0.2597
 3018TIP3    H2 9012   7.593   6.746   2.879  0.5633 -0.5634  0.0120
 3019TIP3   OH2 9013   7.817   6.385   6.343  0.3858 -0.2302 -0.4519
 3019TIP3    H1 9014   7.795   6.307   6.292  3.4353 -0.6021 -1.3842
 3019TIP3    H2 9015   7.858   6.444   6.280  1.5835  0.5354  0.9800
 3020TIP3   OH2 9016   2.820   5.235   0.459  0.2724  0.1187  0.0497
 3020TIP3    H1 9017   2.859   5.318   0.430 -0.3841  0.0491 -1.1270
 3020TIP3    H2 9018   2.759   5.260   0.527  1.7954  0.3117  1.4048
 3021TIP3   OH2 9019   5.158   6.528   5.162 -0.2834  0.4884  0.1097
 3021TIP3    H1 9020   5.202   6.581   5.228  0.1784  0.5626 -0.2501
 3021TIP3    H2 9021   5.069   6.561   5.160 -0.0936  1.0141  0.1452
 3022TIP3   OH2 9022   3.729   5.319   1.587  0.4718  0.1204 -0.4816
 3022TIP3    H1 9023   3.725   5.373   1.665  0.8247  0.0623 -0.4203
 3022TIP3    H2 9024   3.705   5.231   1.617 -3.2034  0.7516 -1.1336
 3023TIP3   OH2 9025   7.328   3.541   3.053 -0.9288 -0.1062  0.1170
 3023TIP3    H1 9026   7.386   3.536   2.977  1.1973  2.7996  1.3483
 3023TIP3    H2 9027   7.382   3.512   3.126 -2.2151 -0.7208  0.8500
 3024TIP3   OH2 9028   4.732   2.871   2.528 -0.1620 -0.0334  0.3747
 3024TIP3    H1 9029   4.677   2.937   2.486 -0.4747  0.9928  2.2711
 3024TIP3    H2 9030   4.670   2.818   2.579  0.0680 -1.9415 -1.2550
 3025TIP3   OH2 9031   2.378   3.317   2.025 -0.0206 -0.4013  0.5597
 3025TIP3    H1 9032   2.295   3.319   1.978  1.5935 -2.0261 -2.7086
 3025TIP3    H2 9033   2.354   3.320   2.118 -3.7174 -1.4858 -0.2166
 3026TIP3   OH2 9034   0.478   1.924   5.695  0.0392  0.1065  0.1342
 3026TIP3    H1 9035   0.554   1.904   5.751  0.5740  1.6009 -0.0127
 3026TIP3    H2 9036   0.510   1.993   5.636 -1.5297  0.9791  0.2719
 3027TIP3   OH2 9037   6.298   2.754   4.209 -0.3865 -0.1815  0.1458
 3027TIP3    H1 9038   6.291   2.671   4.257  1.9324 -0.5924 -0.1052
 3027TIP3    H2 9039   6.335   2.816   4.272 -1.5126  0.5090  0.1454
 3028TIP3   OH2 9040   1.243   7.204   4.421  0.1130  0.9111 -0.3484
 3028TIP3    H1 9041   1.175   7.215   4.354 -0.0374 -0.3041 -0.4079
 3028TIP3    H2 9042   1.318   7.253   4.388  0.6455 -1.0842 -2.2898
 3029TIP3   OH2 9043   2.627   3.198   3.680 -0.3581  0.6591  0.3121
 3029TIP3    H1 9044   2.649   3.151   3.760 -1.9865 -0.1952  0.2992
 3029TIP3    H2 9045   2.677   3.153   3.612 -1.0430 -0.3838  0.4727
 3030TIP3   OH2 9046   2.801   2.668   4.822 -0.4632  0.1189 -0.6910
 3030TIP3    H1 9047   2.719   2.704   4.854  0.4743  1.6379  0.1108
 3030TIP3    H2 9048   2.851   2.744   4.791  1.2019 -0.5753  0.1434
 3031TIP3   OH2 9049   7.645   4.072   3.397  0.1780 -0.5472 -0.1176
 3031TIP3    H1 9050   7.666   3.983   3.368 -1.2245 -1.1514  0.6320
 3031TIP3    H2 9051   7.598   4.110   3.323  0.4947 -0.5196 -0.3124
 3032TIP3   OH2 9052   7.507   7.424   5.374 -0.6796  0.1609 -0.0639
 3032TIP3    H1 9053   7.416   7.397   5.390  0.0620 -3.3233 -0.8840
 3032TIP3    H2 9054   7.553   7.342   5.356  2.5600  1.8654 -0.1922
 3033TIP3   OH2 9055   7.139   3.934   0.058 -0.6508 -0.4549 -0.2486
 3033TIP3    H1 9056   7.074   3.874   0.093 -0.7680 -0.7144 -0.8947
 3033TIP3    H2 9057   7.096   3.974  -0.018  0.1487 -1.0992 -1.0629
 3034TIP3   OH2 9058   1.868   1.601   6.436  0.2626 -0.1039  0.4010
 3034TIP3    H1 9059   1.794   1.652   6.468  0.5929  0.2904  0.5439
 3034TIP3    H2 9060   1.893   1.547   6.511 -1.1401 -1.7359 -0.2374
 3035TIP3   OH2 9061   6.366   5.792   3.072 -0.2552 -0.0158  0.5141
 3035TIP3    H1 9062   6.284   5.744   3.055 -0.0729  0.2259 -1.1940
 3035TIP3    H2 9063   6.364   5.808   3.166 -1.5335 -1.1798  0.7324
 3036TIP3   OH2 9064   2.124   7.294   1.117 -0.2966  0.1307 -0.2049
 3036TIP3    H1 9065   2.105   7.216   1.065 -0.2736 -0.0130 -0.0009
 3036TIP3    H2 9066   2.175   7.261   1.191  1.9264  0.6778 -1.4065
 3037TIP3   OH2 9067   4.004   6.631   3.024 -0.4882 -0.1623 -0.0249
 3037TIP3    H1 9068   3.934   6.638   2.960 -1.6186 -0.4376  1.1535
 3037TIP3    H2 9069   4.069   6.574   2.982 -0.8352  0.2852 -1.2160
 3038TIP3   OH2 9070   7.864   2.747   3.217  0.3467 -0.2562 -0.5334
 3038TIP3    H1 9071   7.839   2.754   3.310  0.8580 -2.5016 -0.1611
 3038TIP3    H2 9072   7.816   2.671   3.185  0.4967  0.2450 -2.0315
 3039TIP3   OH2 9073   4.238   3.989   3.640 -0.3296 -0.1230 -0.0757
 3039TIP3    H1 9074   4.167   3.970   3.579  0.1584 -0.0865 -0.6798
 3039TIP3    H2 9075   4.253   4.084   3.630 -0.7775  0.0305  0.6983
 3040TIP3   OH2 9076   5.815   5.570   4.948 -0.6855  0.3418 -0.0459
 3040TIP3    H1 9077   5.881   5.607   4.889 -0.4086  0.6382  0.4429
 3040TIP3    H2 9078   5.784   5.491   4.903 -0.2291  0.3756 -0.4302
 3041TIP3   OH2 9079   4.159   6.144   3.507 -0.6691  0.0253  0.3189
 3041TIP3    H1 9080   4.197   6.184   3.584 -2.2950  0.7521  0.8001
 3041TIP3    H2 9081   4.181   6.051   3.514 -2.3748 -0.2733  2.7198
 3042TIP3   OH2 9082   7.737   1.134   5.217 -0.0371  0.0953  0.0258
 3042TIP3    H1 9083   7.789   1.094   5.287 -0.6062  0.0969  0.4590
 3042TIP3    H2 9084   7.669   1.182   5.263  0.6724  1.6450 -0.4720
 3043TIP3   OH2 9085   3.880   3.263   4.448  0.1977 -0.5985  0.6685
 3043TIP3    H1 9086   3.827   3.296   4.375  0.7304  0.1438  0.6032
 3043TIP3    H2 9087   3.827   3.193   4.486  0.8207 -2.4995 -1.7433
 3044TIP3   OH2 9088   2.412   7.433  -0.014 -0.2239 -0.0735 -0.0303
 3044TIP3    H1 9089   2.439   7.394   0.069 -0.1405 -2.9014 -1.2632
 3044TIP3    H2 9090   2.486   7.487  -0.041  0.2418 -0.1067  1.1367
 3045TIP3   OH2 9091   6.763   4.426   2.471 -0.0789  0.2529  0.0956
 3045TIP3    H1 9092   6.771   4.374   2.551  1.5393  0.4772  0.1203
 3045TIP3    H2 9093   6.738   4.363   2.404 -1.2417  0.0240  0.7251
 3046TIP3   OH2 9094   2.068   2.369   0.654  0.3845 -0.1481  0.1819
 3046TIP3    H1 9095   2.061   2.318   0.573 -0.3248  1.2645 -0.6729
 3046TIP3    H2 9096   2.083   2.303   0.722  2.5508 -1.2619 -1.2604
 3047TIP3   OH2 9097   5.381   4.616   0.650  0.5238 -0.1176  0.0406
 3047TIP3    H1 9098   5.362   4.709   0.639 -1.2517 -0.3610  0.8341
 3047TIP3    H2 9099   5.307   4.571   0.610  0.5867 -1.1726  1.0683
 3048TIP3   OH2 9100   4.845   3.539   3.939  0.0952 -0.0104 -0.1382
 3048TIP3    H1 9101   4.861   3.617   3.885 -0.1812 -1.9761 -3.3193
 3048TIP3    H2 9102   4.925   3.529   3.990  1.0458  1.1307 -1.3044
 3049TIP3   OH2 9103   2.566   0.771   1.306  0.2868 -0.0480  0.3328
 3049TIP3    H1 9104   2.545   0.681   1.328  0.2657 -0.3117 -0.7376
 3049TIP3    H2 9105   2.490   0.821   1.334  0.0785 -0.4275  0.4454
 3050TIP3   OH2 9106   6.046   6.873   0.118  0.2315  0.0440 -0.7253
 3050TIP3    H1 9107   5.952   6.857   0.107  0.1973 -1.2535  1.0434
 3050TIP3    H2 9108   6.087   6.813   0.055 -0.0961 -0.1291 -0.7776
 3051TIP3   OH2 9109   4.896   1.936   1.611 -0.1605  0.5157  0.0308
 3051TIP3    H1 9110   4.848   1.857   1.637 -0.2423  0.7201  0.5274
 3051TIP3    H2 9111   4.988   1.911   1.616 -0.0755  1.0679  2.4214
 3052TIP3   OH2 9112   0.529   7.022   1.582  0.6537 -0.8864  0.7035
 3052TIP3    H1 9113   0.561   6.985   1.664  0.0731 -0.2233  1.2397
 3052TIP3    H2 9114   0.440   6.988   1.574  0.8978 -1.3947  0.0579
 3053TIP3   OH2 9115   1.814   5.362   6.689 -0.6630 -0.2037 -0.1505
 3053TIP3    H1 9116   1.802   5.278   6.646 -2.7643  1.2033 -2.5821
 3053TIP3    H2 9117   1.745   5.366   6.756  0.2024 -0.8441  0.8114
 3054TIP3   OH2 9118   1.086   2.952   2.535  0.3175 -0.1470  0.1976
 3054TIP3    H1 9119   1.145   3.005   2.589 -0.8840 -0.6686  2.1486
 3054TIP3    H2 9120   1.143   2.904   2.476  1.7925 -0.0594  1.4879
 3055TIP3   OH2 9121   7.730   2.097   5.432  0.0265  0.3147 -0.3182
 3055TIP3    H1 9122   7.777   2.172   5.395  0.7355 -0.2974 -0.6913
 3055TIP3    H2 9123   7.794   2.056   5.490 -0.4623  0.1820  0.1214
 3056TIP3   OH2 9124   5.154   1.696   4.924  0.5621 -0.0928 -0.5214
 3056TIP3    H1 9125   5.242   1.661   4.913  0.0159 -2.1900  1.0572
 3056TIP3    H2 9126   5.158   1.745   5.006 -0.1315 -1.9138  0.6758
 3057TIP3   OH2 9127   0.647   5.485   2.069  0.2699  0.1445 -1.0788
 3057TIP3    H1 9128   0.617   5.567   2.029 -0.6280  0.1624 -0.3863
 3057TIP3    H2 9129   0.589   5.418   2.032  1.2787 -0.2610 -1.9783
 3058TIP3   OH2 9130   6.949   1.179   4.981 -0.5970 -0.0513 -0.0585
 3058TIP3    H1 9131   6.875   1.186   4.920 -0.6804  1.8889  0.2012
 3058TIP3    H2 9132   6.923   1.232   5.056  0.8852  0.3412  0.2146
 3059TIP3   OH2 9133   7.479   5.139   6.545  0.0148  0.1425 -0.0402
 3059TIP3    H1 9134   7.446   5.059   6.503 -1.0425  0.9048 -0.7134
 3059TIP3    H2 9135   7.403   5.197   6.550  1.1685  1.8616 -1.3464
 3060TIP3   OH2 9136   2.305   0.640   6.664  0.1477 -0.5996 -0.2675
 3060TIP3    H1 9137   2.362   0.701   6.712 -0.5519 -0.6472  0.6683
 3060TIP3    H2 9138   2.263   0.588   6.733 -1.5962 -0.0490 -0.8677
 3061TIP3   OH2 9139   5.959   3.755   6.461  0.2901  0.7147 -0.1097
 3061TIP3    H1 9140   5.887   3.718   6.512 -0.5385  0.1922 -1.5880
 3061TIP3    H2 9141   5.958   3.706   6.378  2.4067  0.6363 -0.1560
 3062TIP3   OH2 9142   5.476   5.822   4.873  0.3844  0.0769 -0.0407
 3062TIP3    H1 9143   5.539   5.750   4.866  0.4687 -0.0301  1.4676
 3062TIP3    H2 9144   5.515   5.893   4.821  1.4174 -0.2327  0.2736
 3063TIP3   OH2 9145   5.054   4.706   6.318  0.0505 -0.3844 -0.5559
 3063TIP3    H1 9146   4.999   4.761   6.374 -2.4534 -3.1663 -0.0643
 3063TIP3    H2 9147   5.008   4.703   6.234  1.6312  0.4155 -1.5075
 3064TIP3   OH2 9148   5.347   0.342   4.852  0.2033  0.0808 -0.4441
 3064TIP3    H1 9149   5.348   0.248   4.865  1.6108  0.2527  0.9407
 3064TIP3    H2 9150   5.332   0.378   4.939 -1.3600  1.1458 -1.0969
 3065TIP3   OH2 9151   6.286   5.458   3.086 -0.0518  0.0904  0.6056
 3065TIP3    H1 9152   6.240   5.435   3.166 -0.8684 -1.0760 -0.1597
 3065TIP3    H2 9153   6.377   5.434   3.102  0.0977  1.2755  1.6933
 3066TIP3   OH2 9154   8.091   2.107   6.087 -0.6680  0.0558  0.5819
 3066TIP3    H1 9155   8.177   2.130   6.121  0.9210 -1.8922 -1.8071
 3066TIP3    H2 9156   8.100   2.114   5.992 -3.0296 -0.6469  0.2441
 3067TIP3   OH2 9157   7.123   5.969   3.527  0.0074  0.0192 -0.2830
 3067TIP3    H1 9158   7.187   5.951   3.458  0.4928  1.4315 -0.2223
 3067TIP3    H2 9159   7.040   5.978   3.481  0.2979  0.7795 -0.6873
 3068TIP3   OH2 9160   2.069   3.638   3.635 -0.0244 -0.0745  0.0765
 3068TIP3    H1 9161   2.026   3.718   3.604 -1.7435 -0.9100  0.2017
 3068TIP3    H2 9162   2.066   3.578   3.561 -0.7225 -0.7550  0.6304
 3069TIP3   OH2 9163   6.165   4.633   3.336 -0.5408 -0.2053 -0.4889
 3069TIP3    H1 9164   6.118   4.676   3.409  0.2533  1.8303 -1.0997
 3069TIP3    H2 9165   6.246   4.601   3.376  0.5113  2.0524 -0.6096
 3070TIP3   OH2 9166   6.897   4.254   5.933  0.1324 -0.5693 -0.2392
 3070TIP3    H1 9167   6.974   4.224   5.886 -1.0533 -0.6093 -2.2586
 3070TIP3    H2 9168   6.826   4.249   5.869 -1.1650  1.3712  0.9465
 3071TIP3   OH2 9169   8.224   0.364   2.905 -0.0913 -0.4692 -0.3031
 3071TIP3    H1 9170   8.309   0.398   2.877 -0.3154 -0.5430 -1.0926
 3071TIP3    H2 9171   8.246   0.293   2.966  0.3798  0.9025  1.1931
 3072TIP3   OH2 9172   7.470   5.896   1.286  0.3380  0.1148  0.6869
 3072TIP3    H1 9173   7.491   5.803   1.292  1.1226  0.3610  2.1050
 3072TIP3    H2 9174   7.383   5.903   1.326  0.5439  0.0720  1.1491
 3073TIP3   OH2 9175   2.285   7.148   0.391 -0.2767  0.2249 -0.3554
 3073TIP3    H1 9176   2.376   7.160   0.418 -0.3459 -0.8527  0.4433
 3073TIP3    H2 9177   2.286   7.155   0.296  0.3252  2.0992 -0.2419
 3074TIP3   OH2 9178   3.187   5.280   2.780 -0.2511 -0.4723 -0.0527
 3074TIP3    H1 9179   3.180   5.278   2.684  1.0097 -0.9880 -0.1529
 3074TIP3    H2 9180   3.281   5.277   2.797 -0.4983 -2.6791  1.2363
 3075TIP3   OH2 9181   2.624   0.688   3.854 -0.6681 -0.1776 -0.3602
 3075TIP3    H1 9182   2.669   0.748   3.914 -2.7006  2.1255 -0.9647
 3075TIP3    H2 9183   2.687   0.619   3.838  1.2231  0.9076  1.7208
 3076TIP3   OH2 9184   7.385   7.080   0.701 -0.0580 -0.2432  0.4578
 3076TIP3    H1 9185   7.477   7.100   0.688  0.2256 -1.1894  0.9584
 3076TIP3    H2 9186   7.377   7.056   0.793 -0.8285 -0.0884  0.4457
 3077TIP3   OH2 9187   5.014   6.917   5.843  0.0639  0.3157 -0.5366
 3077TIP3    H1 9188   5.059   6.842   5.883  0.3833  1.1659  0.7523
 3077TIP3    H2 9189   4.942   6.935   5.903 -0.0513  0.9994 -0.8765
 3078TIP3   OH2 9190   2.985   0.580   0.183  0.0107 -0.7677  0.2049
 3078TIP3    H1 9191   2.927   0.655   0.199  1.2961  0.3988 -0.4175
 3078TIP3    H2 9192   2.974   0.524   0.260  1.3413  1.6082  2.2689
 3079TIP3   OH2 9193   5.832   3.854   3.555  0.3120 -0.1094 -0.0915
 3079TIP3    H1 9194   5.741   3.833   3.537  0.7315 -1.4399 -0.7609
 3079TIP3    H2 9195   5.856   3.919   3.488 -0.4065  1.0283  0.7189
 3080TIP3   OH2 9196   1.874   3.643   0.412 -0.2871  0.0071  0.2474
 3080TIP3    H1 9197   1.871   3.715   0.349  1.5763 -2.6596 -3.2048
 3080TIP3    H2 9198   1.831   3.570   0.368 -1.1375 -1.4061  3.1532
 3081TIP3   OH2 9199   7.343   4.539   3.255  0.6059  0.0858 -0.3994
 3081TIP3    H1 9200   7.424   4.590   3.262  2.1822 -2.4341  1.6933
 3081TIP3    H2 9201   7.327   4.532   3.161  2.1024  1.6742 -0.8254
 3082TIP3   OH2 9202   0.543   1.182   0.606  0.0292 -0.1610  0.0927
 3082TIP3    H1 9203   0.541   1.214   0.696  1.9969 -0.3048  0.2293
 3082TIP3    H2 9204   0.462   1.132   0.597  0.1182 -0.7495  2.0215
 3083TIP3   OH2 9205   7.263   4.484   1.185  0.0058  0.1586  0.5141
 3083TIP3    H1 9206   7.171   4.460   1.197 -0.4605  0.9182 -1.2091
 3083TIP3    H2 9207   7.309   4.401   1.182 -1.0442 -0.4193 -1.4020
 3084TIP3   OH2 9208   6.501   4.264   4.540  0.6145 -0.4871 -0.0056
 3084TIP3    H1 9209   6.409   4.268   4.514  0.9164  1.0677 -1.0103
 3084TIP3    H2 9210   6.542   4.211   4.471  0.9021  1.1532 -1.1678
 3085TIP3   OH2 9211   0.264   3.895   6.006 -0.8356  1.0390  0.6666
 3085TIP3    H1 9212   0.231   3.873   5.918 -2.1864 -2.4223  1.8584
 3085TIP3    H2 9213   0.358   3.907   5.993 -0.6650 -1.3517 -1.0497
 3086TIP3   OH2 9214   7.424   6.477   5.799  0.5542  0.0976  0.2911
 3086TIP3    H1 9215   7.340   6.461   5.842  0.4117 -0.7785 -0.2737
 3086TIP3    H2 9216   7.489   6.472   5.869  0.2527 -0.5148  0.5334
 3087TIP3   OH2 9217   8.066   6.634   1.439  0.3129  0.3743  0.9172
 3087TIP3    H1 9218   7.994   6.655   1.379  1.0229 -0.3788 -0.2396
 3087TIP3    H2 9219   8.116   6.716   1.445  1.4438 -0.0803 -1.2773
 3088TIP3   OH2 9220   4.727   5.376   4.044  0.3039  0.4788 -0.0706
 3088TIP3    H1 9221   4.784   5.329   3.984 -0.1771  0.8368 -0.8198
 3088TIP3    H2 9222   4.786   5.418   4.106  0.7514 -1.2113  0.7154
 3089TIP3   OH2 9223   3.976   2.452   6.379 -0.2535 -0.6044 -0.5870
 3089TIP3    H1 9224   3.895   2.451   6.327 -0.4023 -0.1310 -0.3687
 3089TIP3    H2 9225   4.005   2.543   6.377  0.5458 -0.8547 -1.0697
 3090TIP3   OH2 9226   2.838   2.862   0.246  0.2580  0.1221 -0.3433
 3090TIP3    H1 9227   2.793   2.898   0.322 -0.6944 -1.2907 -0.2136
 3090TIP3    H2 9228   2.839   2.934   0.182  2.4920  1.8714  1.5089
 3091TIP3   OH2 9229   3.405   3.040   3.939  0.3992  0.6787  0.3299
 3091TIP3    H1 9230   3.467   3.086   3.881  2.1295 -1.3180  0.4688
 3091TIP3    H2 9231   3.376   2.965   3.887  0.9544 -0.4044  1.5331
 3092TIP3   OH2 9232   5.017   7.779   3.987 -0.4102 -0.8836  0.2290
 3092TIP3    H1 9233   5.009   7.867   4.025  0.8319 -0.3311 -0.6916
 3092TIP3    H2 9234   4.989   7.720   4.056 -2.4586  0.2829  0.4751
 3093TIP3   OH2 9235   7.083   5.026   1.240  0.4758 -0.6957  0.2792
 3093TIP3    H1 9236   7.123   4.953   1.192  1.5743  0.7608 -1.1543
 3093TIP3    H2 9237   7.152   5.055   1.300  0.4799 -0.1205  0.0048
 3094TIP3   OH2 9238   2.204   6.294   6.270  0.5747  0.0951 -0.0210
 3094TIP3    H1 9239   2.224   6.325   6.182  2.1684 -0.9224 -0.0497
 3094TIP3    H2 9240   2.263   6.343   6.327 -0.1086  0.3978  0.4406
 3095TIP3   OH2 9241   2.516   0.641   2.978 -0.4455 -0.2713 -0.1317
 3095TIP3    H1 9242   2.429   0.619   2.945 -0.5730 -0.4881  0.3454
 3095TIP3    H2 9243   2.501   0.678   3.065 -0.0694 -0.2204 -0.0847
 3096TIP3   OH2 9244   7.926   7.386   6.053  0.8030  0.2444  0.2054
 3096TIP3    H1 9245   7.897   7.449   5.987  0.0975 -1.1330 -0.8595
 3096TIP3    H2 9246   8.021   7.387   6.047  0.7811  0.8186 -0.1659
 3097TIP3   OH2 9247   5.410   3.947   1.637 -0.2234 -0.0755 -0.0029
 3097TIP3    H1 9248   5.370   3.894   1.567  0.3397 -0.3554 -0.1132
 3097TIP3    H2 9249   5.335   3.991   1.678 -0.6532 -0.5893 -0.2124
 3098TIP3   OH2 9250   6.222   0.313   5.483  0.6163 -0.1022  0.0041
 3098TIP3    H1 9251   6.252   0.249   5.419 -2.8287 -0.0238 -1.9759
 3098TIP3    H2 9252   6.193   0.261   5.557  2.0525 -0.4166  0.3699
 3099TIP3   OH2 9253   0.106   2.571   3.672  0.0970  0.0735  0.3314
 3099TIP3    H1 9254   0.073   2.655   3.638 -0.8769 -0.6886 -0.7263
 3099TIP3    H2 9255   0.200   2.574   3.657 -0.0437  0.6307 -0.5528
 3100TIP3   OH2 9256   4.063   4.195   6.039  0.0943 -0.3198 -0.2471
 3100TIP3    H1 9257   4.110   4.111   6.035  1.2524  0.3427 -0.9279
 3100TIP3    H2 9258   4.126   4.257   6.075 -0.2643  0.5788 -1.1135
 3101TIP3   OH2 9259   3.426   1.624   3.539 -0.0572  0.5574  0.1570
 3101TIP3    H1 9260   3.462   1.660   3.458  0.8339  0.0473  0.3023
 3101TIP3    H2 9261   3.342   1.667   3.550  0.4195  1.6559 -0.3172
 3102TIP3   OH2 9262   6.379   2.382   0.247 -0.4530  0.1526 -0.0338
 3102TIP3    H1 9263   6.375   2.473   0.218  0.2015 -0.0287 -0.7069
 3102TIP3    H2 9264   6.289   2.361   0.274 -1.1035  0.3276 -1.9457
 3103TIP3   OH2 9265   2.584   2.808   5.516  0.2315 -0.3013  0.6451
 3103TIP3    H1 9266   2.542   2.722   5.506  0.4839 -0.3737  0.2047
 3103TIP3    H2 9267   2.651   2.810   5.448 -0.6286  0.7728 -0.2025
 3104TIP3   OH2 9268   1.791   5.132   5.527  0.8471 -0.0654 -0.1158
 3104TIP3    H1 9269   1.790   5.073   5.602  0.0610 -1.9324 -1.5032
 3104TIP3    H2 9270   1.702   5.167   5.524  0.4117 -1.1844 -1.0131
 3105TIP3   OH2 9271   3.008   1.548  -0.023 -0.1112  0.0215 -0.0033
 3105TIP3    H1 9272   3.026   1.512   0.064 -2.2392 -0.9778  0.0912
 3105TIP3    H2 9273   3.040   1.638  -0.019 -0.6699  0.1842  2.0326
 3106TIP3   OH2 9274   5.977   6.550   1.165  0.3391 -0.0946  0.1591
 3106TIP3    H1 9275   5.900   6.602   1.190  1.4688  0.8657  1.9029
 3106TIP3    H2 9276   5.992   6.493   1.240  2.5316  1.2346  0.7957
 3107TIP3   OH2 9277   0.717   2.582   4.132  0.2138  0.1556 -0.3057
 3107TIP3    H1 9278   0.779   2.519   4.169  2.3558  1.1322 -1.9672
 3107TIP3    H2 9279   0.731   2.577   4.037 -2.8276 -0.0477 -0.8291
 3108TIP3   OH2 9280   6.854   3.522   3.104 -0.0148  0.0505 -0.0779
 3108TIP3    H1 9281   6.832   3.609   3.071 -2.6130 -0.0635  1.0768
 3108TIP3    H2 9282   6.844   3.465   3.028 -1.4352  0.3777 -0.1681
 3109TIP3   OH2 9283   5.542   3.823   1.852 -0.5163 -0.5264 -0.0499
 3109TIP3    H1 9284   5.461   3.794   1.895 -0.3292 -1.5625 -0.3574
 3109TIP3    H2 9285   5.513   3.886   1.787 -1.0063 -0.3697  0.3121
 3110TIP3   OH2 9286   0.535   7.446   0.188 -0.2963 -0.2019 -0.2829
 3110TIP3    H1 9287   0.614   7.464   0.136 -0.2553 -1.7151 -0.8026
 3110TIP3    H2 9288   0.468   7.425   0.122 -0.9571  0.3860  0.1858
 3111TIP3   OH2 9289   3.600   2.675   2.638 -0.2223 -0.5458 -0.8150
 3111TIP3    H1 9290   3.633   2.620   2.708  2.2514  2.1742  0.3999
 3111TIP3    H2 9291   3.534   2.731   2.679  1.1073  0.9338 -0.5937
 3112TIP3   OH2 9292   7.088   4.689   5.160  0.3690  0.2173  0.1931
 3112TIP3    H1 9293   7.021   4.753   5.184  0.1507 -0.3376  1.0797
 3112TIP3    H2 9294   7.061   4.659   5.073  0.5383  1.3981 -0.2965
 3113TIP3   OH2 9295   5.442   2.927   6.452  0.5360  0.4824 -0.5085
 3113TIP3    H1 9296   5.422   2.904   6.361 -0.1296  2.0809 -0.7951
 3113TIP3    H2 9297   5.519   2.984   6.445  0.8869  0.0739 -0.0012
 3114TIP3   OH2 9298   7.272   3.123   3.835  0.2441 -0.2591 -0.4699
 3114TIP3    H1 9299   7.265   3.179   3.912  0.7397 -1.0663  0.1782
 3114TIP3    H2 9300   7.366   3.111   3.822  0.1459 -1.5638 -0.1160
 3115TIP3   OH2 9301   7.856   1.349   3.123 -0.1349 -0.3998 -0.1326
 3115TIP3    H1 9302   7.835   1.330   3.031 -1.8369 -0.7901  0.2921
 3115TIP3    H2 9303   7.935   1.299   3.141  0.3637 -0.1289 -1.4407
 3116TIP3   OH2 9304   6.352   2.785   4.590 -0.2534 -0.0698 -0.0607
 3116TIP3    H1 9305   6.357   2.872   4.629  0.2890 -0.0066 -0.2658
 3116TIP3    H2 9306   6.260   2.775   4.565 -0.0477  1.0449 -1.3977
 3117TIP3   OH2 9307   0.039   0.502   5.751 -0.0071  0.0594  0.2501
 3117TIP3    H1 9308   0.021   0.454   5.832 -2.0779  0.7945  0.3010
 3117TIP3    H2 9309   0.096   0.574   5.778 -2.5005  1.6644  1.6150
 3118TIP3   OH2 9310   5.972   0.111   4.613  0.1457  0.0500  0.5455
 3118TIP3    H1 9311   5.921   0.186   4.644  1.3653  1.4653 -0.6947
 3118TIP3    H2 9312   6.062   0.132   4.637  0.4643 -1.2070  0.5087
 3119TIP3   OH2 9313   1.249   2.457   4.097 -0.2701 -0.0903  0.5461
 3119TIP3    H1 9314   1.301   2.468   4.017 -0.6885 -1.4242  0.0780
 3119TIP3    H2 9315   1.289   2.518   4.159  0.0245  1.0185 -0.6836
 3120TIP3   OH2 9316   1.564   1.025   6.345 -0.0131  0.2579 -0.2670
 3120TIP3    H1 9317   1.568   1.112   6.306 -0.7588  0.6470  0.4893
 3120TIP3    H2 9318   1.476   1.019   6.381  0.1847 -0.6365  0.0995
 3121TIP3   OH2 9319   0.350   0.257   1.550 -0.3189  0.3838 -0.0311
 3121TIP3    H1 9320   0.337   0.166   1.524 -0.6175  0.0120  1.3603
 3121TIP3    H2 9321   0.445   0.265   1.563 -0.3794  0.0380  0.6514
 3122TIP3   OH2 9322   7.763   5.457   4.669 -0.5216 -0.1868  0.4837
 3122TIP3    H1 9323   7.817   5.533   4.691 -1.9155  0.7795  0.6768
 3122TIP3    H2 9324   7.765   5.453   4.574 -0.1244 -0.1552  0.4879
 3123TIP3   OH2 9325   7.935   4.784   5.244  0.4089 -0.4591  0.0154
 3123TIP3    H1 9326   7.954   4.876   5.263 -1.0186 -0.1420 -0.0114
 3123TIP3    H2 9327   8.021   4.746   5.225  1.3369  0.3107  2.3076
 3124TIP3   OH2 9328   3.929   3.643   1.458 -0.2505  0.0698  0.1948
 3124TIP3    H1 9329   3.984   3.677   1.528  2.2921 -0.5034 -1.3723
 3124TIP3    H2 9330   3.877   3.574   1.499  0.0532  0.7415  1.7789
 3125TIP3   OH2 9331   6.063   0.811   2.610  0.5604  0.0859 -0.1723
 3125TIP3    H1 9332   6.070   0.743   2.542 -2.5418 -1.0165  0.4649
 3125TIP3    H2 9333   6.109   0.775   2.685  0.6928 -0.3932 -0.4807
 3126TIP3   OH2 9334   5.318   1.905   6.100 -0.0963 -0.6078  0.1088
 3126TIP3    H1 9335   5.394   1.902   6.158 -0.3817  0.3394  0.5612
 3126TIP3    H2 9336   5.355   1.918   6.013  0.2706 -0.0636  0.3370
 3127TIP3   OH2 9337   7.596   5.628   2.099  0.3440 -0.0864  0.1397
 3127TIP3    H1 9338   7.553   5.549   2.067 -1.2177  0.9567 -0.4976
 3127TIP3    H2 9339   7.625   5.674   2.020  0.3176  0.4581  0.4387
 3128TIP3   OH2 9340   3.939   4.141   6.647 -0.6216  0.0934 -0.6389
 3128TIP3    H1 9341   3.934   4.197   6.570 -1.0570  0.4168 -0.3837
 3128TIP3    H2 9342   3.889   4.188   6.714  0.0062 -0.0334 -0.0670
 3129TIP3   OH2 9343   5.009   5.332   2.560 -0.0647 -0.0242 -0.9637
 3129TIP3    H1 9344   5.038   5.355   2.471  1.4889 -0.3326 -0.5531
 3129TIP3    H2 9345   4.985   5.415   2.599  1.5168  0.4297 -0.8967
 3130TIP3   OH2 9346   8.132  -0.017   4.045  0.0386 -0.0591  0.0706
 3130TIP3    H1 9347   8.206   0.042   4.029  0.9266 -0.9917  0.6172
 3130TIP3    H2 9348   8.063   0.015   3.987  0.4987  1.4890  0.3239
 3131TIP3   OH2 9349   8.010   3.684   4.851  0.7116 -0.5623  0.1412
 3131TIP3    H1 9350   8.096   3.725   4.861  0.5203  0.1851 -1.1195
 3131TIP3    H2 9351   8.020   3.597   4.890  1.7908 -0.1804  0.7515
 3132TIP3   OH2 9352   0.163   7.390   0.792 -0.0507  0.5525 -0.5557
 3132TIP3    H1 9353   0.144   7.464   0.734 -0.9651 -0.9810 -2.3516
 3132TIP3    H2 9354   0.257   7.374   0.780 -0.3881 -0.3597 -2.5371
 3133TIP3   OH2 9355   3.024   7.560   3.166  0.5830  0.1735  0.0976
 3133TIP3    H1 9356   3.054   7.592   3.251 -1.0888  0.5152  0.6093
 3133TIP3    H2 9357   2.950   7.503   3.187 -0.8540  1.4703 -1.1755
 3134TIP3   OH2 9358   4.803   6.489   2.995  0.2498 -0.3689  0.1578
 3134TIP3    H1 9359   4.886   6.502   2.949  1.1766  0.1573  1.8663
 3134TIP3    H2 9360   4.813   6.405   3.040 -0.1402 -0.3004  0.3828
 3135TIP3   OH2 9361   0.314   1.713   2.050 -0.3284 -0.6322 -0.3796
 3135TIP3    H1 9362   0.345   1.659   2.122  0.9495  0.3125 -0.1717
 3135TIP3    H2 9363   0.291   1.651   1.981 -0.5094 -1.4985  0.4428
 3136TIP3   OH2 9364   0.939   3.765   0.855  0.6412 -0.7669 -0.1065
 3136TIP3    H1 9365   0.942   3.851   0.812 -0.5429  0.4169  2.0083
 3136TIP3    H2 9366   0.963   3.703   0.786  0.2578  1.1341 -2.0652
 3137TIP3   OH2 9367   5.519   2.972   0.069 -0.3669  0.0800 -0.4574
 3137TIP3    H1 9368   5.534   2.945  -0.022  2.8795  0.4213 -0.1074
 3137TIP3    H2 9369   5.481   2.895   0.111  2.9308 -2.0121 -0.9557
 3138TIP3   OH2 9370   3.612   1.675   3.251  0.0410 -0.3603  0.0004
 3138TIP3    H1 9371   3.555   1.747   3.279  0.1632  0.1860 -1.1187
 3138TIP3    H2 9372   3.557   1.597   3.259 -0.6371  0.0668 -0.3756
 3139TIP3   OH2 9373   7.528   4.897   3.106  0.9430  0.5497  0.0380
 3139TIP3    H1 9374   7.456   4.897   3.042  1.2679 -2.2801 -0.4853
 3139TIP3    H2 9375   7.484   4.908   3.191 -0.0230 -0.1064 -0.3500
 3140TIP3   OH2 9376   7.740   0.979   3.295 -0.0239  0.0435  0.0175
 3140TIP3    H1 9377   7.650   0.948   3.291  0.1838 -0.7391  1.0153
 3140TIP3    H2 9378   7.759   1.011   3.207 -0.5768 -1.7816 -0.7995
 3141TIP3   OH2 9379   5.915   3.438   6.748  0.8650  0.3450 -0.4799
 3141TIP3    H1 9380   5.935   3.389   6.668 -1.4313 -1.5627  0.0017
 3141TIP3    H2 9381   5.846   3.500   6.723  0.9518  0.5454 -0.2346
 3142TIP3   OH2 9382   0.979   3.575   4.537 -0.2697  0.3661 -0.6489
 3142TIP3    H1 9383   1.028   3.523   4.473 -1.6027  0.5165 -1.8402
 3142TIP3    H2 9384   0.995   3.666   4.510  1.2322  0.5860  0.8164
 3143TIP3   OH2 9385   7.535   1.451   5.726 -0.1185  0.4429 -0.0828
 3143TIP3    H1 9386   7.470   1.384   5.745 -0.1308  0.3659 -0.3929
 3143TIP3    H2 9387   7.598   1.408   5.667 -0.2183  0.7520 -0.4191
 3144TIP3   OH2 9388   6.178   3.311   6.231 -0.2192  0.1734 -0.3558
 3144TIP3    H1 9389   6.127   3.232   6.211 -0.7069  0.8927 -2.1241
 3144TIP3    H2 9390   6.161   3.328   6.324 -1.4914 -0.8083 -0.3796
 3145TIP3   OH2 9391   5.618   4.817   5.266 -0.2693 -0.3500 -0.0901
 3145TIP3    H1 9392   5.664   4.892   5.304 -0.6279  0.2471 -0.7961
 3145TIP3    H2 9393   5.560   4.787   5.335  2.7661 -2.6336  1.7355
 3146TIP3   OH2 9394   7.568   6.698   1.398  0.2601 -0.5290  0.5648
 3146TIP3    H1 9395   7.663   6.703   1.391  0.3975 -0.6920  1.9931
 3146TIP3    H2 9396   7.542   6.784   1.431 -0.3571  0.3144 -1.9081
 3147TIP3   OH2 9397   0.640   0.487   3.804 -0.2046 -0.2755  0.1045
 3147TIP3    H1 9398   0.667   0.578   3.808  1.3168 -0.6962  0.0452
 3147TIP3    H2 9399   0.549   0.489   3.773  0.4809  1.1044 -1.9693
 3148TIP3   OH2 9400   6.447   1.555   1.802  0.7112 -0.3590  0.6819
 3148TIP3    H1 9401   6.522   1.497   1.788  0.3863 -0.6543  0.1020
 3148TIP3    H2 9402   6.376   1.515   1.751  0.7349  1.0609 -0.5125
 3149TIP3   OH2 9403   1.231   5.141   6.292  0.3607  0.4264 -0.1523
 3149TIP3    H1 9404   1.181   5.184   6.222 -0.7169  0.2353  0.4760
 3149TIP3    H2 9405   1.223   5.048   6.273 -0.6908  0.3271  0.6982
 3150TIP3   OH2 9406   6.950   5.282   5.526 -0.3590  0.2472  0.0790
 3150TIP3    H1 9407   6.968   5.316   5.438  0.6397 -1.4802 -0.4281
 3150TIP3    H2 9408   6.864   5.319   5.549 -0.1738  1.5514 -1.1651
 3151TIP3   OH2 9409   8.256   6.407   6.682  0.3212  0.1334  0.0812
 3151TIP3    H1 9410   8.280   6.363   6.764  2.6893 -0.5843 -0.9270
 3151TIP3    H2 9411   8.171   6.370   6.659  0.3833 -0.8913  1.3736
 3152TIP3   OH2 9412   7.992   5.934   1.700 -0.4830 -0.1249 -0.4211
 3152TIP3    H1 9413   8.082   5.901   1.689 -0.8337 -0.8221 -1.4069
 3152TIP3    H2 9414   7.951   5.918   1.615 -0.9501  2.0874 -0.6500
 3153TIP3   OH2 9415   3.891   4.004   6.251 -0.4086  0.6328 -0.4880
 3153TIP3    H1 9416   3.812   4.017   6.199 -1.1147 -0.0497  0.3866
 3153TIP3    H2 9417   3.859   3.976   6.337  0.8210 -0.7732 -0.4609
 3154TIP3   OH2 9418   5.923   2.205   0.138 -0.2028  0.5440  0.3672
 3154TIP3    H1 9419   5.927   2.120   0.094 -1.1155  0.5855  0.1907
 3154TIP3    H2 9420   5.947   2.268   0.070  0.2540  0.4462  0.4379
 3155TIP3   OH2 9421   2.668   5.520   1.678 -0.5193 -0.1859  0.3346
 3155TIP3    H1 9422   2.695   5.588   1.616 -2.0770 -1.4459 -1.9155
 3155TIP3    H2 9423   2.749   5.494   1.722  0.5544  1.2881 -0.6579
 3156TIP3   OH2 9424   1.188   2.406   1.278 -0.5114  0.2872  0.1863
 3156TIP3    H1 9425   1.225   2.490   1.304  1.0674 -0.7965  1.6673
 3156TIP3    H2 9426   1.099   2.407   1.312 -0.6945  1.5479 -0.2775
 3157TIP3   OH2 9427   2.260   4.023   6.264  0.3561 -0.0114 -0.5470
 3157TIP3    H1 9428   2.240   4.092   6.201 -0.0998  0.0539 -0.3331
 3157TIP3    H2 9429   2.298   4.069   6.339  1.3248 -0.1327 -0.9452
 3158TIP3   OH2 9430   1.489   7.403   6.746 -0.3998 -0.4562 -0.1133
 3158TIP3    H1 9431   1.495   7.474   6.683  0.6108 -0.9395 -0.5883
 3158TIP3    H2 9432   1.398   7.405   6.776  0.0406  2.3080  1.4020
 3159TIP3   OH2 9433   3.088   4.355   4.442  0.0304 -0.3376 -0.0013
 3159TIP3    H1 9434   3.070   4.431   4.386  1.4388 -0.2369 -0.3511
 3159TIP3    H2 9435   3.005   4.306   4.443  0.1944 -0.8729 -2.9989
 3160TIP3   OH2 9436   1.761   6.003   3.225 -0.0954  0.2839  0.6845
 3160TIP3    H1 9437   1.675   5.967   3.246 -0.6305  1.2043  0.1029
 3160TIP3    H2 9438   1.766   6.085   3.273 -0.6582  1.5835 -1.3425
 3161TIP3   OH2 9439   7.529   4.502   4.684  0.1187  0.2011  0.2060
 3161TIP3    H1 9440   7.612   4.457   4.702 -0.0757 -0.2278  0.0215
 3161TIP3    H2 9441   7.553   4.595   4.681  0.4314  0.1683  1.1352
 3162TIP3   OH2 9442   6.397   3.636   2.924 -0.5757  0.2630 -0.7371
 3162TIP3    H1 9443   6.307   3.654   2.953  0.0355  2.4370 -0.0358
 3162TIP3    H2 9444   6.427   3.566   2.981 -1.1752  0.8671  0.3429
 3163TIP3   OH2 9445   6.224   0.753   1.457  0.0745 -0.5354 -0.2047
 3163TIP3    H1 9446   6.295   0.766   1.521  1.3220 -1.6383 -1.3042
 3163TIP3    H2 9447   6.221   0.658   1.444 -1.4115 -0.4766 -0.4209
 3164TIP3   OH2 9448   4.599   2.198   3.789 -0.0023 -0.1819 -0.0113
 3164TIP3    H1 9449   4.547   2.158   3.859  0.8072 -0.9150  0.1852
 3164TIP3    H2 9450   4.624   2.284   3.824 -0.9376  0.1186 -0.0493
 3165TIP3   OH2 9451   4.981   5.278   3.938 -0.1177  0.4242 -0.1451
 3165TIP3    H1 9452   4.966   5.184   3.944  0.2600  0.3870  0.2083
 3165TIP3    H2 9453   5.035   5.288   3.860  1.6179  0.1295  0.9769
 3166TIP3   OH2 9454   3.508   5.485   4.169 -0.0295 -0.4104 -0.4678
 3166TIP3    H1 9455   3.476   5.459   4.082 -0.8365 -0.6099 -0.1244
 3166TIP3    H2 9456   3.480   5.414   4.227  0.0423 -0.0282  0.0440
 3167TIP3   OH2 9457   6.425   3.088   6.694  0.1627  0.0721 -0.1652
 3167TIP3    H1 9458   6.349   3.130   6.736  0.1912  0.5640 -0.5968
 3167TIP3    H2 9459   6.473   3.160   6.653  0.1322 -0.3933 -1.0487
 3168TIP3   OH2 9460   4.281   3.531   3.409 -0.2691 -0.1210 -0.0247
 3168TIP3    H1 9461   4.335   3.610   3.417 -1.8789  1.4774 -3.0028
 3168TIP3    H2 9462   4.299   3.499   3.320 -0.7571 -2.3090  0.6020
 3169TIP3   OH2 9463   6.240   1.348   2.955 -0.3901 -0.1773  0.0977
 3169TIP3    H1 9464   6.151   1.338   2.920  0.1249 -0.3426 -1.2354
 3169TIP3    H2 9465   6.297   1.323   2.882  0.7843  2.0271  0.1744
 3170TIP3   OH2 9466   3.027   0.344   5.435 -0.1441 -0.2924  0.4951
 3170TIP3    H1 9467   3.025   0.282   5.508 -0.3690  0.7858  1.4387
 3170TIP3    H2 9468   3.082   0.416   5.467 -1.4649  0.8908  0.2030
 3171TIP3   OH2 9469   0.325   1.413   0.683 -0.3731  0.1177  0.4627
 3171TIP3    H1 9470   0.369   1.498   0.673 -0.0130  0.2001  2.3657
 3171TIP3    H2 9471   0.352   1.382   0.770 -0.1033 -2.2069 -0.3870
 3172TIP3   OH2 9472   6.926   1.970   4.220  0.3581  0.1673  0.8352
 3172TIP3    H1 9473   6.938   1.879   4.194  0.9264  0.2151  0.9171
 3172TIP3    H2 9474   6.835   1.990   4.197  0.5557 -0.0875 -0.1853
 3173TIP3   OH2 9475   6.632   3.252   5.758  0.3719 -0.0467  0.1003
 3173TIP3    H1 9476   6.582   3.332   5.778 -0.2459  0.2165 -2.1775
 3173TIP3    H2 9477   6.570   3.197   5.711  0.3724 -2.5290  2.7388
 3174TIP3   OH2 9478   4.987   3.653   5.325  0.0270 -0.3052  0.4636
 3174TIP3    H1 9479   5.076   3.687   5.316 -0.0845 -0.4064 -1.3441
 3174TIP3    H2 9480   4.936   3.703   5.262 -0.6653 -1.9639 -0.3682
 3175TIP3   OH2 9481   3.733   6.696   6.510 -0.5301  0.0176 -0.0258
 3175TIP3    H1 9482   3.669   6.741   6.455 -1.0972  1.2501  1.5430
 3175TIP3    H2 9483   3.799   6.762   6.531 -0.0624 -0.5546  0.3731
 3176TIP3   OH2 9484   1.478   7.025   6.223  0.0415 -0.1116 -0.1822
 3176TIP3    H1 9485   1.515   6.974   6.151 -0.3156  0.9806 -1.1721
 3176TIP3    H2 9486   1.515   7.113   6.212 -2.0436  0.7652 -0.6239
 3177TIP3   OH2 9487   6.243   3.224   5.961 -0.0290  0.3306 -0.1115
 3177TIP3    H1 9488   6.236   3.252   6.052 -1.8695 -1.7653  0.4786
 3177TIP3    H2 9489   6.313   3.159   5.961 -1.3356 -1.1220  0.2606
 3178TIP3   OH2 9490   5.355   2.937   2.736  0.0622 -0.5665 -0.5172
 3178TIP3    H1 9491   5.416   2.957   2.665  1.7681 -1.7565  0.5209
 3178TIP3    H2 9492   5.387   2.855   2.773 -1.1965 -0.3673  1.1592
 3179TIP3   OH2 9493   0.495   3.547   3.486 -0.6981  0.0086  0.3125
 3179TIP3    H1 9494   0.472   3.640   3.488 -1.5595 -0.1449 -0.9487
 3179TIP3    H2 9495   0.440   3.507   3.554  0.3754  0.5329  1.5260
 3180TIP3   OH2 9496   5.320   7.729   1.261 -0.0888 -0.2858  0.0114
 3180TIP3    H1 9497   5.274   7.653   1.296 -1.3225  0.3315 -0.2092
 3180TIP3    H2 9498   5.314   7.719   1.166 -1.1379  0.5686 -0.0326
 3181TIP3   OH2 9499   5.281   0.190   1.070 -0.4389  0.2450 -0.0750
 3181TIP3    H1 9500   5.276   0.177   0.975 -1.0323 -0.5224  0.0466
 3181TIP3    H2 9501   5.374   0.196   1.089 -0.2175 -1.3187 -0.5052
 3182TIP3   OH2 9502   4.373   2.144   6.390  0.1845  0.1599  0.1684
 3182TIP3    H1 9503   4.315   2.072   6.366  0.2930  0.7665 -2.1275
 3182TIP3    H2 9504   4.321   2.223   6.376  0.5405  0.6135  1.2690
 3183TIP3   OH2 9505   4.828   3.434   5.195 -0.4714  0.3707  0.3264
 3183TIP3    H1 9506   4.878   3.495   5.141 -0.1720 -0.9188 -0.9014
 3183TIP3    H2 9507   4.845   3.462   5.285 -0.0187  1.8249 -0.1768
 3184TIP3   OH2 9508   6.660   4.530   0.982  0.0877  0.2234  0.4681
 3184TIP3    H1 9509   6.654   4.434   0.977 -1.1239  0.3176 -0.2504
 3184TIP3    H2 9510   6.572   4.561   0.960  0.8960  1.5511 -1.1338
 3185TIP3   OH2 9511   3.633   1.813   2.251  0.1963  0.0719 -0.3789
 3185TIP3    H1 9512   3.607   1.888   2.197 -1.2133 -1.0597 -1.3558
 3185TIP3    H2 9513   3.559   1.801   2.312  0.3272 -0.6273 -0.3545
 3186TIP3   OH2 9514   0.341   3.190   2.536  0.4944 -0.5010 -0.4934
 3186TIP3    H1 9515   0.380   3.213   2.620  1.2453 -1.3628 -0.5925
 3186TIP3    H2 9516   0.336   3.272   2.488 -2.7019  0.6570  1.4363
 3187TIP3   OH2 9517   7.488   7.451   6.701 -0.5565 -0.5029  0.1774
 3187TIP3    H1 9518   7.506   7.363   6.668 -1.6457 -0.4947 -0.5038
 3187TIP3    H2 9519   7.392   7.453   6.711 -0.5962  0.7492 -0.2763
 3188TIP3   OH2 9520   1.571   3.565   0.393 -0.2167  0.0715  0.3389
 3188TIP3    H1 9521   1.593   3.526   0.308  1.1638 -0.8882  1.1044
 3188TIP3    H2 9522   1.530   3.495   0.442 -0.6099  0.5030  0.6405
 3189TIP3   OH2 9523   2.011   0.835   3.308 -0.5422  0.4570  0.3536
 3189TIP3    H1 9524   2.105   0.820   3.307 -0.7254 -0.8250  0.3929
 3189TIP3    H2 9525   1.977   0.772   3.372 -1.5467  0.0417 -0.5489
 3190TIP3   OH2 9526   2.336   4.478   3.427 -0.0990 -0.1438  0.1565
 3190TIP3    H1 9527   2.374   4.556   3.386  0.9498 -1.1371 -0.8144
 3190TIP3    H2 9528   2.267   4.513   3.483  0.8099  1.5532  0.3044
 3191TIP3   OH2 9529   8.217   4.591   3.285  0.2662  0.1766 -0.0635
 3191TIP3    H1 9530   8.287   4.643   3.325 -0.7742  1.9172 -0.4090
 3191TIP3    H2 9531   8.136   4.635   3.311 -0.5458  0.4130 -2.6402
 3192TIP3   OH2 9532   5.452   4.631   4.379 -0.1263  0.2076 -0.3408
 3192TIP3    H1 9533   5.439   4.689   4.454  1.4083  0.9429 -0.5969
 3192TIP3    H2 9534   5.441   4.543   4.415 -0.6364  0.5898  0.4694
 3193TIP3   OH2 9535   7.235   1.256   5.304  0.1895 -0.5517  0.4055
 3193TIP3    H1 9536   7.150   1.300   5.301 -0.8156 -2.2068  2.1817
 3193TIP3    H2 9537   7.220   1.171   5.262  0.8468 -0.9926  1.0306
 3194TIP3   OH2 9538   3.224   2.090   3.586 -0.1459  0.3838 -0.2183
 3194TIP3    H1 9539   3.257   2.071   3.498 -2.1289 -0.5193 -0.8306
 3194TIP3    H2 9540   3.162   2.162   3.573  0.6946  1.3117  0.7208
 3195TIP3   OH2 9541   7.407   4.335   5.938 -0.4519  0.0927  0.0691
 3195TIP3    H1 9542   7.405   4.318   5.844 -1.3400  1.4727 -0.1955
 3195TIP3    H2 9543   7.499   4.332   5.962 -0.3284 -2.5165 -0.3583
 3196TIP3   OH2 9544   5.628   0.064   3.045  0.0586  0.0566  0.2935
 3196TIP3    H1 9545   5.637   0.110   3.128 -1.8590  1.5596 -0.2794
 3196TIP3    H2 9546   5.609   0.133   2.981  0.3036 -1.1974 -1.1840
 3197TIP3   OH2 9547   7.934   0.362   3.112  0.0502 -0.3111 -0.3817
 3197TIP3    H1 9548   7.857   0.362   3.170  1.3607  1.0385  1.5057
 3197TIP3    H2 9549   7.902   0.398   3.030 -1.6946 -1.3770 -0.2101
 3198TIP3   OH2 9550   6.931   2.662   1.370 -0.1807 -0.3133 -0.1263
 3198TIP3    H1 9551   6.890   2.700   1.448  1.4836  0.8643  0.2299
 3198TIP3    H2 9552   7.010   2.619   1.403 -0.0174 -0.7288 -1.0370
 3199TIP3   OH2 9553   8.187   2.386   5.111  0.6026 -0.1076 -0.2548
 3199TIP3    H1 9554   8.252   2.439   5.065 -0.2966  0.0010 -1.4274
 3199TIP3    H2 9555   8.190   2.301   5.068  0.6500 -0.4082  0.3323
 3200TIP3   OH2 9556   5.434   3.170   2.306  0.0826  0.1305 -0.1459
 3200TIP3    H1 9557   5.485   3.195   2.230 -0.3349 -1.7256 -1.1160
 3200TIP3    H2 9558   5.392   3.087   2.280 -0.5262 -0.2577  1.8914
 3201TIP3   OH2 9559   2.681   5.504   0.218  0.5457 -0.9097 -0.6318
 3201TIP3    H1 9560   2.663   5.410   0.214 -2.7071 -0.5443  1.8709
 3201TIP3    H2 9561   2.762   5.511   0.268  0.8441 -2.3331 -0.8676
 3202TIP3   OH2 9562   1.153   0.877   2.238 -0.3660  0.1145  0.1060
 3202TIP3    H1 9563   1.247   0.875   2.216 -0.5882 -0.0041 -0.8967
 3202TIP3    H2 9564   1.142   0.805   2.300  0.1424 -0.1296 -0.0736
 3203TIP3   OH2 9565   4.160   7.276   3.428  0.5159 -0.5965  0.3217
 3203TIP3    H1 9566   4.254   7.256   3.425  0.4902 -0.6510 -0.2113
 3203TIP3    H2 9567   4.128   7.253   3.341 -0.0891 -1.0571  0.6593
 3204TIP3   OH2 9568   1.370   4.788   6.384 -0.0796  0.5254 -0.3548
 3204TIP3    H1 9569   1.314   4.861   6.408  0.0174 -0.1969  2.3310
 3204TIP3    H2 9570   1.339   4.715   6.438  1.2914 -0.8242 -1.2960
 3205TIP3   OH2 9571   3.394   7.174   5.593  0.2226  0.0602 -0.2944
 3205TIP3    H1 9572   3.450   7.252   5.588 -1.5337  1.2961 -1.4332
 3205TIP3    H2 9573   3.314   7.205   5.635  0.5456 -1.8336  1.9278
 3206TIP3   OH2 9574   3.907   0.120   4.413  0.5056 -0.2458  0.2091
 3206TIP3    H1 9575   3.999   0.146   4.413  1.0582 -1.9422  2.2299
 3206TIP3    H2 9576   3.868   0.167   4.486  0.3801 -1.3630  0.8851
 3207TIP3   OH2 9577   2.194   0.686   1.084 -0.2077  1.0651 -0.3748
 3207TIP3    H1 9578   2.155   0.635   1.014  0.2516  0.8521 -0.4838
 3207TIP3    H2 9579   2.276   0.719   1.047 -0.0698  1.1384 -0.0125
 3208TIP3   OH2 9580   5.969   6.022   3.297  0.1204 -0.5287 -0.0488
 3208TIP3    H1 9581   5.926   6.071   3.367  0.6759  1.8080 -1.2432
 3208TIP3    H2 9582   6.028   5.962   3.343 -0.2457  0.2446  1.5098
 3209TIP3   OH2 9583   6.195   1.872   2.364  0.2613 -0.0842 -0.0964
 3209TIP3    H1 9584   6.105   1.870   2.396 -0.1214  3.2915 -0.5869
 3209TIP3    H2 9585   6.187   1.851   2.271  0.2246 -1.4208  0.1997
 3210TIP3   OH2 9586   5.817   4.706   2.618  0.6738  0.6807  0.5490
 3210TIP3    H1 9587   5.827   4.801   2.627 -0.7269  0.7137  2.2614
 3210TIP3    H2 9588   5.757   4.682   2.688 -0.0801 -1.2946 -0.6971
 3211TIP3   OH2 9589   1.878   6.401   3.039 -0.0287  0.5229  0.6335
 3211TIP3    H1 9590   1.852   6.420   2.949 -1.9769  1.0511  1.2765
 3211TIP3    H2 9591   1.870   6.306   3.047 -0.7974  0.5786  0.5304
 3212TIP3   OH2 9592   6.189   6.815   5.896  0.6082  0.7018 -0.0081
 3212TIP3    H1 9593   6.181   6.720   5.892  0.4592  0.7569 -2.5831
 3212TIP3    H2 9594   6.236   6.839   5.816 -0.8624  2.9364 -0.2954
 3213TIP3   OH2 9595   5.425   4.700  -0.019 -0.0631  0.3188  0.0295
 3213TIP3    H1 9596   5.335   4.726  -0.002 -0.1389  0.5044 -0.6497
 3213TIP3    H2 9597   5.475   4.744   0.051 -0.3593  1.1912 -0.2926
 3214TIP3   OH2 9598   0.764   5.224   3.028 -0.5344  0.0940 -0.1907
 3214TIP3    H1 9599   0.850   5.182   3.041  0.5527  1.9779 -0.9768
 3214TIP3    H2 9600   0.738   5.196   2.940 -0.1082  0.5313 -0.4627
 3215TIP3   OH2 9601   7.299   1.551   5.552  0.6341 -0.4868  0.3983
 3215TIP3    H1 9602   7.378   1.501   5.570  0.7534 -0.9786 -1.3094
 3215TIP3    H2 9603   7.329   1.640   5.536  0.5619 -0.1269  2.0894
 3216TIP3   OH2 9604   1.284   6.330   2.474  0.5955 -0.0391  0.4108
 3216TIP3    H1 9605   1.308   6.260   2.535  0.5843  0.6340  1.1999
 3216TIP3    H2 9606   1.355   6.394   2.480 -0.2370  0.8504  1.0178
 3217TIP3   OH2 9607   8.041   1.148   0.868  0.3387  0.3261 -0.7329
 3217TIP3    H1 9608   8.065   1.171   0.958  0.7722 -0.6257 -0.5916
 3217TIP3    H2 9609   8.011   1.058   0.874  0.3373  0.2709 -1.5398
 3218TIP3   OH2 9610   3.283   6.003   6.089 -0.2687  0.2929 -0.4130
 3218TIP3    H1 9611   3.272   6.095   6.065 -0.6207 -0.2627 -2.6023
 3218TIP3    H2 9612   3.194   5.967   6.088 -0.0519 -0.2584 -0.4212
 3219TIP3   OH2 9613   2.643   4.436   6.206  0.1285 -0.3110 -0.4692
 3219TIP3    H1 9614   2.640   4.477   6.120 -0.8313  1.0656  0.1738
 3219TIP3    H2 9615   2.616   4.346   6.191  0.6832 -0.2859 -1.7009
 3220TIP3   OH2 9616   1.824   3.047   0.156  0.4936 -0.2788 -0.1160
 3220TIP3    H1 9617   1.738   3.058   0.197  0.4856  0.1661 -0.2534
 3220TIP3    H2 9618   1.810   3.069   0.064  1.1802  1.7633  0.2285
 3221TIP3   OH2 9619   2.774   3.933   0.347 -0.1348  0.2545 -0.1233
 3221TIP3    H1 9620   2.847   3.943   0.286 -0.3102 -1.8487 -0.7383
 3221TIP3    H2 9621   2.716   4.006   0.327  0.8456  0.8183 -1.0020
 3222TIP3   OH2 9622   6.810   5.248   1.118 -0.6814  0.3646 -0.4055
 3222TIP3    H1 9623   6.902   5.269   1.100 -1.0884  0.5734 -2.4430
 3222TIP3    H2 9624   6.803   5.154   1.103 -0.8068  0.3501 -0.2575
 3223TIP3   OH2 9625   0.391   4.095   0.450  0.1067 -0.1386 -0.2729
 3223TIP3    H1 9626   0.455   4.140   0.506  0.7236 -0.5324 -0.6559
 3223TIP3    H2 9627   0.440   4.022   0.411 -1.2897 -2.2522  1.6926
 3224TIP3   OH2 9628   0.772   0.760   6.657  0.0244 -0.0727  0.5626
 3224TIP3    H1 9629   0.703   0.712   6.610  0.8903 -0.2687 -0.5420
 3224TIP3    H2 9630   0.850   0.748   6.603  0.9854 -0.0458  1.9159
 3225TIP3   OH2 9631   0.686   2.162   0.455  0.0875  0.0483  0.2413
 3225TIP3    H1 9632   0.745   2.231   0.483  1.3312 -0.3088 -1.3864
 3225TIP3    H2 9633   0.671   2.179   0.362  0.3759 -1.8228 -0.1793
 3226TIP3   OH2 9634   6.962   7.461   4.155  0.4693 -0.0468 -0.0641
 3226TIP3    H1 9635   6.894   7.440   4.219 -0.8601  1.4327 -0.9070
 3226TIP3    H2 9636   6.998   7.376   4.130 -1.9879 -1.0513 -0.5417
 3227TIP3   OH2 9637   2.629   4.572   3.237  0.1626 -0.0400 -0.4931
 3227TIP3    H1 9638   2.553   4.595   3.290  1.0391 -0.2498  0.9239
 3227TIP3    H2 9639   2.669   4.656   3.214 -0.7294  0.0899 -1.6364
 3228TIP3   OH2 9640   6.494   7.493   4.132  0.6357  0.7819  0.1076
 3228TIP3    H1 9641   6.569   7.523   4.081 -0.7220  3.2560 -0.5828
 3228TIP3    H2 9642   6.434   7.456   4.067  0.1681  1.1631  0.3258
 3229TIP3   OH2 9643   5.562   3.779   3.226 -0.5038 -0.1322  0.0435
 3229TIP3    H1 9644   5.525   3.723   3.294  0.0276  0.0096  0.4592
 3229TIP3    H2 9645   5.621   3.838   3.274 -0.3374  0.1522 -0.5076
 3230TIP3   OH2 9646   0.240   5.194   3.283  0.3632 -0.5948 -0.5477
 3230TIP3    H1 9647   0.264   5.165   3.372 -0.3913  0.5808  0.0600
 3230TIP3    H2 9648   0.323   5.193   3.235  0.7841 -1.2723  0.1574
 3231TIP3   OH2 9649   2.872   6.851   1.305 -0.6368  0.1204  0.2310
 3231TIP3    H1 9650   2.934   6.798   1.355 -1.1443  0.7009  1.5020
 3231TIP3    H2 9651   2.787   6.812   1.323 -0.8900  0.6939  0.2786
 3232TIP3   OH2 9652   8.001   4.378   6.632 -0.4032  0.1177 -0.1523
 3232TIP3    H1 9653   8.081   4.339   6.666  0.7496  3.2891  1.1610
 3232TIP3    H2 9654   7.950   4.400   6.710 -1.3932  0.4411 -0.8686
 3233TIP3   OH2 9655   1.213   4.742   1.289 -0.4799 -0.1202 -0.2031
 3233TIP3    H1 9656   1.241   4.767   1.377 -1.7851  1.7341 -0.2440
 3233TIP3    H2 9657   1.218   4.647   1.287 -0.4715 -0.1962  1.8885
 3234TIP3   OH2 9658   7.586   2.931   5.993 -0.4444 -0.0735 -0.0755
 3234TIP3    H1 9659   7.626   2.942   5.907  0.6104  0.1552  0.4314
 3234TIP3    H2 9660   7.588   2.837   6.008  0.5282 -0.0141  0.2239
 3235TIP3   OH2 9661   7.792   4.941   4.603  0.5414  0.0637  0.4309
 3235TIP3    H1 9662   7.830   5.024   4.632 -2.5949  2.0954 -0.7375
 3235TIP3    H2 9663   7.740   4.964   4.526 -0.7124 -2.9617  0.2328
 3236TIP3   OH2 9664   5.945   3.171   0.594 -0.7884  0.3942 -0.4284
 3236TIP3    H1 9665   5.940   3.179   0.689 -1.7185 -0.0880 -0.4262
 3236TIP3    H2 9666   6.034   3.200   0.572 -0.9826  1.7391  0.4488
 3237TIP3   OH2 9667   6.940   2.855   2.191 -0.3219 -0.0410  0.2182
 3237TIP3    H1 9668   7.033   2.876   2.183 -0.5459  1.1642  0.5664
 3237TIP3    H2 9669   6.937   2.760   2.200  1.0405  0.0530  2.4518
 3238TIP3   OH2 9670   0.085   6.465   4.578  0.2580  0.0410  0.2718
 3238TIP3    H1 9671   0.001   6.479   4.623 -0.2263 -0.1346 -0.5599
 3238TIP3    H2 9672   0.104   6.548   4.535 -0.7899 -0.6515 -1.6458
 3239TIP3   OH2 9673   7.925   6.672   4.770  0.5061  0.8244  0.2506
 3239TIP3    H1 9674   7.905   6.716   4.687 -0.8097 -0.8941 -0.4073
 3239TIP3    H2 9675   7.982   6.733   4.816 -0.7583  2.9337 -0.8338
 3240TIP3   OH2 9676   6.442   6.642   4.336 -0.2630 -0.0145  0.4375
 3240TIP3    H1 9677   6.362   6.591   4.350 -1.2077  0.2239 -3.1697
 3240TIP3    H2 9678   6.509   6.577   4.315  0.7134 -0.2314  3.6384
 3241TIP3   OH2 9679   2.552   7.068   1.155  0.1304  0.0668  0.0354
 3241TIP3    H1 9680   2.517   7.047   1.068 -0.7320 -2.0757  0.8583
 3241TIP3    H2 9681   2.545   6.987   1.205  3.6505  0.2932  1.1710
 3242TIP3   OH2 9682   1.351   6.694   4.263 -0.6527 -0.1658 -0.4976
 3242TIP3    H1 9683   1.446   6.684   4.262 -0.3873  1.6858  1.0065
 3242TIP3    H2 9684   1.332   6.747   4.185 -0.2048  1.0218  0.1779
 3243TIP3   OH2 9685   2.271   3.206   4.939  0.1961 -0.4290  0.5009
 3243TIP3    H1 9686   2.273   3.117   4.903  1.1586 -0.6164  1.0007
 3243TIP3    H2 9687   2.226   3.197   5.024 -1.6290 -0.0663 -0.3688
 3244TIP3   OH2 9688   5.460   1.913   3.443 -0.1820 -0.1237 -0.2075
 3244TIP3    H1 9689   5.544   1.928   3.488 -1.2937  1.1495  1.6060
 3244TIP3    H2 9690   5.422   1.838   3.489 -1.1712  0.9656  0.8322
 3245TIP3   OH2 9691   7.700   5.683   5.022  0.1082  0.3664  0.4896
 3245TIP3    H1 9692   7.642   5.713   5.093  0.2292  0.3505  0.5964
 3245TIP3    H2 9693   7.674   5.592   5.007  0.1260  0.3492  0.5599
 3246TIP3   OH2 9694   4.056   7.670   0.612  0.3390 -0.0808 -0.0537
 3246TIP3    H1 9695   4.145   7.646   0.639 -0.4692 -1.5052  1.5543
 3246TIP3    H2 9696   4.027   7.597   0.557  0.6610  1.1063 -1.8880
 3247TIP3   OH2 9697   2.722   6.499   4.468 -0.3269  0.1778 -0.2563
 3247TIP3    H1 9698   2.631   6.523   4.448 -0.3762  1.3933  1.2555
 3247TIP3    H2 9699   2.714   6.434   4.538 -0.0309 -0.0771 -0.4580
 3248TIP3   OH2 9700   1.197   2.677  -0.026 -0.3718 -0.2758  0.1496
 3248TIP3    H1 9701   1.176   2.723   0.056 -0.2250 -1.7830  1.0718
 3248TIP3    H2 9702   1.283   2.639  -0.011  0.3159  0.6361 -1.2805
 3249TIP3   OH2 9703   3.779   2.229   3.471 -0.3823 -0.3741 -0.4003
 3249TIP3    H1 9704   3.709   2.171   3.442 -1.0425 -1.0408  2.2951
 3249TIP3    H2 9705   3.858   2.175   3.467 -0.3029 -0.2018 -1.6111
 3250TIP3   OH2 9706   0.646   2.563   0.392 -0.0847  0.3659 -0.0935
 3250TIP3    H1 9707   0.572   2.504   0.406 -0.6420  1.2230  0.6747
 3250TIP3    H2 9708   0.618   2.618   0.319 -0.2298  0.7338  0.2401
 3251TIP3   OH2 9709   4.835   1.926   6.412 -0.0309 -0.1599  0.1218
 3251TIP3    H1 9710   4.755   1.925   6.464  0.0065 -0.4432  0.1741
 3251TIP3    H2 9711   4.807   1.909   6.322 -0.1592  0.8729 -0.0421
 3252TIP3   OH2 9712   5.502   2.459   5.393  0.2382 -0.3397  0.3421
 3252TIP3    H1 9713   5.463   2.375   5.417  1.4642 -1.4254 -1.2550
 3252TIP3    H2 9714   5.490   2.514   5.471 -4.3241 -0.5338  0.0739
 3253TIP3   OH2 9715   6.961   6.166   0.456 -0.2294 -0.1597  0.2588
 3253TIP3    H1 9716   7.032   6.148   0.518 -0.3364 -2.4734 -0.1789
 3253TIP3    H2 9717   6.966   6.094   0.392 -1.4687  0.9525 -1.1850
 3254TIP3   OH2 9718   7.678   1.655   5.957 -0.2691  0.1995 -0.1849
 3254TIP3    H1 9719   7.737   1.587   5.926  0.8089  0.5502  1.0336
 3254TIP3    H2 9720   7.724   1.697   6.030 -1.8606  0.7360  0.5710
 3255TIP3   OH2 9721   2.223   6.268   0.385 -0.1771 -0.4241 -0.0239
 3255TIP3    H1 9722   2.161   6.281   0.456  2.0389 -0.7681  2.0994
 3255TIP3    H2 9723   2.181   6.203   0.328 -2.3675  0.4879  0.4562
 3256TIP3   OH2 9724   4.542   5.211   5.137 -0.1004 -0.4643  0.1202
 3256TIP3    H1 9725   4.489   5.195   5.059  0.4301  0.1883 -0.3878
 3256TIP3    H2 9726   4.577   5.125   5.160 -1.0166 -0.8252  0.2045
 3257TIP3   OH2 9727   4.965   5.852   1.064  0.0394 -0.3875  0.0056
 3257TIP3    H1 9728   4.915   5.798   1.004  1.8560 -1.3329 -0.7403
 3257TIP3    H2 9729   4.978   5.934   1.017 -0.0239 -0.4817 -0.1768
 3258TIP3   OH2 9730   0.525   4.395   3.956 -0.1991  0.5232  0.1624
 3258TIP3    H1 9731   0.430   4.400   3.951 -0.3763  0.8112  2.7059
 3258TIP3    H2 9732   0.542   4.314   4.004  0.7173  1.4884  1.5329
 3259TIP3   OH2 9733   5.468   0.598   3.140 -0.0102  0.7427  0.0468
 3259TIP3    H1 9734   5.385   0.644   3.130 -1.5609 -1.6901  0.9100
 3259TIP3    H2 9735   5.444   0.508   3.161  2.8555  0.3290  2.1863
 3260TIP3   OH2 9736   1.156   1.048   3.228  0.3877  0.2383 -1.0712
 3260TIP3    H1 9737   1.103   1.078   3.301  0.4788  1.8283 -1.6127
 3260TIP3    H2 9738   1.245   1.044   3.263  0.0708 -1.6796 -0.3770
 3261TIP3   OH2 9739   6.193   3.774   2.612 -0.2074 -0.3853 -0.1350
 3261TIP3    H1 9740   6.289   3.774   2.623 -0.2334  0.4452  0.1036
 3261TIP3    H2 9741   6.175   3.691   2.567  0.5421 -0.9119  0.4981
 3262TIP3   OH2 9742   1.807   5.104   6.569  0.4684 -0.2999  0.4764
 3262TIP3    H1 9743   1.785   5.026   6.518  1.4771  0.6606 -1.5270
 3262TIP3    H2 9744   1.898   5.092   6.596 -0.0235 -0.7563  2.0520
 3263TIP3   OH2 9745   7.049   6.948   1.123 -0.1301 -0.0409 -0.1098
 3263TIP3    H1 9746   7.022   7.035   1.153  2.0520  0.5399  0.3641
 3263TIP3    H2 9747   7.006   6.888   1.184 -0.7510  0.7589  0.2709
 3264TIP3   OH2 9748   7.652   3.919   1.648 -0.2764  0.3411 -0.5232
 3264TIP3    H1 9749   7.702   3.879   1.576  0.4746 -0.0826  0.2128
 3264TIP3    H2 9750   7.596   3.984   1.606  1.3754  1.2909 -1.3169
 3265TIP3   OH2 9751   1.964   2.130   4.846 -0.4049 -0.2390 -0.1888
 3265TIP3    H1 9752   1.919   2.130   4.930  0.1255 -3.2772  0.1858
 3265TIP3    H2 9753   1.908   2.077   4.789 -0.0403  0.6064 -1.3826
 3266TIP3   OH2 9754   6.692   0.928   1.877 -0.3502 -0.0049  0.3061
 3266TIP3    H1 9755   6.654   0.994   1.819 -0.9110 -0.3143  0.3262
 3266TIP3    H2 9756   6.752   0.978   1.933 -0.7834  0.4930  0.3309
 3267TIP3   OH2 9757   7.943   2.367   0.087 -0.0168  0.4955  0.0959
 3267TIP3    H1 9758   7.881   2.439   0.082 -0.9268 -0.3416 -2.0881
 3267TIP3    H2 9759   7.897   2.299   0.137 -0.3417  0.3727 -0.3630
 3268TIP3   OH2 9760   0.288   6.932   4.970 -0.2172  0.0268  0.2816
 3268TIP3    H1 9761   0.319   6.845   4.943 -0.9275 -0.5361  1.2122
 3268TIP3    H2 9762   0.283   6.982   4.889  1.7987 -0.2668 -0.0774
 3269TIP3   OH2 9763   5.887   5.302   6.529  0.0671  0.0417  0.2003
 3269TIP3    H1 9764   5.838   5.347   6.598  0.4450  1.0366 -0.1620
 3269TIP3    H2 9765   5.895   5.212   6.560 -0.1526  0.3676  1.2449
 3270TIP3   OH2 9766   1.211   5.353   0.260  0.6723 -0.0025  0.5563
 3270TIP3    H1 9767   1.305   5.352   0.275  0.5793 -1.5154  1.2262
 3270TIP3    H2 9768   1.200   5.315   0.173  0.6294 -0.9428  0.9620
 3271TIP3   OH2 9769   6.605   6.567   3.661 -0.1833  0.1533  0.4952
 3271TIP3    H1 9770   6.584   6.500   3.596 -0.4144 -0.5883  1.3095
 3271TIP3    H2 9771   6.701   6.572   3.660 -0.1283 -0.6861  0.9024
 3272TIP3   OH2 9772   5.964   4.827   4.042  0.3459  0.8297  0.6364
 3272TIP3    H1 9773   5.875   4.797   4.022  0.3062  1.6799 -0.6619
 3272TIP3    H2 9774   6.020   4.751   4.026 -0.0203  0.6703  0.0775
 3273TIP3   OH2 9775   0.420   0.329   2.034 -0.4123  0.3473  0.3500
 3273TIP3    H1 9776   0.409   0.419   2.001 -0.0947 -0.0858 -0.9853
 3273TIP3    H2 9777   0.501   0.298   1.994 -0.1035 -0.2881  1.4232
 3274TIP3   OH2 9778   0.276   2.800   1.280 -0.4266 -0.2489  0.2900
 3274TIP3    H1 9779   0.190   2.834   1.254 -0.9224 -1.3540  0.4381
 3274TIP3    H2 9780   0.263   2.769   1.370 -0.2055 -1.5410 -0.1178
 3275TIP3   OH2 9781   4.967   7.458   5.548  0.0180  0.0661 -0.0246
 3275TIP3    H1 9782   4.993   7.545   5.577 -2.6045  1.6529 -1.9693
 3275TIP3    H2 9783   4.967   7.405   5.627 -1.2457  2.6279  1.8283
 3276TIP3   OH2 9784   5.183   7.623   6.650  0.0356  0.0940 -0.7029
 3276TIP3    H1 9785   5.189   7.529   6.633  0.9838  0.1329 -0.6294
 3276TIP3    H2 9786   5.258   7.660   6.603 -1.1072  0.9888 -1.9031
 3277TIP3   OH2 9787   3.344   0.127   1.736  0.1056 -0.3010 -0.4405
 3277TIP3    H1 9788   3.437   0.143   1.750 -0.0641  0.8276 -0.4495
 3277TIP3    H2 9789   3.309   0.108   1.823 -0.1259  2.0938  0.0601
 3278TIP3   OH2 9790   7.789   2.088   2.314  0.5869  0.1426  0.3297
 3278TIP3    H1 9791   7.853   2.158   2.324 -0.3192  1.0020  0.2741
 3278TIP3    H2 9792   7.704   2.133   2.311 -0.2144 -1.0656  2.3106
 3279TIP3   OH2 9793   0.645   5.504   4.539  0.0837 -0.0240  0.0056
 3279TIP3    H1 9794   0.620   5.564   4.609  2.5303  0.5951  0.4571
 3279TIP3    H2 9795   0.575   5.440   4.536  0.1527 -0.4618  3.4943
 3280TIP3   OH2 9796   6.332   3.174   3.913  0.3053 -0.3944  0.3501
 3280TIP3    H1 9797   6.301   3.084   3.923 -0.7506 -0.6022 -3.1049
 3280TIP3    H2 9798   6.267   3.227   3.960 -1.1333 -1.3202 -0.4856
 3281TIP3   OH2 9799   2.322   6.542   1.634  0.3881 -0.1896  0.1788
 3281TIP3    H1 9800   2.278   6.585   1.707  0.7068  2.0017 -0.8502
 3281TIP3    H2 9801   2.253   6.494   1.589 -0.1547 -0.0536  0.8438
 3282TIP3   OH2 9802   1.079   3.232   3.328 -0.3424 -0.6135  0.2224
 3282TIP3    H1 9803   1.041   3.218   3.241  0.0799 -2.3962  0.2902
 3282TIP3    H2 9804   1.061   3.151   3.376  0.1465  0.0259  1.5453
 3283TIP3   OH2 9805   5.679   0.918   1.712 -0.5090  0.2269  0.1568
 3283TIP3    H1 9806   5.668   0.828   1.741 -0.6981 -0.3872 -1.7033
 3283TIP3    H2 9807   5.616   0.928   1.641 -0.1832  1.6954  0.0487
 3284TIP3   OH2 9808   5.672   7.383   3.186 -0.3956 -0.0050  0.5022
 3284TIP3    H1 9809   5.604   7.334   3.140  0.0349  0.1533 -0.3312
 3284TIP3    H2 9810   5.695   7.327   3.261 -1.5285  0.0153  0.8810
 3285TIP3   OH2 9811   7.018   2.087   6.661 -0.6142  0.0143  0.0183
 3285TIP3    H1 9812   6.977   2.075   6.747  0.4329  2.4508  0.9583
 3285TIP3    H2 9813   7.068   2.007   6.647  0.9717  0.3995  2.7667
 3286TIP3   OH2 9814   0.545   1.755   5.480  0.0509 -0.0133 -0.5522
 3286TIP3    H1 9815   0.597   1.821   5.524 -1.7212  0.7176  0.5309
 3286TIP3    H2 9816   0.495   1.803   5.414 -0.0918 -0.5351 -0.8370
 3287TIP3   OH2 9817   2.341   5.028   3.438 -0.0446 -0.1490  0.1300
 3287TIP3    H1 9818   2.258   5.030   3.390 -0.9139  1.1468  1.5941
 3287TIP3    H2 9819   2.391   5.102   3.404  0.3650 -0.6881 -0.4654
 3288TIP3   OH2 9820   3.687   4.691   1.506 -0.0491 -0.1412  1.1046
 3288TIP3    H1 9821   3.664   4.598   1.504  0.8875 -0.3692 -0.0203
 3288TIP3    H2 9822   3.624   4.732   1.447  0.6381 -0.3521  0.1954
 3289TIP3   OH2 9823   5.980   1.424   3.900  0.2723 -0.6920  0.2801
 3289TIP3    H1 9824   6.022   1.356   3.954  2.6548 -0.2972 -0.9143
 3289TIP3    H2 9825   5.956   1.492   3.962  0.8294 -1.2357  1.1321
 3290TIP3   OH2 9826   7.644   4.361   1.960  0.1660 -0.5435 -0.6495
 3290TIP3    H1 9827   7.683   4.445   1.937  0.4031 -0.5326 -0.2207
 3290TIP3    H2 9828   7.598   4.377   2.042 -0.9489 -0.5019 -1.2673
 3291TIP3   OH2 9829   5.289   5.519   6.705  0.1801  0.1650 -0.1782
 3291TIP3    H1 9830   5.340   5.440   6.728  0.9198  0.2254 -1.5294
 3291TIP3    H2 9831   5.312   5.582   6.773 -0.1528 -0.6602  0.7307
 3292TIP3   OH2 9832   4.729   1.347   0.808  0.0220  0.3233 -0.1136
 3292TIP3    H1 9833   4.651   1.371   0.759 -0.8705  0.3901  1.2573
 3292TIP3    H2 9834   4.708   1.371   0.899  0.8430 -1.4632  0.6020
 3293TIP3   OH2 9835   6.335   0.798   5.986  0.2100  0.0845 -0.9162
 3293TIP3    H1 9836   6.324   0.843   5.902  0.9597 -0.3845 -1.2706
 3293TIP3    H2 9837   6.247   0.765   6.007  0.1611 -0.4162 -1.8735
 3294TIP3   OH2 9838   0.687   6.380   0.191  0.3572 -0.0624 -0.1345
 3294TIP3    H1 9839   0.616   6.445   0.193  1.2255  0.8957  0.9465
 3294TIP3    H2 9840   0.685   6.345   0.102 -2.0130 -0.6979  0.1090
 3295TIP3   OH2 9841   1.690   4.439   4.775 -0.1592  0.3128 -0.1912
 3295TIP3    H1 9842   1.665   4.415   4.864 -0.4525 -2.2456 -0.8727
 3295TIP3    H2 9843   1.609   4.431   4.724  0.1716  0.9650 -0.8450
 3296TIP3   OH2 9844   1.758   5.646   5.235 -0.0159  0.4669  0.3124
 3296TIP3    H1 9845   1.677   5.696   5.248  0.1950  1.1467 -0.8858
 3296TIP3    H2 9846   1.826   5.713   5.226  0.5186 -0.0818  0.2197
 3297TIP3   OH2 9847   2.920   7.166   4.636  0.0213  0.0887 -0.6806
 3297TIP3    H1 9848   2.921   7.203   4.548  0.0169  0.0776 -0.6852
 3297TIP3    H2 9849   2.990   7.101   4.636 -1.5058 -1.6487 -1.4248
 3298TIP3   OH2 9850   4.552   2.173   4.742 -0.0092  0.2715 -0.3656
 3298TIP3    H1 9851   4.568   2.080   4.759 -0.5324 -0.0116 -1.2960
 3298TIP3    H2 9852   4.633   2.217   4.768 -0.2282 -0.2600  1.3552
 3299TIP3   OH2 9853   1.786   0.104   1.091  0.2729  0.0963 -0.0978
 3299TIP3    H1 9854   1.832   0.180   1.126 -0.6619  0.5887  0.0871
 3299TIP3    H2 9855   1.846   0.031   1.108  2.2472  1.0572 -2.3864
 3300TIP3   OH2 9856   5.282   3.993   5.715  0.1718 -0.2390  0.0910
 3300TIP3    H1 9857   5.202   4.027   5.676  1.0421  0.4408 -1.1657
 3300TIP3    H2 9858   5.284   4.029   5.804 -1.3890 -1.0739  0.4945
 3301TIP3   OH2 9859   7.967   6.146   4.483  0.0947  0.2225  0.0290
 3301TIP3    H1 9860   7.975   6.057   4.517 -1.4756 -0.2539 -0.7276
 3301TIP3    H2 9861   7.984   6.137   4.389 -0.8473  0.5670 -0.1857
 3302TIP3   OH2 9862   6.281   4.587   2.164  0.4004  0.3395 -0.8187
 3302TIP3    H1 9863   6.213   4.521   2.181  0.3110 -0.3116 -3.2489
 3302TIP3    H2 9864   6.343   4.576   2.236 -1.7694  0.6256  1.2218
 3303TIP3   OH2 9865   7.479   5.722   0.536  0.8035 -0.7484 -0.4831
 3303TIP3    H1 9866   7.387   5.733   0.560 -0.1193 -2.7123 -2.6857
 3303TIP3    H2 9867   7.490   5.776   0.458  1.7469  0.0097  0.1519
 3304TIP3   OH2 9868   6.873   4.433   3.489 -0.1973  0.2296 -0.4458
 3304TIP3    H1 9869   6.893   4.380   3.412 -1.4945 -1.0235  0.0390
 3304TIP3    H2 9870   6.913   4.386   3.562  0.6391  1.1768 -0.2571
 3305TIP3   OH2 9871   7.147   4.782   5.424  0.4420 -0.4869 -0.0703
 3305TIP3    H1 9872   7.233   4.821   5.437 -0.0330  0.5993 -0.0340
 3305TIP3    H2 9873   7.159   4.719   5.353  0.8460  1.1709 -1.5522
 3306TIP3   OH2 9874   3.299   6.731   2.785 -0.2765  0.2377 -0.7811
 3306TIP3    H1 9875   3.226   6.683   2.747  0.3764  0.1127 -1.9444
 3306TIP3    H2 9876   3.299   6.707   2.878 -2.0751  0.7455 -0.6114
 3307TIP3   OH2 9877   5.099   1.884   1.954  0.3188 -0.1335 -0.5146
 3307TIP3    H1 9878   5.045   1.813   1.919 -0.6443  0.0898  0.4540
 3307TIP3    H2 9879   5.188   1.864   1.925  0.2033 -2.1484  0.3448
 3308TIP3   OH2 9880   0.942   2.623   2.560  0.0411 -0.2196  0.4139
 3308TIP3    H1 9881   0.858   2.584   2.584 -1.4445  1.4988 -1.6527
 3308TIP3    H2 9882   0.920   2.693   2.499  2.9179  1.0143  0.6180
 3309TIP3   OH2 9883   7.755   0.579   0.986 -0.2584 -0.4587  0.0908
 3309TIP3    H1 9884   7.749   0.606   0.894 -1.3758 -0.6926  0.0756
 3309TIP3    H2 9885   7.709   0.649   1.034 -1.9034 -1.5539  0.1968
 3310TIP3   OH2 9886   0.427   1.700   3.534 -0.1839 -0.4603 -0.0240
 3310TIP3    H1 9887   0.475   1.646   3.597 -0.8966 -2.5044 -1.1661
 3310TIP3    H2 9888   0.378   1.761   3.588  0.1799 -1.3389  1.3455
 3311TIP3   OH2 9889   4.760   4.671   4.766 -1.0291 -0.3269  0.2352
 3311TIP3    H1 9890   4.782   4.613   4.839 -0.4678 -0.3188  0.0760
 3311TIP3    H2 9891   4.695   4.621   4.715  1.5729 -2.1583 -1.5419
 3312TIP3   OH2 9892   7.902   6.785   5.293  0.2696  0.0633 -0.5977
 3312TIP3    H1 9893   7.871   6.723   5.227  0.6200 -0.1223 -0.5938
 3312TIP3    H2 9894   7.997   6.775   5.291  0.3447  0.7627 -0.7583
 3313TIP3   OH2 9895   1.897   0.963   2.770  0.4809  0.2007 -0.2256
 3313TIP3    H1 9896   1.987   0.961   2.736  0.6171  1.4656 -0.0137
 3313TIP3    H2 9897   1.897   0.901   2.843  1.3415  0.5821  0.1164
 3314TIP3   OH2 9898   5.597   2.351   4.614 -0.1559 -0.2912 -0.2097
 3314TIP3    H1 9899   5.533   2.304   4.667 -1.0847  0.2514 -0.8165
 3314TIP3    H2 9900   5.553   2.365   4.530  0.9893 -0.4339 -0.8541
 3315TIP3   OH2 9901   0.093   0.524   2.698  0.4725  0.0787  0.0896
 3315TIP3    H1 9902   0.097   0.615   2.725  1.9197  0.6541 -1.8181
 3315TIP3    H2 9903   0.038   0.524   2.620 -0.2510 -0.8435  0.5787
 3316TIP3   OH2 9904   0.517   3.002   0.584 -0.6459 -0.0824  0.1710
 3316TIP3    H1 9905   0.547   2.968   0.668 -0.5386  0.8805  0.5313
 3316TIP3    H2 9906   0.442   2.946   0.561  0.1013 -1.1514  0.2814
 3317TIP3   OH2 9907   4.291   1.640   4.256  0.4462  0.2429  0.4741
 3317TIP3    H1 9908   4.227   1.695   4.211  1.0902  0.7081  0.1176
 3317TIP3    H2 9909   4.281   1.662   4.349 -0.3149 -0.1234  0.4906
 3318TIP3   OH2 9910   0.922   2.286   3.872  0.6451  0.6715  0.5263
 3318TIP3    H1 9911   0.931   2.220   3.941 -0.5674 -1.8146 -1.5771
 3318TIP3    H2 9912   0.841   2.332   3.894 -1.1337 -1.8090 -0.5090
 3319TIP3   OH2 9913   3.816   4.934   6.760  0.5565  0.4537  0.2529
 3319TIP3    H1 9914   3.801   4.939   6.665  0.7918 -0.7626  0.1393
 3319TIP3    H2 9915   3.744   4.984   6.798 -1.7084 -2.0641 -0.4349
 3320TIP3   OH2 9916   1.936   2.263   1.213 -0.1225 -0.4749 -0.0442
 3320TIP3    H1 9917   1.974   2.177   1.194  0.6699  0.2366 -2.0077
 3320TIP3    H2 9918   2.007   2.311   1.255 -1.2257 -1.3764  3.0889
 3321TIP3   OH2 9919   1.347   5.695   4.337 -0.1315 -0.2359 -0.2932
 3321TIP3    H1 9920   1.419   5.650   4.380 -0.4178  0.0248  0.4707
 3321TIP3    H2 9921   1.289   5.626   4.306 -0.0685 -0.4209  0.0020
 3322TIP3   OH2 9922   3.371   1.799   2.643  0.4728  0.1746  0.3589
 3322TIP3    H1 9923   3.278   1.812   2.665  0.3450  0.5934 -0.3861
 3322TIP3    H2 9924   3.413   1.783   2.727 -0.4908 -1.4424  0.5904
 3323TIP3   OH2 9925   3.935   0.460   5.841  0.5708 -0.5740 -0.0135
 3323TIP3    H1 9926   4.021   0.478   5.803  0.7913 -1.5467 -0.0009
 3323TIP3    H2 9927   3.925   0.365   5.835 -1.3053 -0.3527 -1.7219
 3324TIP3   OH2 9928   5.829   3.183   3.564  0.2484  0.1532 -0.3545
 3324TIP3    H1 9929   5.900   3.245   3.579  1.0615 -0.7946 -0.1542
 3324TIP3    H2 9930   5.845   3.113   3.627 -0.3196 -0.5405 -0.9662
 3325TIP3   OH2 9931   2.706   1.766   4.208  0.2235 -0.7686 -0.0766
 3325TIP3    H1 9932   2.783   1.769   4.264 -0.0083 -0.4836  0.2305
 3325TIP3    H2 9933   2.660   1.686   4.233 -0.8171  0.2331  1.4129
 3326TIP3   OH2 9934   4.205   2.948   0.611 -0.3656  0.2244  0.3355
 3326TIP3    H1 9935   4.245   3.027   0.648  3.3572 -0.4594 -1.6786
 3326TIP3    H2 9936   4.168   2.975   0.528  1.0697 -0.0881 -0.4396
 3327TIP3   OH2 9937   6.470   6.896   2.723  0.1815  0.7728 -0.6887
 3327TIP3    H1 9938   6.524   6.818   2.735 -2.2648 -1.0196 -0.3964
 3327TIP3    H2 9939   6.508   6.962   2.781  1.6800 -0.5426 -0.1144
 3328TIP3   OH2 9940   4.136   1.013   5.083 -0.3814  0.3074 -0.9020
 3328TIP3    H1 9941   4.099   0.943   5.138  1.8671  1.0021  1.7330
 3328TIP3    H2 9942   4.063   1.074   5.071 -1.3645 -0.6340  0.0187
 3329TIP3   OH2 9943   3.462   3.530   6.715 -0.2286  0.0548 -0.0361
 3329TIP3    H1 9944   3.526   3.464   6.688 -2.0932 -2.9237  2.2200
 3329TIP3    H2 9945   3.406   3.540   6.639  2.2885  2.1762 -1.7965
 3330TIP3   OH2 9946   7.521   3.227   0.121 -0.0323  0.2031 -0.5349
 3330TIP3    H1 9947   7.491   3.160   0.182  0.4827 -0.2631 -0.7804
 3330TIP3    H2 9948   7.445   3.284   0.108 -0.2891  0.0326  0.1594
 3331TIP3   OH2 9949   6.588   3.983   3.834 -1.0973  0.0609 -0.2036
 3331TIP3    H1 9950   6.619   3.979   3.744  0.5595 -0.9494  0.3649
 3331TIP3    H2 9951   6.554   4.072   3.844  2.1269  1.5029 -0.7864
 3332TIP3   OH2 9952   6.244   1.560   2.068  0.4856  0.1684  0.5458
 3332TIP3    H1 9953   6.251   1.655   2.061 -0.8569  0.3627  1.5580
 3332TIP3    H2 9954   6.196   1.534   1.989 -1.4078  0.6453  1.4972
 3333TIP3   OH2 9955   0.661   5.673   3.350  0.0261  0.0157  0.2896
 3333TIP3    H1 9956   0.663   5.614   3.276 -3.4412  1.4316 -1.1517
 3333TIP3    H2 9957   0.693   5.621   3.424 -0.6082 -2.8456 -1.3370
 3334TIP3   OH2 9958   5.238   7.512   3.752 -0.1597 -0.0358  0.3127
 3334TIP3    H1 9959   5.161   7.556   3.717 -0.5126 -0.8595  0.0311
 3334TIP3    H2 9960   5.287   7.581   3.798 -1.2676  0.4160  0.8403
 3335TIP3   OH2 9961   7.674   3.015   6.479 -0.0046 -0.1702 -0.4812
 3335TIP3    H1 9962   7.693   2.967   6.398  0.1002 -0.6350 -0.1839
 3335TIP3    H2 9963   7.760   3.038   6.514 -0.0408 -0.3477 -0.2770
 3336TIP3   OH2 9964   6.006   2.573   6.625  0.5793 -0.3393  0.2053
 3336TIP3    H1 9965   6.064   2.640   6.661  0.7387  0.1976 -1.0226
 3336TIP3    H2 9966   6.062   2.496   6.616  0.4889 -0.5523  1.2597
 3337TIP3   OH2 9967   4.058   0.442   3.092 -0.4799  0.0415 -0.1597
 3337TIP3    H1 9968   4.122   0.379   3.057 -2.1485 -1.7720 -0.0960
 3337TIP3    H2 9969   3.988   0.443   3.028 -1.1011  0.8324  0.5135
 3338TIP3   OH2 9970   0.321   6.404   4.462  0.2458 -0.1538 -0.2283
 3338TIP3    H1 9971   0.360   6.480   4.503  1.4833 -1.2764  0.7779
 3338TIP3    H2 9972   0.230   6.405   4.489  0.0810  1.3024 -0.7739
 3339TIP3   OH2 9973   3.430   3.062   0.832 -0.1326 -0.0927 -0.2097
 3339TIP3    H1 9974   3.509   3.047   0.884 -0.4193 -1.0446 -0.0206
 3339TIP3    H2 9975   3.360   3.020   0.882 -0.9643  1.6079  0.1408
 3340TIP3   OH2 9976   7.801   2.785   0.037  0.0831 -0.4083  0.2694
 3340TIP3    H1 9977   7.770   2.873   0.015 -2.1435 -1.5019 -1.4469
 3340TIP3    H2 9978   7.896   2.792   0.033 -0.0085  1.9936  0.6087
 3341TIP3   OH2 9979   3.569   5.970   0.236 -0.0793 -0.3342 -0.3850
 3341TIP3    H1 9980   3.565   5.905   0.166  1.3627 -0.9364  0.0629
 3341TIP3    H2 9981   3.590   5.920   0.315  0.6045  0.6128  0.0489
 3342TIP3   OH2 9982   8.243   5.573   4.294  0.0464  0.0655  0.2645
 3342TIP3    H1 9983   8.205   5.485   4.299  1.2848 -0.4948  0.0450
 3342TIP3    H2 9984   8.231   5.608   4.383  1.4382 -1.1471  0.9716
 3343TIP3   OH2 9985   2.122   2.551   1.993  0.0864  0.0977 -0.0443
 3343TIP3    H1 9986   2.086   2.465   2.017 -0.8362  0.4748 -0.0149
 3343TIP3    H2 9987   2.130   2.598   2.076 -1.1268  0.6633 -0.2218
 3344TIP3   OH2 9988   0.583   2.260   6.318 -0.3764 -0.0758 -0.1590
 3344TIP3    H1 9989   0.586   2.310   6.237  2.1749  0.3585  0.1388
 3344TIP3    H2 9990   0.551   2.173   6.292  0.4806  0.0258 -1.6577
 3345TIP3   OH2 9991   5.817   6.578   1.425  0.8057 -0.4013 -0.2422
 3345TIP3    H1 9992   5.751   6.614   1.484  0.6297 -1.4714  0.2236
 3345TIP3    H2 9993   5.897   6.625   1.447  0.3829  0.3681 -0.2910
 3346TIP3   OH2 9994   7.910   7.261   4.159 -0.3326  0.5420 -0.3602
 3346TIP3    H1 9995   7.843   7.231   4.220  0.7656  1.9598  1.6654
 3346TIP3    H2 9996   7.899   7.356   4.155  0.9941  0.7047 -0.6865
 3347TIP3   OH2 9997   5.273   7.078   6.597 -0.1851  0.0219  0.0896
 3347TIP3    H1 9998   5.329   7.023   6.542  0.1862  0.0944  0.3967
 3347TIP3    H2 9999   5.184   7.060   6.566 -0.0556 -0.6662  0.1117
 3348TIP3   OH210000   3.064   6.474   2.071  0.2145  0.4613  0.3487
 3348TIP3    H110001   3.143   6.420   2.076 -0.8429 -1.0739  1.3746
 3348TIP3    H210002   3.086   6.553   2.121  1.1243  0.0925  0.5577
 3349TIP3   OH210003   7.856   0.148   1.984 -0.1881  0.3953 -0.8047
 3349TIP3    H110004   7.844   0.230   1.937  1.3885  1.2408  0.1794
 3349TIP3    H210005   7.848   0.171   2.076 -1.1493 -0.8462 -0.5450
 3350TIP3   OH210006   6.275   0.296   2.443 -0.4755 -0.1979 -0.0970
 3350TIP3    H110007   6.356   0.343   2.459 -0.0536 -0.5075 -1.2354
 3350TIP3    H210008   6.254   0.314   2.352 -1.1110 -0.9966 -0.1235
 3351TIP3   OH210009   1.223   2.438   1.763 -0.0007  0.1027 -0.1167
 3351TIP3    H110010   1.208   2.418   1.856  1.0236 -0.3587 -0.0416
 3351TIP3    H210011   1.309   2.401   1.744 -0.0582  0.4842 -1.1730
 3352TIP3   OH210012   4.726   3.339   0.344  0.1985  0.1951 -0.3767
 3352TIP3    H110013   4.676   3.297   0.274 -2.3774 -0.0410  1.4529
 3352TIP3    H210014   4.669   3.408   0.377  0.6872 -0.5531  2.3249
 3353TIP3   OH210015   6.527   3.799   0.955 -0.1474 -0.0028 -0.4695
 3353TIP3    H110016   6.463   3.870   0.950 -0.5329 -0.2929  0.1453
 3353TIP3    H210017   6.559   3.788   0.866 -1.3750 -0.2281 -0.8957
 3354TIP3   OH210018   1.462   1.526   3.374  0.0804 -0.2825 -0.6543
 3354TIP3    H110019   1.379   1.541   3.330  0.2344 -0.8444 -1.1505
 3354TIP3    H210020   1.515   1.479   3.310  0.0025 -1.9064  0.4245
 3355TIP3   OH210021   3.324   6.687   1.974 -0.0147 -0.0747  0.0481
 3355TIP3    H110022   3.331   6.598   2.010  0.2903  0.2802  0.9013
 3355TIP3    H210023   3.321   6.674   1.879 -1.2679 -1.0753  0.1855
 3356TIP3   OH210024   8.018   3.249   5.720 -0.0925 -0.1472 -0.4853
 3356TIP3    H110025   8.083   3.283   5.659 -0.7190 -0.8332 -1.5514
 3356TIP3    H210026   8.067   3.188   5.776  0.2885 -0.2705 -0.9476
 3357TIP3   OH210027   0.920   2.214   6.750 -1.0151 -0.5623 -1.0028
 3357TIP3    H110028   0.918   2.299   6.706  2.8100  0.7148  0.9286
 3357TIP3    H210029   0.868   2.227   6.829  0.0965  0.2509 -0.3811
 3358TIP3   OH210030   4.282   7.725   2.998  0.5418 -0.0705  0.1525
 3358TIP3    H110031   4.251   7.670   3.070  0.5123  1.5929  1.4356
 3358TIP3    H210032   4.320   7.662   2.936 -1.5222 -1.7853  0.4692
 3359TIP3   OH210033   5.871   1.389   3.319  0.2092 -0.0864 -0.3133
 3359TIP3    H110034   5.910   1.472   3.348 -1.9425  1.1659 -0.8252
 3359TIP3    H210035   5.867   1.335   3.398  2.7216 -0.2318 -0.1978
 3360TIP3   OH210036   2.551   1.504   6.604 -0.3081  0.4901  0.4770
 3360TIP3    H110037   2.644   1.522   6.586 -0.8716  1.9599 -1.3882
 3360TIP3    H210038   2.520   1.461   6.525 -1.2384  0.0837  1.0595
 3361TIP3   OH210039   8.023   5.340   5.169  0.0180 -0.1324 -0.3774
 3361TIP3    H110040   7.972   5.319   5.091 -0.1931  0.2203 -0.3379
 3361TIP3    H210041   8.094   5.276   5.169 -0.9787 -1.2904  0.1159
 3362TIP3   OH210042   7.101   5.848   5.404 -0.1363  0.5735 -0.4499
 3362TIP3    H110043   7.194   5.833   5.417 -0.3988 -0.1961  0.7340
 3362TIP3    H210044   7.066   5.862   5.493 -1.2456  0.1070 -0.7879
 3363TIP3   OH210045   7.904   5.188   2.573 -0.2519 -0.2250 -0.2522
 3363TIP3    H110046   7.972   5.130   2.605 -0.2209 -0.2106 -0.2933
 3363TIP3    H210047   7.900   5.259   2.638  0.1745  0.0806 -0.5552
 3364TIP3   OH210048   0.867   4.656   4.226  0.4662  0.2644  0.1128
 3364TIP3    H110049   0.930   4.715   4.267  0.6575  0.5608 -0.5850
 3364TIP3    H210050   0.782   4.694   4.248  0.5348 -0.0063  0.8636
 3365TIP3   OH210051   5.546   2.187   3.714 -0.3424  0.2584  0.6989
 3365TIP3    H110052   5.540   2.249   3.787  0.9274 -0.2176  1.2332
 3365TIP3    H210053   5.596   2.233   3.647 -0.1491  0.1383  0.7575
 3366TIP3   OH210054   4.773   6.920   2.194 -0.6053 -0.3328  0.8648
 3366TIP3    H110055   4.738   6.846   2.144 -0.4668 -0.7488  1.3733
 3366TIP3    H210056   4.700   6.982   2.199 -0.5537 -0.1920 -0.0283
 3367TIP3   OH210057   1.184   1.233   6.623 -0.5799  0.1877  0.4977
 3367TIP3    H110058   1.145   1.314   6.654 -0.4054  1.2031 -1.7585
 3367TIP3    H210059   1.172   1.235   6.528  1.8045 -1.1325  0.0880
 3368TIP3   OH210060   1.688   5.032   0.517  0.3588  0.5188 -0.6292
 3368TIP3    H110061   1.656   4.944   0.539  1.1930  0.5244  0.7112
 3368TIP3    H210062   1.639   5.090   0.575  0.5841  0.8286 -0.7480
 3369TIP3   OH210063   1.462   1.861   3.418 -0.5907 -0.3482  0.1674
 3369TIP3    H110064   1.508   1.821   3.493  1.6271  0.8245 -0.4742
 3369TIP3    H210065   1.371   1.832   3.428  0.3647 -3.5408  1.0820
 3370TIP3   OH210066   3.405   6.192   1.137 -0.3741  0.4499 -0.3516
 3370TIP3    H110067   3.463   6.117   1.150 -0.8232  0.3302  1.1088
 3370TIP3    H210068   3.419   6.248   1.213 -3.3880 -0.4463  1.0308
 3371TIP3   OH210069   6.285   3.416   5.409  0.1740 -0.0234 -0.1995
 3371TIP3    H110070   6.224   3.356   5.367  0.0226 -0.3892  0.5333
 3371TIP3    H210071   6.370   3.372   5.402  0.0865 -0.2612  0.2091
 3372TIP3   OH210072   5.158   5.579   3.259 -0.1468 -0.4300  0.6322
 3372TIP3    H110073   5.144   5.650   3.197  1.7885  0.3902  1.0772
 3372TIP3    H210074   5.087   5.588   3.323 -0.7839  0.1581 -0.1439
 3373TIP3   OH210075   2.892   7.532   1.258  0.4394 -0.2382 -0.0840
 3373TIP3    H110076   2.851   7.576   1.184 -0.6361 -0.5776  0.2920
 3373TIP3    H210077   2.902   7.441   1.230  2.7392  0.1916 -0.8940
 3374TIP3   OH210078   1.110   3.104   2.942 -0.5403 -0.1498 -0.6166
 3374TIP3    H110079   1.170   3.150   2.883  0.3640 -0.0969  0.3203
 3374TIP3    H210080   1.090   3.168   3.010 -0.5923 -0.6121 -0.1968
 3375TIP3   OH210081   7.414   3.742   0.994  0.6366  0.1851  0.0097
 3375TIP3    H110082   7.360   3.692   1.055  0.4749  0.3238 -0.0192
 3375TIP3    H210083   7.504   3.724   1.022  0.5438  1.0641  0.9388
 3376TIP3   OH210084   4.718   0.168   1.598 -0.2489 -0.3267 -0.4493
 3376TIP3    H110085   4.752   0.107   1.533  0.1967  0.1562 -0.6751
 3376TIP3    H210086   4.786   0.173   1.664 -0.7791 -0.9570  0.1621
 3377TIP3   OH210087   0.780   4.438   6.639 -0.3947 -0.1772 -0.0926
 3377TIP3    H110088   0.864   4.397   6.657 -0.4290 -0.8253 -1.3233
 3377TIP3    H210089   0.748   4.394   6.560 -1.6732  0.3775  0.0915
 3378TIP3   OH210090   3.778   2.840   5.717  0.3910  0.0587 -0.3090
 3378TIP3    H110091   3.825   2.788   5.652  1.3639 -0.3275  0.6759
 3378TIP3    H210092   3.710   2.782   5.750  1.7320 -0.7959  1.0846
 3379TIP3   OH210093   5.811   6.256   0.886 -0.1252 -0.0611  0.3995
 3379TIP3    H110094   5.745   6.322   0.866 -0.6002 -1.1950 -2.2370
 3379TIP3    H210095   5.851   6.236   0.801  2.0982 -1.0020  1.5901
 3380TIP3   OH210096   7.204   0.392   0.398 -0.2272 -0.1344  0.0341
 3380TIP3    H110097   7.270   0.334   0.436 -0.5630 -0.1758  0.5626
 3380TIP3    H210098   7.140   0.404   0.468 -0.0345  1.0755  0.0199
 3381TIP3   OH210099   6.082   2.765   4.508 -0.2056  0.1075  0.4396
 3381TIP3    H110100   6.037   2.849   4.510 -0.1756  0.1100  1.1323
 3381TIP3    H210101   6.043   2.719   4.434  0.7023  1.2365 -0.7833
 3382TIP3   OH210102   6.394   2.240   6.193 -0.2352 -0.1157 -0.2577
 3382TIP3    H110103   6.412   2.332   6.177 -0.1854 -0.0049  0.4382
 3382TIP3    H210104   6.451   2.215   6.266 -0.5368 -0.5912 -0.1737
 3383TIP3   OH210105   0.653   5.577   4.242  0.1555  0.6883 -0.3530
 3383TIP3    H110106   0.642   5.505   4.180  1.6781  1.2384 -1.2968
 3383TIP3    H210107   0.609   5.546   4.322 -1.7079 -0.0901 -1.6138
 3384TIP3   OH210108   4.132   5.868   4.295  0.1362  0.1038  0.1872
 3384TIP3    H110109   4.072   5.794   4.307  0.2448  0.2712  2.0234
 3384TIP3    H210110   4.216   5.827   4.271 -0.1064 -0.2876 -0.0010
 3385TIP3   OH210111   7.064   2.698   0.245  0.1091 -0.4873 -0.2011
 3385TIP3    H110112   7.004   2.767   0.217  0.9643  0.4143  0.1467
 3385TIP3    H210113   7.135   2.744   0.288  0.5770 -1.6133  0.2624
 3386TIP3   OH210114   0.985   4.550   1.079  0.0963  0.2355 -0.2148
 3386TIP3    H110115   1.038   4.618   1.037 -1.1607  1.0765 -0.4882
 3386TIP3    H210116   0.958   4.493   1.008 -0.5441  0.6366 -0.3033
 3387TIP3   OH210117   2.167   6.374   6.652  0.1212 -0.8135 -0.0852
 3387TIP3    H110118   2.230   6.437   6.687 -0.9726 -0.3299  1.1232
 3387TIP3    H210119   2.203   6.288   6.674  0.6206 -0.5545  0.1217
 3388TIP3   OH210120   1.994   1.533   2.880  0.2785  0.5028 -0.0199
 3388TIP3    H110121   2.089   1.525   2.876  0.1603 -0.6779 -1.2870
 3388TIP3    H210122   1.973   1.600   2.814  0.2410  0.8740  0.3681
 3389TIP3   OH210123   3.131   4.548   3.557 -0.3835 -0.2189 -0.1559
 3389TIP3    H110124   3.173   4.466   3.529 -2.4229 -0.8428 -1.7424
 3389TIP3    H210125   3.127   4.542   3.652  0.4376 -1.4969 -0.1761
 3390TIP3   OH210126   3.717   6.688   0.128 -0.0885  0.7406 -0.5051
 3390TIP3    H110127   3.764   6.699   0.210  0.3578 -1.3720 -0.4287
 3390TIP3    H210128   3.633   6.732   0.142 -0.4678 -0.4812  1.5113
 3391TIP3   OH210129   7.793   7.728   0.837  0.6056  0.5603 -0.1020
 3391TIP3    H110130   7.846   7.801   0.804 -1.6688  2.3597 -0.0441
 3391TIP3    H210131   7.746   7.695   0.761 -0.0907  0.6883  0.2599
 3392TIP3   OH210132   5.096   4.255   2.133 -0.5451 -0.1297 -0.1622
 3392TIP3    H110133   5.123   4.339   2.095 -0.7659  0.7470  1.4857
 3392TIP3    H210134   5.001   4.256   2.128 -0.5227 -0.5533 -0.6786
 3393TIP3   OH210135   0.044   0.903   1.808 -0.6154 -0.5488 -1.1428
 3393TIP3    H110136  -0.003   0.831   1.850 -2.1282  1.3763  0.7220
 3393TIP3    H210137   0.119   0.918   1.865 -0.8404 -0.0609 -0.9678
 3394TIP3   OH210138   4.892   0.342   5.024 -0.4913 -0.6026  0.2009
 3394TIP3    H110139   4.981   0.358   5.054 -0.7552 -0.4024  0.9114
 3394TIP3    H210140   4.890   0.375   4.934 -0.2048  0.6349  0.6202
 3395TIP3   OH210141   1.074   6.203   4.862 -0.2752  0.1432  0.3713
 3395TIP3    H110142   0.994   6.177   4.908 -0.4760 -0.1772 -0.1410
 3395TIP3    H210143   1.102   6.283   4.906  0.4727 -1.0263  2.1189
 3396TIP3   OH210144   0.079   1.570   0.651 -0.2681 -0.3704 -0.1543
 3396TIP3    H110145   0.135   1.513   0.704 -0.3583 -0.4021 -0.0937
 3396TIP3    H210146   0.021   1.612   0.713 -0.8250 -0.9136 -0.2883
 3397TIP3   OH210147   5.080   5.367   0.587 -0.1073  0.0755  0.0102
 3397TIP3    H110148   5.103   5.444   0.535  0.0739  0.1282  0.1695
 3397TIP3    H210149   4.987   5.378   0.606  0.6237  2.1516  3.1557
 3398TIP3   OH210150   5.361   6.696   3.492  0.2842 -0.2160 -0.1869
 3398TIP3    H110151   5.286   6.646   3.525  0.1571 -0.0534 -0.2294
 3398TIP3    H210152   5.333   6.788   3.499  0.6829 -0.1245  0.3075
 3399TIP3   OH210153   1.512   1.445   4.431 -0.2589  0.3481  0.4341
 3399TIP3    H110154   1.541   1.390   4.358  0.2356  0.8897  0.2181
 3399TIP3    H210155   1.541   1.399   4.509  1.2478  0.8914  0.2250
 3400TIP3   OH210156   3.188   2.072   0.919  0.3726 -0.6294 -0.3317
 3400TIP3    H110157   3.227   2.117   0.994  0.1997  0.9751 -1.1593
 3400TIP3    H210158   3.097   2.058   0.945  0.2153  0.2608 -0.3485
 3401TIP3   OH210159   6.270   2.055   3.683  0.2287  0.0639 -0.2253
 3401TIP3    H110160   6.193   2.083   3.632  1.2119  1.4246 -1.0282
 3401TIP3    H210161   6.261   2.101   3.766 -0.7763 -1.2552  0.4310
 3402TIP3   OH210162   7.497   5.604   3.050  0.2676 -0.0123  0.6632
 3402TIP3    H110163   7.481   5.654   3.130 -0.1555 -0.7173  1.0278
 3402TIP3    H210164   7.487   5.513   3.076 -1.1455 -0.2248 -0.4753
 3403TIP3   OH210165   3.736   6.368   5.868  0.5285 -0.2775 -0.0176
 3403TIP3    H110166   3.783   6.436   5.917 -1.8000  0.8922  0.7615
 3403TIP3    H210167   3.792   6.291   5.874  1.3830  0.4467  2.6176
 3404TIP3   OH210168   8.133   4.799   0.054 -0.2693 -0.4499 -0.4765
 3404TIP3    H110169   8.039   4.815   0.062 -0.1654  1.3275 -2.1212
 3404TIP3    H210170   8.141   4.704   0.048 -1.7370 -0.7821  1.7014
 3405TIP3   OH210171   7.532   1.056   4.399 -0.4667 -1.0322 -0.6731
 3405TIP3    H110172   7.523   0.991   4.468 -0.2933  0.5313  0.8756
 3405TIP3    H210173   7.625   1.059   4.380 -0.4622 -1.1190 -0.6679
 3406TIP3   OH210174   5.372   2.550   3.982  0.6983  0.0080  0.1828
 3406TIP3    H110175   5.325   2.561   4.065  1.1731  0.9433  0.3470
 3406TIP3    H210176   5.305   2.561   3.915  0.4790  0.2235  0.4329
 3407TIP3   OH210177   6.338   7.676   1.110 -0.1217 -0.2303 -0.3165
 3407TIP3    H110178   6.259   7.646   1.064 -2.0563  0.8467  2.0454
 3407TIP3    H210179   6.325   7.770   1.120  1.4652 -0.0445  0.1572
 3408TIP3   OH210180   3.511   6.832   2.401 -0.4764  0.3943  0.1742
 3408TIP3    H110181   3.445   6.901   2.396  0.4760  1.2209 -2.8162
 3408TIP3    H210182   3.580   6.868   2.457 -0.7926  1.1272  0.0992
 3409TIP3   OH210183   7.044   0.533   2.514  0.0150 -0.4803  0.0869
 3409TIP3    H110184   7.005   0.565   2.595  0.9523  2.2021 -0.4329
 3409TIP3    H210185   7.131   0.504   2.540  0.4822  0.7954  0.0187
 3410TIP3   OH210186   6.281   3.341   2.849 -0.1532  0.0947 -0.1533
 3410TIP3    H110187   6.249   3.334   2.759  0.4786  2.5821 -0.6501
 3410TIP3    H210188   6.334   3.421   2.850  0.2236 -0.0884  2.3374
 3411TIP3   OH210189   6.218   4.065   3.597 -0.0439 -0.1723 -0.0736
 3411TIP3    H110190   6.232   4.147   3.549 -0.7227  1.1860  1.8846
 3411TIP3    H210191   6.303   4.021   3.594  0.3648  0.6256 -1.1066
 3412TIP3   OH210192   5.207   6.025   0.422  0.0562  0.1930 -0.2144
 3412TIP3    H110193   5.248   5.939   0.416  0.5141  0.4408 -0.6814
 3412TIP3    H210194   5.116   6.010   0.395  0.2826 -0.0374 -0.8699
 3413TIP3   OH210195   1.213   0.326   0.325  0.0534  0.6659  0.0513
 3413TIP3    H110196   1.201   0.372   0.242 -1.9064 -1.8387 -1.1975
 3413TIP3    H210197   1.307   0.324   0.338  0.5106  0.3716 -2.6345
 3414TIP3   OH210198   3.827   5.812   6.019 -0.6630 -0.7062  0.5372
 3414TIP3    H110199   3.816   5.858   5.935 -0.4507 -0.7148  0.5029
 3414TIP3    H210200   3.746   5.829   6.066 -1.0439 -1.2284  0.0763
 3415TIP3   OH210201   1.411   7.184   2.625  0.2384  0.8310 -0.6496
 3415TIP3    H110202   1.485   7.236   2.594 -0.6813  1.1553 -2.4198
 3415TIP3    H210203   1.336   7.216   2.574 -0.4691 -1.8101 -1.4136
 3416TIP3   OH210204   4.279   6.427   6.358 -0.4317 -0.1209 -0.4000
 3416TIP3    H110205   4.346   6.370   6.321 -1.2701 -1.0428 -0.5554
 3416TIP3    H210206   4.221   6.368   6.407 -0.4815  0.8018  0.7131
 3417TIP3   OH210207   4.638   1.905   4.757  0.3250  0.1567  0.2883
 3417TIP3    H110208   4.688   1.834   4.716 -1.4343 -0.9514 -0.0679
 3417TIP3    H210209   4.699   1.946   4.818  2.1312 -0.0694 -1.2730
 3418TIP3   OH210210   2.941   7.417   2.506 -0.2381  0.1517  0.0757
 3418TIP3    H110211   2.995   7.421   2.428 -0.8801 -1.4856 -0.4971
 3418TIP3    H210212   3.000   7.387   2.575  0.4674  2.1470  0.4107
 3419TIP3   OH210213   2.858   5.131   2.545 -0.0571  0.2643 -0.6825
 3419TIP3    H110214   2.778   5.085   2.570 -0.7627  1.5844 -0.4252
 3419TIP3    H210215   2.925   5.099   2.606 -1.1559  1.5454  1.2970
 3420TIP3   OH210216   6.217   1.114   0.336 -0.0764  0.3423  0.1505
 3420TIP3    H110217   6.295   1.117   0.282 -0.1326 -0.4323  0.0158
 3420TIP3    H210218   6.217   1.027   0.374 -0.4531  0.6073  0.7844
 3421TIP3   OH210219   0.486   4.456   0.749 -0.0115  0.2259  0.6924
 3421TIP3    H110220   0.470   4.386   0.813 -0.5339  0.0933  0.4183
 3421TIP3    H210221   0.399   4.486   0.723  0.1903  0.0941 -0.1666
 3422TIP3   OH210222   6.963   7.712   0.977  0.2827  0.4875 -0.0232
 3422TIP3    H110223   6.948   7.742   1.067  0.7140  2.8191 -0.6446
 3422TIP3    H210224   6.887   7.745   0.928  0.2743 -0.3717 -0.6002
 3423TIP3   OH210225   2.892   4.726   5.727 -0.4277 -0.2230 -0.0587
 3423TIP3    H110226   2.862   4.637   5.710 -0.1272 -0.0130 -1.8668
 3423TIP3    H210227   2.821   4.782   5.695  0.4103  0.2064 -1.2524
 3424TIP3   OH210228   1.526   1.702   4.549  0.6984  0.6724 -0.1250
 3424TIP3    H110229   1.532   1.617   4.506 -0.1816  0.7350 -0.4001
 3424TIP3    H210230   1.616   1.723   4.574  0.8341 -0.6629  0.6101
 3425TIP3   OH210231   3.578   7.070   6.165  0.6096 -0.4434 -0.0804
 3425TIP3    H110232   3.652   7.130   6.159  0.8827 -0.8145 -0.4710
 3425TIP3    H210233   3.503   7.121   6.132  0.5632  0.1309  0.8820
 3426TIP3   OH210234   1.239   6.491   1.288 -0.1143  0.1691  0.6177
 3426TIP3    H110235   1.293   6.514   1.364 -0.6476  2.3809  0.3784
 3426TIP3    H210236   1.155   6.463   1.325 -0.5738  1.7991  0.8632
 3427TIP3   OH210237   2.626   6.437   3.687 -0.1293  0.2007 -0.1028
 3427TIP3    H110238   2.695   6.428   3.622 -2.0327 -0.3315 -2.1513
 3427TIP3    H210239   2.669   6.479   3.762  2.4964 -0.5816 -1.0662
 3428TIP3   OH210240   7.155   3.266   6.005 -0.4503 -0.3944  0.4052
 3428TIP3    H110241   7.202   3.183   6.003  0.2595 -0.1154  2.4757
 3428TIP3    H210242   7.067   3.244   5.975  0.8685 -0.9208 -3.6116
 3429TIP3   OH210243   7.479   2.819   2.489  0.1260  0.2565 -0.4838
 3429TIP3    H110244   7.446   2.868   2.564  2.2871 -0.4525  1.0619
 3429TIP3    H210245   7.549   2.874   2.454 -1.5993  1.1271 -2.8307
 3430TIP3   OH210246   6.955   2.724   2.595  0.5339  0.2459 -0.1514
 3430TIP3    H110247   7.007   2.691   2.669  0.5443  0.4972 -0.0465
 3430TIP3    H210248   6.990   2.811   2.577 -0.8886  1.0981  0.9764
 3431TIP3   OH210249   0.273   0.115   0.770  0.6441 -0.0018  0.1891
 3431TIP3    H110250   0.207   0.184   0.778 -1.2176 -1.3003 -2.3144
 3431TIP3    H210251   0.247   0.048   0.833 -0.3075 -0.3790 -0.5859
 3432TIP3   OH210252   7.885   5.072   0.521 -0.9480 -0.0382 -0.4054
 3432TIP3    H110253   7.974   5.048   0.497 -1.2092 -0.4813 -0.9690
 3432TIP3    H210254   7.886   5.077   0.616 -0.5580 -1.0329 -0.3396
 3433TIP3   OH210255   0.579   6.701   5.888 -0.0005  0.0672 -0.7192
 3433TIP3    H110256   0.526   6.681   5.965  0.6568 -0.7362 -0.4662
 3433TIP3    H210257   0.590   6.616   5.844  1.1948  0.2010 -0.6917
 3434TIP3   OH210258   5.001   2.266   0.294 -0.0649 -0.2683  0.0910
 3434TIP3    H110259   4.934   2.200   0.309  1.1632 -1.1150  2.4737
 3434TIP3    H210260   4.970   2.342   0.344 -0.1122 -0.0479 -0.2763
 3435TIP3   OH210261   5.348   1.133   0.453 -0.4358 -0.6458 -0.2774
 3435TIP3    H110262   5.370   1.123   0.546 -0.5757 -0.4869 -0.2266
 3435TIP3    H210263   5.298   1.214   0.449  1.8199  0.8249 -0.8652
 3436TIP3   OH210264   1.154   0.353   1.205 -0.1898 -0.6202  0.2985
 3436TIP3    H110265   1.102   0.432   1.225  1.2013 -0.1343  2.2818
 3436TIP3    H210266   1.115   0.319   1.124 -0.8116  2.1273 -0.6825
 3437TIP3   OH210267   5.910   6.807   0.897  0.0570  0.2987  0.2664
 3437TIP3    H110268   5.988   6.760   0.925 -1.0469 -0.1145  2.9740
 3437TIP3    H210269   5.906   6.792   0.802  2.9367 -0.0539  0.1064
 3438TIP3   OH210270   3.811   7.577   1.448 -0.7813 -0.1684  0.1969
 3438TIP3    H110271   3.859   7.501   1.483  0.9946  1.0266  0.4724
 3438TIP3    H210272   3.783   7.549   1.361  2.1060 -0.3503 -0.8022
 3439TIP3   OH210273   7.944   3.448   2.179  0.1322  0.2905 -0.0580
 3439TIP3    H110274   7.961   3.367   2.227 -0.5776 -0.7792 -1.5132
 3439TIP3    H210275   7.868   3.486   2.222 -0.6622 -0.7877 -0.4760
 3440TIP3   OH210276   4.301   0.798   3.882  0.1657  0.8561 -0.4454
 3440TIP3    H110277   4.303   0.767   3.792  0.1076  2.6153 -1.1009
 3440TIP3    H210278   4.220   0.849   3.888  0.2643  0.9156  0.5486
 3441TIP3   OH210279   4.792   3.194   6.328 -0.2954  0.1641  0.0352
 3441TIP3    H110280   4.839   3.118   6.294  0.7396  0.8622 -0.1427
 3441TIP3    H210281   4.848   3.268   6.305  2.4817  0.6005  6.2150
 3442TIP3   OH210282   5.762   5.296   4.413  0.1132  0.5623  0.4102
 3442TIP3    H110283   5.724   5.285   4.325  2.0381  0.7418 -0.5125
 3442TIP3    H210284   5.729   5.222   4.463  1.2942 -1.2867 -1.3826
 3443TIP3   OH210285   0.298   0.003   1.387  0.4072 -0.2796  0.1275
 3443TIP3    H110286   0.253   0.027   1.306 -0.7875 -0.6839  0.6448
 3443TIP3    H210287   0.387  -0.019   1.360  1.1564  3.0823 -0.6125
 3444TIP3   OH210288   6.109   3.818   3.890  0.2204  0.1155  0.1228
 3444TIP3    H110289   6.016   3.829   3.869  0.3365  0.6262 -0.1348
 3444TIP3    H210290   6.149   3.790   3.808  0.0749 -1.4800  0.5632
 3445TIP3   OH210291   4.007   3.583   5.165 -0.0506  0.2256  0.4911
 3445TIP3    H110292   3.945   3.521   5.205  1.2219 -2.3915 -1.3306
 3445TIP3    H210293   3.969   3.603   5.080  0.5906  0.2587  0.2089
 3446TIP3   OH210294   6.261   7.227   5.331  0.3257  0.1431  0.0055
 3446TIP3    H110295   6.275   7.284   5.407  0.9020 -0.6502  0.5011
 3446TIP3    H210296   6.268   7.138   5.366  0.7727 -0.2316 -1.0145
 3447TIP3   OH210297   5.259   2.975   5.776 -0.0383  0.5040 -0.4651
 3447TIP3    H110298   5.229   3.015   5.694  1.0786  1.4692 -0.4249
 3447TIP3    H210299   5.261   3.047   5.838 -1.1439 -0.2746  0.5158
 3448TIP3   OH210300   7.445   5.219   3.444 -0.9066 -0.1344 -0.1934
 3448TIP3    H110301   7.528   5.179   3.419 -0.2980  0.5668  0.6186
 3448TIP3    H210302   7.425   5.181   3.529 -1.1486  0.0862 -0.1510
 3449TIP3   OH210303   0.273  -0.024   5.852  0.1959 -0.3568  0.2501
 3449TIP3    H110304   0.189   0.023   5.848 -0.2269 -1.1578 -1.9959
 3449TIP3    H210305   0.316   0.010   5.930 -2.4940 -0.3878  1.8909
 3450TIP3   OH210306   2.165   6.739   1.817  0.1755  0.3822 -0.2140
 3450TIP3    H110307   2.141   6.796   1.889 -1.0378 -0.7889  0.3276
 3450TIP3    H210308   2.178   6.799   1.743 -1.0403  1.3701  0.3381
 3451TIP3   OH210309   7.752   5.873   3.036  0.2396  0.0427  0.5159
 3451TIP3    H110310   7.766   5.816   3.111  1.4391  1.1266  1.1627
 3451TIP3    H210311   7.689   5.826   2.981  0.8513 -1.6756  1.2218
 3452TIP3   OH210312   3.648   0.874   1.198  0.1606  0.1962 -0.0944
 3452TIP3    H110313   3.563   0.906   1.167 -0.4385 -2.7995 -1.9593
 3452TIP3    H210314   3.706   0.885   1.123  0.4627 -1.0593 -0.0553
 3453TIP3   OH210315   3.678   0.443   0.779 -0.0999 -0.2853  0.1477
 3453TIP3    H110316   3.594   0.431   0.823 -0.4649  1.1642 -0.0948
 3453TIP3    H210317   3.676   0.382   0.705 -0.2506 -1.4000  1.0445
 3454TIP3   OH210318   4.272   1.982   5.673  0.5507  0.2632  0.0751
 3454TIP3    H110319   4.365   1.972   5.694 -0.0220 -0.6623  2.4172
 3454TIP3    H210320   4.233   1.898   5.695 -1.3714  1.6177  2.3088
 3455TIP3   OH210321   6.442   2.603   0.593  0.2660 -0.4758  0.8000
 3455TIP3    H110322   6.511   2.546   0.629  1.1053  0.8971  1.4465
 3455TIP3    H210323   6.360   2.563   0.622  0.8394 -1.2300  1.4331
 3456TIP3   OH210324   4.571   3.643   2.275 -0.1806  0.1382  0.5024
 3456TIP3    H110325   4.592   3.732   2.301  1.0605 -0.1018  0.4105
 3456TIP3    H210326   4.536   3.651   2.187 -1.6855  0.6762  1.1163
 3457TIP3   OH210327   6.512   7.034   2.974 -0.1618  0.0339  0.6194
 3457TIP3    H110328   6.526   7.099   3.042  0.5439 -0.2853  0.7845
 3457TIP3    H210329   6.417   7.033   2.961 -0.0555  3.0437 -1.2808
 3458TIP3   OH210330   1.246   5.481   1.927  0.0740  0.2381 -0.0683
 3458TIP3    H110331   1.193   5.515   1.855  0.3598 -2.3680 -1.6355
 3458TIP3    H210332   1.305   5.552   1.949 -2.1262  2.2302 -0.2034
 3459TIP3   OH210333   5.486   4.240   1.297 -0.3861  0.7570 -1.1290
 3459TIP3    H110334   5.492   4.242   1.393  1.3248  1.9285 -1.2282
 3459TIP3    H210335   5.392   4.248   1.280 -0.8156 -0.3861  0.4469
 3460TIP3   OH210336   7.015   3.765   6.559  0.3687  0.1016 -0.0750
 3460TIP3    H110337   6.928   3.749   6.522  0.1978 -1.4284  0.9135
 3460TIP3    H210338   7.001   3.769   6.653  1.5045 -1.3774  0.2020
 3461TIP3   OH210339   4.127   6.327   6.726  0.4471 -0.2749  0.1598
 3461TIP3    H110340   4.208   6.358   6.767 -0.1397 -0.4880  1.5375
 3461TIP3    H210341   4.148   6.323   6.633  1.5859  1.0241  0.3131
 3462TIP3   OH210342   1.630   4.921   5.363 -0.0429  0.4536 -0.1136
 3462TIP3    H110343   1.549   4.875   5.346  0.0372  0.0144  0.6333
 3462TIP3    H210344   1.603   5.011   5.381 -0.3483  0.3528 -0.0683
 3463TIP3   OH210345   2.846   4.126   6.071  0.6542  0.1945  0.1417
 3463TIP3    H110346   2.855   4.072   5.993  1.0375  0.2928  0.1158
 3463TIP3    H210347   2.788   4.198   6.044 -0.6294 -0.6992  0.4459
 3464TIP3   OH210348   1.910   0.820   0.827 -0.2341  0.2976  0.3403
 3464TIP3    H110349   1.913   0.778   0.742  1.3512  1.1399 -0.0502
 3464TIP3    H210350   1.982   0.883   0.826 -0.9798  1.2429  1.8225
 3465TIP3   OH210351   4.180   2.331   3.350 -0.3495 -0.2432 -0.2935
 3465TIP3    H110352   4.204   2.369   3.434 -1.4629 -1.6388  0.6917
 3465TIP3    H210353   4.156   2.241   3.370 -1.3854 -0.3907 -1.9831
 3466TIP3   OH210354   3.042   0.769   6.272 -0.1619  0.0542  0.0986
 3466TIP3    H110355   3.078   0.820   6.345 -1.6023  0.1837  0.7678
 3466TIP3    H210356   2.947   0.786   6.277 -0.2158  0.7197 -2.3202
 3467TIP3   OH210357   0.518   3.000   2.232  0.0561  0.3311 -0.2685
 3467TIP3    H110358   0.513   2.913   2.193  0.5215 -0.2638  0.9387
 3467TIP3    H210359   0.540   3.058   2.159 -1.0043 -0.4316 -1.2290
 3468TIP3   OH210360   6.862   4.671   3.092  0.0362 -0.4671  0.5198
 3468TIP3    H110361   6.916   4.711   3.023 -0.1617  0.4882  0.9148
 3468TIP3    H210362   6.836   4.743   3.148  0.8341 -1.3210  2.0693
 3469TIP3   OH210363   4.031   2.321   2.865 -0.1890  0.0682 -0.5954
 3469TIP3    H110364   4.063   2.270   2.940 -0.0523  2.7049  1.2628
 3469TIP3    H210365   4.088   2.296   2.793  1.1486 -0.9102  0.7450
 3470TIP3   OH210366   6.281   5.180   6.650  0.2681  0.2419 -0.5085
 3470TIP3    H110367   6.311   5.213   6.565  0.9644  0.4486 -0.1903
 3470TIP3    H210368   6.361   5.175   6.703 -0.3705  1.8002  0.6936
 3471TIP3   OH210369   2.301   6.950   5.930  0.4613 -0.3324  0.4373
 3471TIP3    H110370   2.392   6.978   5.937  0.4578 -0.0343 -0.5349
 3471TIP3    H210371   2.254   7.006   5.992  0.4668  1.8558 -1.3940
 3472TIP3   OH210372   5.629   0.003   4.513 -0.3238 -0.4710  0.0343
 3472TIP3    H110373   5.585  -0.018   4.431 -0.3701 -0.3683  0.0327
 3472TIP3    H210374   5.564   0.053   4.563 -0.2200 -0.3452  0.0443
 3473TIP3   OH210375   3.037   5.686   6.681 -0.2612 -0.0748  0.2509
 3473TIP3    H110376   2.962   5.632   6.655 -0.5486  0.5484 -0.2392
 3473TIP3    H210377   3.114   5.630   6.664 -0.6288 -0.9627  1.3796
 3474TIP3   OH210378   4.872   6.365   5.787 -0.3822 -0.4687 -0.2797
 3474TIP3    H110379   4.814   6.350   5.712 -0.0382 -2.2245 -0.2241
 3474TIP3    H210380   4.928   6.288   5.790  1.1146  0.6072  0.4557
 3475TIP3   OH210381   1.247   6.708   1.849  0.0752 -0.3794 -0.0871
 3475TIP3    H110382   1.279   6.785   1.895 -1.6156  0.3517 -0.0496
 3475TIP3    H210383   1.296   6.635   1.886  0.2255  0.4347  1.3718
 3476TIP3   OH210384   8.124   4.059   6.656 -0.9672 -0.1536  0.4260
 3476TIP3    H110385   8.170   4.123   6.711 -1.1921 -0.8794  1.4871
 3476TIP3    H210386   8.035   4.057   6.692 -0.3532 -2.8835  2.1330
 3477TIP3   OH210387   0.532   2.379   5.341 -0.3897  0.1500 -0.4673
 3477TIP3    H110388   0.457   2.389   5.282 -1.1630 -0.9902  0.2816
 3477TIP3    H210389   0.598   2.333   5.289 -0.6692  0.0698 -0.7516
 3478TIP3   OH210390   0.045   3.782   3.302 -0.0003 -0.3754 -0.2340
 3478TIP3    H110391  -0.008   3.722   3.355 -1.8796  1.7884  0.5076
 3478TIP3    H210392   0.031   3.754   3.212 -1.5358 -0.5726  0.0351
 3479TIP3   OH210393   3.104   7.272   0.605  0.6734 -0.6111 -0.0038
 3479TIP3    H110394   3.104   7.368   0.613  1.9577 -0.6405  0.6000
 3479TIP3    H210395   3.084   7.256   0.513  0.4043  0.2283 -0.1038
 3480TIP3   OH210396   7.113   4.332   6.169 -0.0597  0.3349  0.6478
 3480TIP3    H110397   7.137   4.287   6.088  0.7475  1.4693  0.2200
 3480TIP3    H210398   7.186   4.317   6.228 -0.6485 -0.4925  1.1839
 3481TIP3   OH210399   4.030   6.947   6.014 -0.3060  0.7101 -0.4650
 3481TIP3    H110400   3.942   6.924   5.983  0.3355 -0.8702 -1.2425
 3481TIP3    H210401   4.037   6.902   6.099  0.6046 -1.3306 -1.5478
 3482TIP3   OH210402   1.269   5.001   0.033 -0.4275  0.7420 -0.1118
 3482TIP3    H110403   1.262   4.917  -0.012 -2.8558  1.8661 -2.0237
 3482TIP3    H210404   1.277   4.978   0.126 -1.9351 -1.5974 -0.4899
 3483TIP3   OH210405   6.471   2.498   3.761  0.2268 -0.0262 -0.2099
 3483TIP3    H110406   6.551   2.447   3.773  0.5126  0.4231 -0.2207
 3483TIP3    H210407   6.434   2.466   3.679  0.6359  0.0928 -0.4422
 3484TIP3   OH210408   5.120   5.090   2.081 -0.2665  0.5370  0.4238
 3484TIP3    H110409   5.052   5.118   2.020  0.6244  2.5118  0.2589
 3484TIP3    H210410   5.114   5.152   2.153 -0.0259 -0.5857  1.4374
 3485TIP3   OH210411   5.124   7.661   4.475  0.2421 -0.6812  0.2542
 3485TIP3    H110412   5.180   7.705   4.410  0.6407 -1.4799  0.0486
 3485TIP3    H210413   5.175   7.663   4.555 -0.6338  1.1495  0.8283
 3486TIP3   OH210414   7.114   0.977   1.760 -0.3820 -0.5147 -0.2377
 3486TIP3    H110415   7.076   1.062   1.738  0.3544  0.4177  1.8190
 3486TIP3    H210416   7.087   0.919   1.689 -2.3711  1.0121 -0.8034
 3487TIP3   OH210417   6.452   7.531   5.813  0.0411 -0.0487 -0.6563
 3487TIP3    H110418   6.444   7.569   5.725  1.4977  0.6369 -0.5176
 3487TIP3    H210419   6.458   7.437   5.797 -1.1810 -0.0662 -1.1693
 3488TIP3   OH210420   5.741   6.469   2.909 -0.3816 -0.2117 -0.6332
 3488TIP3    H110421   5.811   6.505   2.855 -1.0194 -0.7071 -1.8302
 3488TIP3    H210422   5.689   6.546   2.934 -0.4354 -0.0302 -1.2693
 3489TIP3   OH210423   0.643   7.432   3.537 -0.4558 -0.3793  0.0690
 3489TIP3    H110424   0.667   7.453   3.627  1.6223 -0.5790 -0.3979
 3489TIP3    H210425   0.552   7.403   3.543 -1.0847  1.6469  1.7721
 3490TIP3   OH210426   6.895   6.507   3.267  0.3769  0.5196 -0.0024
 3490TIP3    H110427   6.818   6.491   3.212 -0.4462  1.4246  0.8500
 3490TIP3    H210428   6.945   6.573   3.220  0.1759  0.5808 -0.1334
 3491TIP3   OH210429   0.664   6.522   4.013  0.5147 -0.4922  0.2686
 3491TIP3    H110430   0.676   6.454   3.947 -1.7231 -2.6086  1.8280
 3491TIP3    H210431   0.589   6.573   3.982 -1.0714 -1.9948  1.3893
 3492TIP3   OH210432   4.767   3.768   6.224 -0.0011 -0.1526  0.0015
 3492TIP3    H110433   4.740   3.817   6.146 -0.2408  2.8568  1.7975
 3492TIP3    H210434   4.713   3.689   6.222 -1.3708  0.7410 -1.9015
 3493TIP3   OH210435   1.375   3.356   2.434  0.1653  0.5766  0.2678
 3493TIP3    H110436   1.372   3.436   2.382  0.2938  0.3894 -0.0307
 3493TIP3    H210437   1.438   3.375   2.504 -1.4472  1.5294  1.5447
 3494TIP3   OH210438   0.513   3.384   2.183  0.2674 -0.1196  0.5809
 3494TIP3    H110439   0.491   3.469   2.145 -0.9403  0.1025  1.7008
 3494TIP3    H210440   0.487   3.320   2.117 -1.2193  0.2835  0.7466
 3495TIP3   OH210441   2.217   3.550   5.901 -0.2148  0.3138 -0.0777
 3495TIP3    H110442   2.208   3.646   5.897  0.7668  0.3581 -1.8690
 3495TIP3    H210443   2.277   3.528   5.831 -1.5095 -1.7863 -0.6224
 3496TIP3   OH210444   1.899   4.711   2.561  0.2170 -0.2220  0.2874
 3496TIP3    H110445   1.943   4.720   2.477 -1.9263  0.0395 -0.8760
 3496TIP3    H210446   1.948   4.768   2.620  0.1890  1.6994 -1.4415
 3497TIP3   OH210447   0.096   2.277   4.066  0.2242  0.5525  0.3310
 3497TIP3    H110448   0.044   2.354   4.088  0.7240  1.2691 -0.8945
 3497TIP3    H210449   0.165   2.274   4.133  1.9499  2.9076 -1.1484
 3498TIP3   OH210450   0.539   3.670   5.381  0.1116  0.5581 -0.4925
 3498TIP3    H110451   0.619   3.665   5.433 -0.7404 -1.2990  0.7642
 3498TIP3    H210452   0.532   3.762   5.356  0.7807  1.4899  2.3753
 3499TIP3   OH210453   7.500   5.204   5.080 -0.2429 -0.1233  0.6055
 3499TIP3    H110454   7.574   5.167   5.128  1.6977  1.5477 -0.9245
 3499TIP3    H210455   7.462   5.268   5.139  1.1987  0.8631  0.5232
 3500TIP3   OH210456   0.187   5.212   3.779 -0.0414 -0.1228  0.6403
 3500TIP3    H110457   0.211   5.134   3.830  1.9443  0.4308  0.6592
 3500TIP3    H210458   0.154   5.274   3.844 -0.2685 -0.4502  0.8386
 3501TIP3   OH210459   4.979   6.046   3.083 -0.3600  0.1346 -0.5519
 3501TIP3    H110460   4.988   5.977   3.017  0.3417  1.0819 -1.4823
 3501TIP3    H210461   4.912   6.013   3.143 -0.9941 -0.7748 -1.7125
 3502TIP3   OH210462   7.597   0.815   1.132  0.3231  0.3040 -0.2562
 3502TIP3    H110463   7.625   0.791   1.220 -0.0037  0.0256 -0.2278
 3502TIP3    H210464   7.518   0.763   1.117 -0.2582  1.1795 -0.2835
 3503TIP3   OH210465   3.100   5.108   4.148  0.2844  0.1358 -0.1319
 3503TIP3    H110466   3.079   5.130   4.239 -0.4472  1.6889 -0.6299
 3503TIP3    H210467   3.188   5.072   4.151 -0.0822 -0.7288  1.2970
 3504TIP3   OH210468   1.182   6.748   5.491 -0.3374 -0.3122  0.0814
 3504TIP3    H110469   1.230   6.762   5.572 -0.2499 -1.3929  0.2365
 3504TIP3    H210470   1.195   6.828   5.440  2.7828 -1.0267 -0.4713
 3505TIP3   OH210471   1.064   6.294   3.671 -0.3381  0.2782 -0.0580
 3505TIP3    H110472   1.035   6.237   3.741  0.5931  1.1077  1.0440
 3505TIP3    H210473   1.150   6.259   3.645  0.3106  1.2186  0.7297
 3506TIP3   OH210474   6.846   1.999   1.871  0.5080 -0.2156  0.8878
 3506TIP3    H110475   6.809   1.976   1.956  0.4332  0.2151  0.9760
 3506TIP3    H210476   6.775   1.984   1.809  0.0095  1.0718  1.1176
 3507TIP3   OH210477   7.717   3.935   2.510  0.1512 -0.0376  0.2489
 3507TIP3    H110478   7.802   3.968   2.482  0.3913 -1.1091 -0.3363
 3507TIP3    H210479   7.673   3.908   2.429 -0.0143 -1.1570  0.6818
 3508TIP3   OH210480   4.656   0.565   5.984  0.1326  0.4384  0.2448
 3508TIP3    H110481   4.701   0.648   5.972 -1.5410  1.2540 -0.7755
 3508TIP3    H210482   4.682   0.512   5.908  0.4460  0.3886  0.3875
 3509TIP3   OH210483   0.033   7.647   2.425  0.1856  0.1348  0.3615
 3509TIP3    H110484  -0.035   7.683   2.482 -0.2989 -1.1007  0.6029
 3509TIP3    H210485   0.085   7.590   2.482  0.4454 -0.1572 -0.1597
 3510TIP3   OH210486   5.704   2.751   2.575  0.4595  0.0082  0.1598
 3510TIP3    H110487   5.749   2.746   2.659  1.9572 -1.1501 -0.6537
 3510TIP3    H210488   5.737   2.832   2.535  1.0224 -0.2814  0.0212
 3511TIP3   OH210489   8.283   0.095   5.876  0.0465  0.2887  0.4675
 3511TIP3    H110490   8.321   0.176   5.909  0.3342  0.0340  0.7570
 3511TIP3    H210491   8.247   0.052   5.953  1.7611 -0.8738  0.6511
 3512TIP3   OH210492   0.878   0.412   3.364 -0.1913  0.2021  0.0841
 3512TIP3    H110493   0.800   0.375   3.405 -0.8600 -0.9977 -2.0973
 3512TIP3    H210494   0.944   0.342   3.370 -0.1632  0.1757 -0.4549
 3513TIP3   OH210495   5.367   2.001   5.780 -0.2817 -0.3773 -0.0699
 3513TIP3    H110496   5.328   2.032   5.698 -0.4233  1.0353  0.4987
 3513TIP3    H210497   5.383   2.080   5.830 -0.0449 -1.2080  1.2143
 3514TIP3   OH210498   6.438   0.458   2.650 -0.1379  0.0065  0.0557
 3514TIP3    H110499   6.477   0.479   2.566 -1.2418  0.7230 -0.2946
 3514TIP3    H210500   6.462   0.366   2.666 -0.0507 -0.1806 -1.1040
 3515TIP3   OH210501   5.480   2.485   2.939  0.0136  0.0922  0.0437
 3515TIP3    H110502   5.560   2.449   2.900 -1.3860 -1.9882 -1.0871
 3515TIP3    H210503   5.450   2.551   2.877  0.5607  0.5105  0.2177
 3516TIP3   OH210504   5.852   2.911   3.638 -0.4334 -0.4185  0.0273
 3516TIP3    H110505   5.862   2.817   3.646  0.0197 -0.3569  0.2038
 3516TIP3    H210506   5.790   2.935   3.707 -0.8489 -0.6364 -0.2676
 3517TIP3   OH210507   4.142   7.145   4.557  0.0390  1.0654  0.2788
 3517TIP3    H110508   4.213   7.084   4.538 -0.5278 -0.2220  2.0289
 3517TIP3    H210509   4.183   7.231   4.555  1.1619  0.5397 -0.8381
 3518TIP3   OH210510   0.515   4.711   3.732  0.2940  0.4975  0.0428
 3518TIP3    H110511   0.559   4.631   3.760 -0.5253 -0.0982 -0.3442
 3518TIP3    H210512   0.500   4.700   3.639  0.9188  1.4747 -0.1884
 3519TIP3   OH210513   8.308   6.036   0.391  1.0897 -0.0192 -0.1526
 3519TIP3    H110514   8.270   6.105   0.446  2.2171 -0.2882  0.9910
 3519TIP3    H210515   8.290   6.065   0.301 -0.0644  0.8307  0.3247
 3520TIP3   OH210516   6.512   2.019   3.067 -0.3997  0.1603 -0.2175
 3520TIP3    H110517   6.427   2.018   3.023 -0.0151 -2.0307 -1.0281
 3520TIP3    H210518   6.492   2.000   3.159 -0.7951 -0.4463 -0.4218
 3521TIP3   OH210519   7.687   7.600   6.565  0.0783 -0.0877 -0.3349
 3521TIP3    H110520   7.630   7.565   6.634  1.6988  3.5237  3.2651
 3521TIP3    H210521   7.627   7.642   6.504 -1.3742 -2.1894 -0.4646
 3522TIP3   OH210522   1.596   2.452   6.697  0.0513 -0.2941  0.1842
 3522TIP3    H110523   1.691   2.443   6.695 -0.0076 -1.7893  1.8531
 3522TIP3    H210524   1.580   2.546   6.699  1.4961 -0.0387  0.3041
 3523TIP3   OH210525   1.680   4.959   4.821 -0.3188  0.5136 -0.2381
 3523TIP3    H110526   1.762   4.988   4.860  0.3635  0.5923 -1.6483
 3523TIP3    H210527   1.694   4.866   4.803 -0.1206  0.7440 -1.3996
 3524TIP3   OH210528   2.440   6.506   4.996  0.0149 -0.0355 -0.4135
 3524TIP3    H110529   2.417   6.497   4.903 -0.0316 -1.4098 -0.2925
 3524TIP3    H210530   2.506   6.438   5.011  1.4363  1.3847  0.1383
 3525TIP3   OH210531   3.306   7.222   0.047 -0.6065  0.0346 -0.0372
 3525TIP3    H110532   3.232   7.162   0.038 -0.4304 -0.1294 -0.3944
 3525TIP3    H210533   3.376   7.183  -0.005 -0.1554  0.0140  0.5667
 3526TIP3   OH210534   6.578   6.355   1.019  0.3809  0.7708  0.5813
 3526TIP3    H110535   6.491   6.387   1.045 -0.3578 -0.5206 -0.2007
 3526TIP3    H210536   6.578   6.360   0.923  1.2775  1.0102  0.5858
 3527TIP3   OH210537   5.116   6.864   2.005 -0.1773 -0.4552 -0.0343
 3527TIP3    H110538   5.108   6.854   1.910  0.1759 -0.0894 -0.1031
 3527TIP3    H210539   5.117   6.958   2.020  0.6773 -0.5065  0.2533
 3528TIP3   OH210540   6.635   7.583   1.375  0.3406 -0.2720 -0.0380
 3528TIP3    H110541   6.608   7.669   1.344 -0.0669 -0.6473 -0.7441
 3528TIP3    H210542   6.613   7.523   1.303  2.5067 -0.6877 -0.4509
 3529TIP3   OH210543   8.116   2.186   3.737 -0.2253 -0.1751 -0.0420
 3529TIP3    H110544   8.192   2.227   3.694 -0.9862  1.3034 -0.0146
 3529TIP3    H210545   8.060   2.160   3.664 -0.0419 -0.6010 -0.0351
 3530TIP3   OH210546   2.567   7.345   3.716  0.2041  0.1993  0.0730
 3530TIP3    H110547   2.637   7.405   3.688  0.2340  0.1683  0.0818
 3530TIP3    H210548   2.538   7.303   3.635  1.7055 -1.4329  0.3280
 3531TIP3   OH210549   7.185   2.641   5.642  0.2515 -0.3556 -0.1139
 3531TIP3    H110550   7.121   2.692   5.691 -0.7188  0.6357 -2.2673
 3531TIP3    H210551   7.153   2.551   5.648 -0.3244 -0.1268  0.3320
 3532TIP3   OH210552   4.376   2.460   3.896  0.1529  0.1761  0.1366
 3532TIP3    H110553   4.464   2.440   3.862  0.4112 -0.1229  0.9430
 3532TIP3    H210554   4.387   2.459   3.991  0.3279  4.5933  0.3626
 3533TIP3   OH210555   7.829   4.267   0.565  0.0932 -0.3634  0.3662
 3533TIP3    H110556   7.859   4.309   0.645 -0.7938  1.2361 -0.1093
 3533TIP3    H210557   7.735   4.253   0.578 -0.1735  0.4196 -0.5887
 3534TIP3   OH210558   1.575   2.712   0.664  0.0324 -0.2323 -0.3683
 3534TIP3    H110559   1.642   2.643   0.659  0.9186  0.6151 -0.5112
 3534TIP3    H210560   1.536   2.701   0.751 -0.9022 -1.8544 -0.9535
 3535TIP3   OH210561   7.902   6.751   5.594 -0.2957 -0.0157  0.4775
 3535TIP3    H110562   7.834   6.811   5.623 -1.3346 -0.5683 -0.7452
 3535TIP3    H210563   7.975   6.808   5.568 -1.5224  0.7996 -1.3432
 3536TIP3   OH210564   7.101   5.120   4.359  0.3099  0.0171  0.1906
 3536TIP3    H110565   7.118   5.040   4.409 -0.0442 -0.7143 -0.8318
 3536TIP3    H210566   7.101   5.190   4.425  0.0139 -0.8954  1.1899
 3537TIP3   OH210567   1.528   2.239   3.042  0.3227  0.2514  0.5038
 3537TIP3    H110568   1.605   2.207   3.089  0.9898 -0.0752 -0.7557
 3537TIP3    H210569   1.563   2.274   2.960 -0.7560  1.2072  0.4293
 3538TIP3   OH210570   3.667   1.486   5.923  0.1063  0.6011 -0.1583
 3538TIP3    H110571   3.591   1.443   5.885  0.4934  0.3192 -0.6194
 3538TIP3    H210572   3.726   1.414   5.947  0.8003  0.8623 -1.0257
 3539TIP3   OH210573   8.266   2.497   6.275  0.5192 -0.1223  0.4477
 3539TIP3    H110574   8.253   2.477   6.368  0.7092  1.0702  0.7568
 3539TIP3    H210575   8.198   2.446   6.230  0.1467 -0.3878  1.2822
 3540TIP3   OH210576   3.578   3.436   4.808  0.1969 -0.2775  0.3604
 3540TIP3    H110577   3.506   3.396   4.760 -1.2279  1.4436  0.9751
 3540TIP3    H210578   3.642   3.460   4.741 -0.3085 -0.7696 -0.3114
 3541TIP3   OH210579   0.630   2.342   1.309  0.4689 -0.0358  0.2443
 3541TIP3    H110580   0.572   2.281   1.263  1.0803 -0.7546  0.4141
 3541TIP3    H210581   0.577   2.421   1.320 -0.4421 -0.6332  0.2802
 3542TIP3   OH210582   0.737   2.156   3.009 -0.0154 -0.1688 -0.5112
 3542TIP3    H110583   0.692   2.078   3.043 -0.4972 -0.0590 -0.8937
 3542TIP3    H210584   0.668   2.221   2.999  0.2814  0.1002 -0.8164
 3543TIP3   OH210585   1.565   1.045   4.408 -0.0562 -0.2337  0.7639
 3543TIP3    H110586   1.633   1.016   4.348  0.1079 -0.9050  1.2561
 3543TIP3    H210587   1.488   0.993   4.384 -0.4133  0.5397  0.1922
 3544TIP3   OH210588   1.121   7.524   0.252  0.6157 -0.0218  0.0440
 3544TIP3    H110589   1.141   7.610   0.290 -0.0520  0.0295  0.2837
 3544TIP3    H210590   1.095   7.470   0.326 -3.8243  0.9497 -0.5597
 3545TIP3   OH210591   0.964   0.375   5.750 -0.3295 -0.3122 -0.3368
 3545TIP3    H110592   0.899   0.338   5.810 -0.0412 -1.5396 -0.7406
 3545TIP3    H210593   0.912   0.417   5.682 -0.6715  0.0445  0.1380
 3546TIP3   OH210594   6.212   2.445   2.589 -0.0780  0.4379 -0.5091
 3546TIP3    H110595   6.238   2.537   2.582 -0.5277  0.8412  1.9723
 3546TIP3    H210596   6.292   2.399   2.615 -0.2464  0.4783  0.1116
 3547TIP3   OH210597   1.777   2.123   0.324  0.2344 -0.0873 -0.1096
 3547TIP3    H110598   1.830   2.054   0.283 -1.4493 -2.5225  1.4989
 3547TIP3    H210599   1.699   2.129   0.269  0.6344  0.9991 -0.5718
 3548TIP3   OH210600   6.724   2.863   1.067 -0.0736  0.5194  0.1518
 3548TIP3    H110601   6.635   2.875   1.100  0.0472  0.4977  0.4927
 3548TIP3    H210602   6.714   2.857   0.972 -0.5401 -0.3470  0.2392
 3549TIP3   OH210603   5.316   2.284   3.035  0.0770 -0.3598  0.0606
 3549TIP3    H110604   5.229   2.285   2.995  0.3306  1.5184 -0.5337
 3549TIP3    H210605   5.353   2.371   3.016  1.3546 -0.4284  1.9042
 3550TIP3   OH210606   2.147   2.729   0.768 -0.0559  0.1199  0.3065
 3550TIP3    H110607   2.138   2.739   0.863 -0.4760  2.0747  0.1049
 3550TIP3    H210608   2.231   2.769   0.748  0.1447 -0.5090 -0.1397
 3551TIP3   OH210609   0.357   0.006   4.176 -0.0707 -0.2278 -0.4529
 3551TIP3    H110610   0.392   0.087   4.212  1.6065 -0.4693 -1.4373
 3551TIP3    H210611   0.306  -0.032   4.248  0.6625  0.7694  0.6326
 3552TIP3   OH210612   0.389   5.308   6.120 -0.3310 -0.1887  0.3825
 3552TIP3    H110613   0.426   5.295   6.207 -0.5143 -1.6657  0.2537
 3552TIP3    H210614   0.422   5.235   6.068  0.3672  1.0593 -1.0077
 3553TIP3   OH210615   6.117   1.969   6.585  0.0159  0.4246  0.0588
 3553TIP3    H110616   6.144   1.963   6.677  0.0386  0.7415  0.0730
 3553TIP3    H210617   6.153   1.890   6.545 -0.2399  0.1417  0.3850
 3554TIP3   OH210618   2.826   1.459   6.046 -1.0590 -0.2209  0.1855
 3554TIP3    H110619   2.824   1.554   6.042  0.0485 -0.1812  0.0482
 3554TIP3    H210620   2.792   1.430   5.961 -2.0782  0.0322  0.5051
 3555TIP3   OH210621   1.821   2.578   1.535  0.2763 -0.5118  0.6366
 3555TIP3    H110622   1.786   2.491   1.512 -1.1526  0.4822 -1.2636
 3555TIP3    H210623   1.844   2.617   1.451 -1.3358  1.8254  1.1906
 3556TIP3   OH210624   5.147   6.184   6.629  0.0828  0.3124 -0.2604
 3556TIP3    H110625   5.141   6.212   6.720 -1.8192  0.3432 -0.3516
 3556TIP3    H210626   5.224   6.229   6.595  1.0866 -0.0323  1.4155
 3557TIP3   OH210627   4.988   2.476   0.103 -0.0087 -0.1192  0.0912
 3557TIP3    H110628   4.960   2.495   0.013 -0.1568  1.7011  0.5029
 3557TIP3    H210629   5.075   2.516   0.110  1.1193 -2.3997  0.0286
 3558TIP3   OH210630   5.773   5.693   4.216 -0.3261 -0.2417 -0.1013
 3558TIP3    H110631   5.862   5.660   4.208 -0.1017  0.4560 -0.4893
 3558TIP3    H210632   5.725   5.652   4.144 -0.6000 -1.4864  0.7530
 3559TIP3   OH210633   0.525   4.295   0.290 -0.2783  0.6508  0.1201
 3559TIP3    H110634   0.432   4.299   0.311 -0.3056  0.7868 -0.0239
 3559TIP3    H210635   0.569   4.299   0.375 -0.3385  2.7337  0.0861
 3560TIP3   OH210636   6.127   3.289   1.783  0.3090  0.6467  0.1372
 3560TIP3    H110637   6.113   3.327   1.696  1.3959 -0.5200 -0.5664
 3560TIP3    H210638   6.203   3.232   1.773 -1.2149 -1.7067  1.1585
 3561TIP3   OH210639   1.224   1.879   2.556  0.0786 -0.3657 -0.2066
 3561TIP3    H110640   1.242   1.791   2.590 -0.2244 -0.1297  0.5853
 3561TIP3    H210641   1.159   1.915   2.616  0.2150  0.4083 -0.5150
 3562TIP3   OH210642   7.229   1.172   4.679  0.3748  0.5329  0.1080
 3562TIP3    H110643   7.282   1.174   4.600 -0.0900 -0.1575 -0.2261
 3562TIP3    H210644   7.150   1.222   4.657 -0.3944 -0.8485 -0.3430
 3563TIP3   OH210645   0.217   4.431   3.976 -0.4218  0.6212 -0.1999
 3563TIP3    H110646   0.212   4.406   4.068 -0.4623  0.4614 -0.2455
 3563TIP3    H210647   0.143   4.386   3.935  0.0667  0.0312 -0.4614
 3564TIP3   OH210648   3.173   2.980   6.350 -0.2987  0.7314  0.5126
 3564TIP3    H110649   3.257   3.015   6.379  0.6916 -1.1123  0.0746
 3564TIP3    H210650   3.159   2.903   6.405 -0.4534 -0.4028 -1.0487
 3565TIP3   OH210651   0.616   3.960   5.325  0.0656  0.1368 -0.7945
 3565TIP3    H110652   0.702   3.988   5.294 -0.2278  1.3832 -0.5454
 3565TIP3    H210653   0.616   3.981   5.419 -0.3994 -0.1475 -0.7262
 3566TIP3   OH210654   5.053   4.072   4.921  0.0586  0.3675 -0.1940
 3566TIP3    H110655   5.059   3.985   4.961  0.2518  0.1749 -0.6371
 3566TIP3    H210656   5.015   4.056   4.835  1.9919  0.4412 -1.1334
 3567TIP3   OH210657   2.961   6.418   4.760  0.4703 -0.4904 -0.0403
 3567TIP3    H110658   2.994   6.504   4.736  1.1268 -0.6699  0.1813
 3567TIP3    H210659   3.031   6.379   4.813 -0.8023 -0.2128  1.9674
 3568TIP3   OH210660   6.531   0.893   3.594  0.0844 -0.0827 -0.1368
 3568TIP3    H110661   6.621   0.864   3.581 -0.4716 -1.5896 -0.7648
 3568TIP3    H210662   6.531   0.985   3.566  1.2449 -0.3012 -0.9044
 3569TIP3   OH210663   2.072   6.691   3.211  0.7951 -0.4156 -0.2528
 3569TIP3    H110664   2.006   6.708   3.144 -1.8703 -1.1688  2.0101
 3569TIP3    H210665   2.066   6.766   3.270  0.6065 -1.3677  0.9800
 3570TIP3   OH210666   6.582   5.655   3.012  0.1877 -0.2660 -0.2809
 3570TIP3    H110667   6.506   5.703   3.045  0.5651  0.2660 -0.1644
 3570TIP3    H210668   6.573   5.659   2.916  0.4938  0.5136 -0.2862
 3571TIP3   OH210669   2.962   0.796   2.710  0.2394 -0.0820 -0.3162
 3571TIP3    H110670   2.954   0.775   2.803  0.2887  1.3167  0.0253
 3571TIP3    H210671   2.873   0.789   2.676  0.0881  0.1815  0.0188
 3572TIP3   OH210672   5.696   2.752   6.239  0.0768  0.4619  0.5358
 3572TIP3    H110673   5.749   2.677   6.265 -1.8428 -1.1774  0.0199
 3572TIP3    H210674   5.744   2.793   6.168  0.3285 -1.4091 -0.4232
 3573TIP3   OH210675   3.953   7.061   5.141 -0.1424 -0.3006  0.3710
 3573TIP3    H110676   4.037   7.072   5.097  0.2787 -0.4909  1.1092
 3573TIP3    H210677   3.921   7.151   5.153 -0.4583 -0.2584 -0.6619
 3574TIP3   OH210678   7.133   6.044   3.878 -0.1229 -0.3310  0.5603
 3574TIP3    H110679   7.096   6.104   3.814  0.3600  0.1337  0.7081
 3574TIP3    H210680   7.172   6.101   3.944 -0.6639 -0.8065  1.2940
 3575TIP3   OH210681   7.296   2.337   3.788 -0.4499  0.5064 -0.0173
 3575TIP3    H110682   7.377   2.375   3.754 -0.2546 -1.6583 -2.1595
 3575TIP3    H210683   7.297   2.246   3.760 -4.0803  0.5995 -1.0072
 3576TIP3   OH210684   0.270   4.218   3.713 -0.2630  0.1317 -0.7281
 3576TIP3    H110685   0.238   4.130   3.691  0.3027  0.2484 -2.1203
 3576TIP3    H210686   0.290   4.214   3.806 -0.4018 -1.1717 -0.7393
 3577TIP3   OH210687   0.269   5.070   4.972  0.5404  0.1773 -0.2574
 3577TIP3    H110688   0.346   5.021   4.998  0.1535 -0.4681 -0.3073
 3577TIP3    H210689   0.269   5.147   5.028  1.4069  0.3605 -0.4932
 3578TIP3   OH210690   3.172   4.977   3.320  0.0473  0.2104  0.1736
 3578TIP3    H110691   3.113   4.963   3.246  0.7646  0.1258 -0.3945
 3578TIP3    H210692   3.132   5.050   3.368 -0.7733 -0.1641  0.0787
 3579TIP3   OH210693   8.072   6.402   3.181  0.8930 -0.2376  0.3041
 3579TIP3    H110694   8.088   6.435   3.093  0.2428 -1.6912 -0.3902
 3579TIP3    H210695   7.989   6.354   3.174  0.8758 -0.4588  1.6849
 3580TIP3   OH210696   1.920   4.113   6.324  0.3388 -0.7187 -0.1273
 3580TIP3    H110697   1.832   4.084   6.299 -0.0452 -0.7683  1.2281
 3580TIP3    H210698   1.926   4.094   6.417  2.2398 -1.8480 -0.4325
 3581TIP3   OH210699   4.718   6.279   5.143 -0.0451 -0.6044 -0.0634
 3581TIP3    H110700   4.789   6.250   5.200 -0.6314 -0.5375  0.7165
 3581TIP3    H210701   4.645   6.296   5.203 -0.1333  1.1669 -0.6212
 3582TIP3   OH210702   6.418   5.956   1.590  0.1631  0.9165  0.1224
 3582TIP3    H110703   6.495   5.936   1.537 -0.5900 -1.9539 -0.0440
 3582TIP3    H210704   6.443   5.934   1.680  0.1336  1.8579  0.3727
 3583TIP3   OH210705   5.851   6.491   5.659 -0.1337 -0.3954  0.3741
 3583TIP3    H110706   5.863   6.432   5.734 -0.4275 -0.5323  0.3146
 3583TIP3    H210707   5.797   6.563   5.693  0.7991  0.2035  0.6335
 3584TIP3   OH210708   0.306   2.678   3.300  0.4152  0.2994  0.3382
 3584TIP3    H110709   0.358   2.741   3.249 -0.2746  1.2102  0.7403
 3584TIP3    H210710   0.269   2.619   3.234  2.5543 -0.8690  0.0909
 3585TIP3   OH210711   5.935   5.293   0.351 -0.3534  0.2518  0.4289
 3585TIP3    H110712   5.968   5.227   0.412  0.7777 -0.2061 -0.6394
 3585TIP3    H210713   5.862   5.334   0.398 -0.0564 -0.6484  1.7478
 3586TIP3   OH210714   3.942   2.129   0.887 -0.4437 -0.0630 -0.0726
 3586TIP3    H110715   4.023   2.174   0.860 -0.9132 -0.1591 -1.8034
 3586TIP3    H210716   3.944   2.047   0.838 -1.8960  0.2267 -0.6627
 3587TIP3   OH210717   6.532   3.555   4.634  0.1921  0.9311  0.0272
 3587TIP3    H110718   6.588   3.602   4.695 -0.2297  0.6421  0.6448
 3587TIP3    H210719   6.446   3.597   4.643 -0.3279 -0.2932  0.9918
 3588TIP3   OH210720   2.570   5.607   1.046  0.1049 -0.1246 -0.0267
 3588TIP3    H110721   2.506   5.632   0.979  0.2205  0.1504 -0.0359
 3588TIP3    H210722   2.550   5.664   1.120 -1.3228 -1.7594  0.9335
 3589TIP3   OH210723   0.465   5.477   2.718  0.0017  0.1779 -0.6447
 3589TIP3    H110724   0.522   5.554   2.716 -0.4892  0.5378 -0.8204
 3589TIP3    H210725   0.521   5.406   2.685  0.4676  0.4479 -0.4509
 3590TIP3   OH210726   5.025   3.138   4.690 -0.3953  0.3392  0.6523
 3590TIP3    H110727   5.050   3.214   4.637 -1.6980  0.7433  0.5752
 3590TIP3    H210728   4.954   3.097   4.640  0.9325 -1.5330  0.1924
 3591TIP3   OH210729   6.872   6.899   4.508  0.1052 -0.0817 -0.2545
 3591TIP3    H110730   6.851   6.992   4.524 -3.7973 -1.1452  2.2321
 3591TIP3    H210731   6.793   6.864   4.467  1.2413 -2.5007 -0.5237
 3592TIP3   OH210732   2.001   5.035   3.478 -0.7100  0.9730  0.3207
 3592TIP3    H110733   2.041   5.077   3.402  1.3092 -0.5075  0.5017
 3592TIP3    H210734   2.044   5.075   3.553 -0.0355 -0.1746  0.5492
 3593TIP3   OH210735   0.186   4.574   0.938  0.3452  0.0448  0.3215
 3593TIP3    H110736   0.150   4.501   0.989  0.3131  0.2891  0.6499
 3593TIP3    H210737   0.235   4.626   1.001 -1.3484  1.4522  0.5339
 3594TIP3   OH210738   4.175   5.525   2.329  0.1856 -0.1975  0.0877
 3594TIP3    H110739   4.091   5.534   2.374 -0.5034 -1.1030 -0.9724
 3594TIP3    H210740   4.216   5.611   2.340 -1.7183  0.9388 -0.9945
 3595TIP3   OH210741   6.752   3.760   4.945  0.2726 -0.5045  0.0351
 3595TIP3    H110742   6.711   3.845   4.932  3.0815  1.4003  2.4056
 3595TIP3    H210743   6.770   3.727   4.857 -2.3249  0.5047 -0.9576
 3596TIP3   OH210744   2.786   5.990   2.545  0.0673 -0.4167 -0.2821
 3596TIP3    H110745   2.789   6.085   2.543 -1.8762 -0.3242 -1.3045
 3596TIP3    H210746   2.833   5.966   2.625 -0.7699  1.4947  0.8498
 3597TIP3   OH210747   1.734   5.238   3.846 -0.3242 -0.0599  0.1723
 3597TIP3    H110748   1.642   5.212   3.850 -0.5056  0.6301  0.8680
 3597TIP3    H210749   1.739   5.295   3.769 -0.6910  0.6561  0.6695
 3598TIP3   OH210750   4.329   0.950   4.900  0.2667 -0.4958 -0.3431
 3598TIP3    H110751   4.284   0.911   4.825  0.3042 -1.4861  0.1327
 3598TIP3    H210752   4.259   0.988   4.953  0.2997  0.8940 -1.2320
 3599TIP3   OH210753   3.987   6.564   1.715  0.0111  0.3434  0.2217
 3599TIP3    H110754   3.976   6.532   1.804 -0.2108  1.4030  0.5996
 3599TIP3    H210755   3.906   6.539   1.670 -0.5041  1.0372  0.7319
 3600TIP3   OH210756   8.116   4.662   4.347 -0.6830  0.2624  0.1649
 3600TIP3    H110757   8.042   4.681   4.404  0.5645  0.0563  1.9363
 3600TIP3    H210758   8.193   4.686   4.399  0.5716 -1.3398 -0.8726
 3601TIP3   OH210759   0.834   0.817   5.369  0.4774  0.5642 -0.2749
 3601TIP3    H110760   0.900   0.794   5.435  1.1549  0.2638 -1.0432
 3601TIP3    H210761   0.883   0.821   5.287 -0.1551  1.9801 -0.6028
 3602TIP3   OH210762   4.013   2.747   2.099 -0.9468  0.3512  0.3286
 3602TIP3    H110763   4.020   2.761   2.194 -1.0631 -0.5546  0.4831
 3602TIP3    H210764   4.102   2.726   2.072 -0.6600  1.8683 -0.0004
 3603TIP3   OH210765   0.842   1.464   3.552 -0.0593  0.3480 -0.8801
 3603TIP3    H110766   0.882   1.465   3.639  1.5747  0.4187 -1.5950
 3603TIP3    H210767   0.811   1.374   3.540 -0.8224  0.4792 -0.0232
 3604TIP3   OH210768   2.941   1.225   0.318 -0.2579 -0.5870 -0.2737
 3604TIP3    H110769   2.977   1.313   0.327  0.2276 -0.8786  0.7513
 3604TIP3    H210770   2.975   1.194   0.234  0.2222 -0.0974 -0.2665
 3605TIP3   OH210771   5.264   7.491   1.395  0.3333 -0.2847  0.0479
 3605TIP3    H110772   5.293   7.561   1.454  0.3582 -0.1310 -0.1492
 3605TIP3    H210773   5.184   7.457   1.436  0.8631 -0.8067  0.6703
 3606TIP3   OH210774   0.188   3.974   3.424  0.9455  0.3794 -0.0210
 3606TIP3    H110775   0.124   3.908   3.397 -1.6444  2.5162  0.4722
 3606TIP3    H210776   0.195   4.033   3.350 -0.4954  2.1365  1.1527
 3607TIP3   OH210777   4.789   2.260   2.058  0.2861  0.3110  0.2838
 3607TIP3    H110778   4.754   2.303   2.136  1.2435  0.9986  0.3378
 3607TIP3    H210779   4.857   2.201   2.092  1.0461  0.9743 -0.0633
 3608TIP3   OH210780   3.255   5.456   0.282  0.2674 -0.0444  0.0032
 3608TIP3    H110781   3.181   5.411   0.242  1.3753 -0.6650 -1.4084
 3608TIP3    H210782   3.248   5.546   0.250 -0.5183  0.1936  0.8106
 3609TIP3   OH210783   5.115   3.702   3.911 -0.5992  0.1148 -0.0933
 3609TIP3    H110784   5.121   3.627   3.853  0.8396  0.4233 -0.3810
 3609TIP3    H210785   5.132   3.778   3.855 -2.0629  0.6874  0.1790
 3610TIP3   OH210786   7.116   3.959   0.431 -0.2285 -0.4413  0.6031
 3610TIP3    H110787   7.049   3.894   0.413  0.2259 -0.4429 -1.2752
 3610TIP3    H210788   7.135   3.949   0.524 -0.5701 -2.6102  0.4749
 3611TIP3   OH210789   5.719   6.373   1.949 -0.2427 -0.1685 -0.1780
 3611TIP3    H110790   5.785   6.372   2.019 -0.0010  0.2840 -0.3964
 3611TIP3    H210791   5.724   6.286   1.910  1.4336  0.3730 -1.3065
 3612TIP3   OH210792   5.250   0.226   5.480 -0.2714  0.3227  0.3903
 3612TIP3    H110793   5.298   0.209   5.399 -0.5145 -1.0067  0.5099
 3612TIP3    H210794   5.311   0.276   5.534  1.1493 -1.6358  0.6810
 3613TIP3   OH210795   6.679   6.697   6.237 -0.3994 -0.0471  0.6703
 3613TIP3    H110796   6.695   6.636   6.309 -0.7660 -0.0441  0.7527
 3613TIP3    H210797   6.642   6.775   6.278  2.0948  1.1320  0.8661
 3614TIP3   OH210798   0.254   0.993   6.699 -0.7838  0.0587 -0.4160
 3614TIP3    H110799   0.187   0.971   6.634  0.0956  0.4909 -1.5055
 3614TIP3    H210800   0.238   1.085   6.720 -0.1282  0.3673 -1.2071
 3615TIP3   OH210801   8.169   7.766   4.350  0.5639  0.2908  0.0289
 3615TIP3    H110802   8.133   7.695   4.404 -0.7684  0.0773 -1.0693
 3615TIP3    H210803   8.202   7.830   4.412  2.1076 -1.4138  1.0677
 3616TIP3   OH210804   0.873   0.953   5.002  0.1238 -0.0451  0.5896
 3616TIP3    H110805   0.819   0.995   5.068  1.5070 -0.2570  1.9141
 3616TIP3    H210806   0.870   0.860   5.025  0.8057 -0.0915  0.5016
 3617TIP3   OH210807   2.923   4.603   1.778  0.1584  0.0609  0.0618
 3617TIP3    H110808   2.930   4.665   1.705 -1.5870 -0.5054 -0.6387
 3617TIP3    H210809   2.892   4.657   1.851 -2.1223 -0.0277 -0.7463
 3618TIP3   OH210810   0.623   4.334   1.532 -0.3797 -0.4311  0.7518
 3618TIP3    H110811   0.556   4.277   1.571 -1.5769 -0.5043 -1.2412
 3618TIP3    H210812   0.635   4.299   1.444 -0.9076  2.1509 -0.4278
 3619TIP3   OH210813   0.131   4.795   3.684  0.6117  0.8675 -0.6479
 3619TIP3    H110814   0.071   4.866   3.707 -1.1081 -0.6870 -0.1142
 3619TIP3    H210815   0.175   4.773   3.766 -2.0630 -1.4930  0.3459
 3620TIP3   OH210816  -0.008   7.500   3.458 -0.0031  0.6867  0.3284
 3620TIP3    H110817  -0.013   7.405   3.452 -0.8190  0.7938 -1.3040
 3620TIP3    H210818   0.067   7.524   3.403  0.3518  0.9729  0.9302
 3621TIP3   OH210819   7.449   7.031   2.902  0.0817 -0.4344 -0.0870
 3621TIP3    H110820   7.527   7.026   2.958  0.9216  1.3662 -0.9974
 3621TIP3    H210821   7.442   6.944   2.863  1.8369 -0.5794 -0.1776
 3622TIP3   OH210822   0.601   3.325   1.725 -0.2066  0.8449  0.0632
 3622TIP3    H110823   0.630   3.234   1.728 -1.2358  0.5082 -0.0081
 3622TIP3    H210824   0.681   3.376   1.742  0.1626 -0.0959  1.2807
 3623TIP3   OH210825   5.624   1.358   1.392 -0.3029  0.1251 -0.6926
 3623TIP3    H110826   5.586   1.283   1.348 -0.4236 -0.8178  0.9390
 3623TIP3    H210827   5.686   1.321   1.455 -0.4574  1.3591  0.2457
 3624TIP3   OH210828   1.335   4.138   4.486 -0.1323 -0.2883  0.4583
 3624TIP3    H110829   1.349   4.043   4.491  0.2165 -0.1665  3.7776
 3624TIP3    H210830   1.401   4.175   4.544 -0.7076  1.9785 -0.2437
 3625TIP3   OH210831   2.575   1.984   2.361 -0.7093  0.1280 -0.1182
 3625TIP3    H110832   2.496   1.943   2.396 -3.2238  3.0150 -1.9347
 3625TIP3    H210833   2.610   1.920   2.299 -1.9124 -1.0036  0.3290
 3626TIP3   OH210834   3.026   0.174   6.120 -0.0038  0.1650 -0.1912
 3626TIP3    H110835   3.110   0.219   6.126  0.4891 -0.7694  0.1319
 3626TIP3    H210836   2.987   0.186   6.206  1.0810 -1.7988  0.6302
 3627TIP3   OH210837   6.836   3.247   6.036  0.2099 -0.3030 -0.3244
 3627TIP3    H110838   6.788   3.200   6.105  1.7297 -0.6206  0.5811
 3627TIP3    H210839   6.769   3.282   5.979 -1.1870  0.7464  1.8294
 3628TIP3   OH210840   7.478   1.214   2.630  0.4656  0.2859  0.1712
 3628TIP3    H110841   7.482   1.309   2.642 -1.8237  0.1717  2.9329
 3628TIP3    H210842   7.407   1.201   2.568 -0.1706  0.3946  0.8537
 3629TIP3   OH210843   4.326   5.085   0.210 -0.5622 -0.1908  0.0436
 3629TIP3    H110844   4.368   5.167   0.239 -2.6670  0.5971  1.0632
 3629TIP3    H210845   4.277   5.109   0.132 -1.8458 -0.2408  0.8063
 3630TIP3   OH210846   0.122   1.169   5.281  0.3133  1.0928 -0.0243
 3630TIP3    H110847   0.030   1.170   5.254  0.1122  0.0761  0.5310
 3630TIP3    H210848   0.124   1.108   5.355  1.8182 -0.7937 -1.5117
 3631TIP3   OH210849   8.238   5.257   0.674 -0.1810 -0.0061  0.0403
 3631TIP3    H110850   8.205   5.244   0.763 -2.4134 -1.6813 -0.9465
 3631TIP3    H210851   8.205   5.343   0.648 -0.3601  0.0600  0.4812
 3632TIP3   OH210852   5.799   2.429   2.600  0.1385  0.3170  0.1683
 3632TIP3    H110853   5.792   2.355   2.539  0.8351  0.6293 -0.2991
 3632TIP3    H210854   5.846   2.496   2.551  1.9074  0.1029  1.4773
 3633TIP3   OH210855   0.066   3.295   1.711  0.9838  0.0060  0.0452
 3633TIP3    H110856   0.133   3.362   1.700  1.5059 -0.3750  0.8503
 3633TIP3    H210857   0.106   3.216   1.673 -0.1050  0.3849 -2.0869
 3634TIP3   OH210858   4.549   1.523   0.986 -0.7120 -0.5486  0.2941
 3634TIP3    H110859   4.629   1.512   1.037  0.9887 -0.3429 -2.1762
 3634TIP3    H210860   4.502   1.594   1.030  0.8114 -0.1710  1.3828
 3635TIP3   OH210861   5.597   6.307   5.790  0.5936 -0.1249 -0.3060
 3635TIP3    H110862   5.582   6.215   5.767 -1.1150  0.0110  0.0776
 3635TIP3    H210863   5.564   6.356   5.715 -0.1473  0.1991  0.2209
 3636TIP3   OH210864   3.818   6.866   4.569  0.0910 -0.1479  0.2180
 3636TIP3    H110865   3.862   6.940   4.611 -0.5299  0.3705 -0.0239
 3636TIP3    H210866   3.726   6.878   4.591 -0.2161 -0.0178 -1.0444
 3637TIP3   OH210867   4.268   0.377   5.303  0.1306  0.1411 -0.2706
 3637TIP3    H110868   4.299   0.467   5.316 -0.2156 -0.0287  2.1627
 3637TIP3    H210869   4.204   0.384   5.232 -1.0678  2.1468  0.9076
 3638TIP3   OH210870   0.349   3.601   6.034  0.3222  0.4770  0.1600
 3638TIP3    H110871   0.258   3.613   6.007  0.2903  0.2467  0.1621
 3638TIP3    H210872   0.381   3.530   5.979  0.0464 -0.4898  1.2250
 3639TIP3   OH210873   7.232   4.238   2.758 -0.1729  0.4485 -0.7326
 3639TIP3    H110874   7.252   4.305   2.692 -2.0605  0.9278 -0.8602
 3639TIP3    H210875   7.285   4.163   2.731  2.5978  2.0255 -0.1654
 3640TIP3   OH210876   6.079   4.894   0.034  0.0950  0.1513  0.2165
 3640TIP3    H110877   6.148   4.853  -0.019  1.0936  1.1509  0.6986
 3640TIP3    H210878   6.126   4.951   0.094 -1.2299  2.1219 -0.5158
 3641TIP3   OH210879   7.779   3.050   0.686 -0.0235 -0.5447  0.6459
 3641TIP3    H110880   7.752   3.000   0.763  1.2197 -0.1450  1.3682
 3641TIP3    H210881   7.748   3.139   0.701 -1.1938 -0.7992 -0.0925
 3642TIP3   OH210882   4.543   5.807   3.353 -0.2057  0.4882  0.5168
 3642TIP3    H110883   4.612   5.825   3.417 -1.4240  0.9197  1.7618
 3642TIP3    H210884   4.471   5.773   3.405 -1.6663  1.9411 -0.4453
 3643TIP3   OH210885   1.845   6.426   4.866  0.7444 -0.1518 -0.1688
 3643TIP3    H110886   1.809   6.431   4.955  0.6437  1.0184 -0.2592
 3643TIP3    H210887   1.936   6.454   4.875 -0.0881  3.2988 -0.8551
 3644TIP3   OH210888   3.201   2.282   4.065 -0.4044 -0.1316 -0.5373
 3644TIP3    H110889   3.133   2.349   4.069  0.2612  0.5080  0.2432
 3644TIP3    H210890   3.209   2.249   4.155  0.6245  0.1255 -0.5161
 3645TIP3   OH210891   7.479   5.449   0.454 -0.4571  0.3509 -0.3067
 3645TIP3    H110892   7.436   5.467   0.371 -1.1740  1.4483  0.2766
 3645TIP3    H210893   7.494   5.535   0.493 -1.1217 -0.1654  1.1704
 3646TIP3   OH210894   4.304   4.532   1.425 -0.0941 -0.4680  0.1343
 3646TIP3    H110895   4.298   4.560   1.334  0.0318 -1.9890 -0.3747
 3646TIP3    H210896   4.295   4.437   1.421 -0.4285 -0.5302  1.7505
 3647TIP3   OH210897   7.953   3.525   4.331  0.1873 -0.6327 -0.7742
 3647TIP3    H110898   7.969   3.534   4.425  0.2757 -0.6540 -0.7873
 3647TIP3    H210899   8.030   3.480   4.297  0.8721  0.7341 -1.1013
 3648TIP3   OH210900   8.238   3.835   5.674  0.0583  0.1224 -0.2742
 3648TIP3    H110901   8.237   3.907   5.611  1.6698  0.6610  0.2511
 3648TIP3    H210902   8.147   3.811   5.685 -0.5333  2.0819 -0.4785
 3649TIP3   OH210903   1.139   1.008   5.064  0.1300 -0.1131  0.3198
 3649TIP3    H110904   1.178   0.981   5.147 -0.5350  0.2529  0.7568
 3649TIP3    H210905   1.058   0.957   5.057  1.8550 -2.9134 -1.8622
 3650TIP3   OH210906   3.548   2.633   0.148 -0.2243  1.2707  0.2030
 3650TIP3    H110907   3.463   2.675   0.133 -0.4951  1.6923  2.4973
 3650TIP3    H210908   3.573   2.661   0.236  2.2068  0.9597 -0.3184
 3651TIP3   OH210909   5.337   5.564   4.045  0.1858  0.1895 -0.2737
 3651TIP3    H110910   5.318   5.472   4.066  0.5303  0.0657 -0.4925
 3651TIP3    H210911   5.432   5.566   4.032  0.2243  0.6516  0.0801
 3652TIP3   OH210912   2.164   6.153   2.577 -0.2364 -0.5240  0.3122
 3652TIP3    H110913   2.086   6.187   2.622 -0.2616 -0.7582  0.4473
 3652TIP3    H210914   2.235   6.163   2.641  0.2080  1.2722 -0.4007
 3653TIP3   OH210915   6.282   6.270   6.274  0.5096  0.4541 -0.2297
 3653TIP3    H110916   6.334   6.192   6.294  1.1729  0.7988 -0.5518
 3653TIP3    H210917   6.345   6.330   6.234  0.3962  1.7879  1.4751
 3654TIP3   OH210918   3.914   1.574   0.805  0.1297  0.5935  0.3521
 3654TIP3    H110919   4.007   1.577   0.828  1.0241  0.0156 -2.7761
 3654TIP3    H210920   3.897   1.481   0.788 -1.1566  0.6441  1.2322
 3655TIP3   OH210921   3.494   1.013   6.497  0.1572 -0.9719 -0.3894
 3655TIP3    H110922   3.528   1.086   6.549  0.9522 -0.9479 -0.9240
 3655TIP3    H210923   3.418   1.050   6.451  1.2337 -0.1176 -1.5561
 3656TIP3   OH210924   3.836   4.220   2.325 -0.4757  0.7439 -0.4972
 3656TIP3    H110925   3.901   4.242   2.392 -1.1159 -1.8744  1.1110
 3656TIP3    H210926   3.752   4.235   2.367 -0.9263 -2.8077  0.1927
 3657TIP3   OH210927   3.989   0.649   0.571  0.1080 -0.3836  0.6525
 3657TIP3    H110928   4.075   0.691   0.568  0.2773 -0.7553 -0.0229
 3657TIP3    H210929   3.995   0.578   0.507 -1.0502  0.2557 -0.2082
 3658TIP3   OH210930   6.346   5.956   5.680  0.5244  0.4944 -0.0903
 3658TIP3    H110931   6.373   6.047   5.674  0.5811  0.5939  1.3948
 3658TIP3    H210932   6.426   5.909   5.703  0.0966  0.3909  1.3226
 3659TIP3   OH210933   3.163   0.351   0.614  0.2808  0.7600 -0.1583
 3659TIP3    H110934   3.077   0.338   0.575  0.0427 -2.0274  1.0069
 3659TIP3    H210935   3.149   0.339   0.708  1.6592  2.0528  0.2540
 3660TIP3   OH210936   3.358   7.157   6.029  0.9175  0.0945 -0.3199
 3660TIP3    H110937   3.401   7.086   5.981  2.8862  0.9852  0.0436
 3660TIP3    H210938   3.330   7.219   5.962  1.7618  0.3217 -0.4684
 3661TIP3   OH210939   7.505   2.279   6.253 -0.8954 -0.1020 -0.2815
 3661TIP3    H110940   7.555   2.321   6.184  0.3800  1.5580  1.5331
 3661TIP3    H210941   7.570   2.229   6.303 -1.2878  0.6913  1.0997
 3662TIP3   OH210942   5.631   7.252   1.668  0.0611  0.4457 -0.1120
 3662TIP3    H110943   5.585   7.205   1.598 -0.4212  0.0635  0.4554
 3662TIP3    H210944   5.723   7.251   1.641  0.0176 -0.5746 -0.2439
 3663TIP3   OH210945   6.594   2.081   1.781  0.3501  0.0069  0.3724
 3663TIP3    H110946   6.616   2.031   1.702 -1.6942 -0.0107 -0.2346
 3663TIP3    H210947   6.620   2.171   1.761 -1.0389  0.1940 -0.7569
 3664TIP3   OH210948   0.152   2.269   5.451  0.0460  0.0045 -0.3568
 3664TIP3    H110949   0.070   2.301   5.487  0.3803  0.6698 -0.1633
 3664TIP3    H210950   0.199   2.233   5.526  0.5399  0.9525 -0.1998
 3665TIP3   OH210951   1.534   4.657   1.349  0.3726 -0.1941 -0.3807
 3665TIP3    H110952   1.584   4.738   1.347  2.6805 -1.5350 -0.5229
 3665TIP3    H210953   1.526   4.636   1.442 -2.0514  1.1825 -0.2090
 3666TIP3   OH210954   3.851   4.801   4.034 -0.1322 -0.1900  0.2402
 3666TIP3    H110955   3.934   4.849   4.025  0.5099 -1.2180  0.4906
 3666TIP3    H210956   3.867   4.717   3.992 -1.6138  0.1903 -1.1940
 3667TIP3   OH210957   1.107   4.320   0.067 -0.3380  0.4426 -0.1141
 3667TIP3    H110958   1.172   4.333  -0.002 -0.8818  1.1503 -0.5045
 3667TIP3    H210959   1.103   4.225   0.078  0.4425  0.3699 -0.3862
 3668TIP3   OH210960   0.611   6.760   4.806 -0.3220 -0.1239 -0.7452
 3668TIP3    H110961   0.545   6.727   4.867  0.4176 -0.6053 -0.1895
 3668TIP3    H210962   0.561   6.782   4.727 -1.3310  0.7960  0.1238
 3669TIP3   OH210963   2.061   3.127   0.882  0.7985 -0.4807 -0.6034
 3669TIP3    H110964   2.069   3.087   0.795  0.0756 -2.8211  0.3161
 3669TIP3    H210965   1.973   3.165   0.883  0.9210 -0.1771 -0.9870
 3670TIP3   OH210966   2.420   1.768   3.187 -0.7282  0.2934 -0.4238
 3670TIP3    H110967   2.435   1.805   3.274 -1.6404  1.3895 -0.7134
 3670TIP3    H210968   2.342   1.714   3.197 -0.8055  0.3806 -0.5445
 3671TIP3   OH210969   3.055   5.378   1.645  0.1568  0.0678  0.4153
 3671TIP3    H110970   2.979   5.378   1.588  0.6502 -0.6372 -0.2712
 3671TIP3    H210971   3.022   5.349   1.730  0.0210 -2.4681 -0.4372
 3672TIP3   OH210972   0.318   6.837   6.353  0.0207  0.6831  0.1297
 3672TIP3    H110973   0.325   6.743   6.334 -0.0381  0.9078 -1.1183
 3672TIP3    H210974   0.282   6.875   6.272  1.0596  1.9245  0.2100
 3673TIP3   OH210975   4.758   6.281   2.568  0.5613 -0.3660 -0.1303
 3673TIP3    H110976   4.726   6.224   2.638  1.2328 -0.3547  0.1964
 3673TIP3    H210977   4.780   6.363   2.612  2.1875 -0.7804 -0.1168
 3674TIP3   OH210978   1.887   4.396   0.566 -0.0315 -0.2445 -0.8569
 3674TIP3    H110979   1.870   4.310   0.603 -0.9323 -0.6184 -2.0873
 3674TIP3    H210980   1.931   4.444   0.636 -2.6016 -0.5575  1.1336
 3675TIP3   OH210981   4.659   2.456   3.851  0.3657  0.4987  0.0840
 3675TIP3    H110982   4.749   2.431   3.872  0.5062 -0.5179 -1.4928
 3675TIP3    H210983   4.659   2.552   3.853  1.4679  0.5108  0.1369
 3676TIP3   OH210984   7.718   6.262   3.762 -0.3408 -0.2079 -0.0402
 3676TIP3    H110985   7.648   6.238   3.823 -1.3889  0.0002 -1.1374
 3676TIP3    H210986   7.682   6.245   3.675  0.2807  1.6241 -0.7169
 3677TIP3   OH210987   7.151   4.884   4.492 -0.5427  0.1718  0.5107
 3677TIP3    H110988   7.102   4.843   4.563 -0.2795  1.6755  1.6096
 3677TIP3    H210989   7.241   4.888   4.524 -0.4998  1.2542  0.2982
 3678TIP3   OH210990   7.135   5.091   2.273 -0.3559 -0.2481 -0.2729
 3678TIP3    H110991   7.141   5.115   2.365 -1.1077 -0.3957 -0.1777
 3678TIP3    H210992   7.171   5.003   2.268  0.4232  0.0615 -0.2601
 3679TIP3   OH210993   7.380   2.398   4.424 -0.1753  0.4943 -0.0875
 3679TIP3    H110994   7.427   2.359   4.351 -0.4776  0.0776 -0.0625
 3679TIP3    H210995   7.311   2.451   4.384  0.3807  1.2100 -0.1284
 3680TIP3   OH210996   0.707   5.126   6.648  0.3190 -0.1243 -0.2426
 3680TIP3    H110997   0.770   5.156   6.713  0.5363 -0.6681 -0.2031
 3680TIP3    H210998   0.644   5.198   6.641 -1.4663 -1.2282  2.7860
 3681TIP3   OH210999   6.434   5.791   6.481 -0.1380 -0.8186  0.1567
 3681TIP3    H111000   6.410   5.774   6.572  0.0229 -1.0521  0.1586
 3681TIP3    H211001   6.529   5.781   6.479 -0.2787 -2.3775 -0.3480
 3682TIP3   OH211002   2.951   3.392   4.584  0.3375 -0.3704 -0.6155
 3682TIP3    H111003   3.018   3.361   4.523 -0.5953 -1.0341 -1.3307
 3682TIP3    H211004   2.875   3.410   4.528  0.0496  0.7964  0.1170
 3683TIP3   OH211005   1.205   3.519   1.815 -0.2301 -0.0762  0.0482
 3683TIP3    H111006   1.177   3.574   1.742  3.2087 -1.2506 -2.4464
 3683TIP3    H211007   1.147   3.443   1.812 -1.0997  0.5887 -0.4621
 3684TIP3   OH211008   1.235   1.259   2.067 -0.4357  0.0608 -0.6807
 3684TIP3    H111009   1.163   1.205   2.036 -0.8574  1.4339 -2.2371
 3684TIP3    H211010   1.217   1.346   2.032  1.8539  0.5011 -0.9407
 3685TIP3   OH211011   2.731   6.883   3.278 -0.3306  0.3203 -0.4505
 3685TIP3    H111012   2.658   6.825   3.302 -0.6286  1.0184  0.3516
 3685TIP3    H211013   2.716   6.903   3.186 -0.6297 -0.2892 -0.5417
 3686TIP3   OH211014   2.568   4.061   2.446 -0.4469 -0.1552 -0.4307
 3686TIP3    H111015   2.547   3.973   2.415  2.1812 -0.6330 -1.0733
 3686TIP3    H211016   2.579   4.051   2.540 -0.7561 -0.3765 -0.4164
 3687TIP3   OH211017   3.496   0.619   2.325 -0.0335 -0.6525 -0.2822
 3687TIP3    H111018   3.573   0.564   2.323  0.6831  0.3311 -0.6128
 3687TIP3    H211019   3.445   0.593   2.248 -0.0670 -1.3344 -0.0354
 3688TIP3   OH211020   6.683   5.406   6.704 -0.0047  0.3491  0.5965
 3688TIP3    H111021   6.645   5.434   6.787  0.6400 -0.2217  1.1101
 3688TIP3    H211022   6.615   5.420   6.639 -0.9286 -0.2416  1.4152
 3689TIP3   OH211023   3.432   5.265   3.526  0.2613 -0.1164 -0.0189
 3689TIP3    H111024   3.461   5.175   3.516  0.3084 -0.5155  2.8230
 3689TIP3    H211025   3.512   5.317   3.523  0.4365 -0.3792  0.0848
 3690TIP3   OH211026   4.771   3.371   2.198 -0.1328 -0.0441 -0.3682
 3690TIP3    H111027   4.788   3.447   2.254 -1.3383 -0.1897  0.2306
 3690TIP3    H211028   4.707   3.319   2.246  0.1055 -1.0655 -1.1138
 3691TIP3   OH211029   7.401   1.678   1.445  0.2686  0.1191 -0.4993
 3691TIP3    H111030   7.371   1.762   1.410  0.8947  0.3205 -0.5726
 3691TIP3    H211031   7.410   1.621   1.369 -2.2593 -0.7434 -0.2675
 3692TIP3   OH211032   3.497   7.638   0.498 -0.0051  0.4764 -0.1600
 3692TIP3    H111033   3.458   7.725   0.508  0.4949  0.6391  0.4508
 3692TIP3    H211034   3.578   7.653   0.449 -0.5695  0.1710 -1.2111
 3693TIP3   OH211035   3.562   4.687   0.188  0.6561  0.2917  0.1418
 3693TIP3    H111036   3.631   4.621   0.192 -0.8956 -1.3863  0.1095
 3693TIP3    H211037   3.550   4.703   0.094  0.1929 -0.2836  0.1044
 3694TIP3   OH211038   6.129   6.016   0.461 -0.2758 -0.4673 -0.4028
 3694TIP3    H111039   6.089   5.984   0.380 -2.7606  1.8315 -0.2350
 3694TIP3    H211040   6.182   6.090   0.433  0.8445 -1.1650 -0.1668
 3695TIP3   OH211041   5.768   0.524   4.073  0.5957  0.5929 -0.0757
 3695TIP3    H111042   5.683   0.511   4.032  0.0509  1.6330  0.6803
 3695TIP3    H211043   5.788   0.441   4.115  0.0906  0.2478 -0.5144
 3696TIP3   OH211044   0.230   2.069   6.455  0.5090 -0.0091 -0.4509
 3696TIP3    H111045   0.307   2.098   6.505  0.1077 -0.6073  0.5458
 3696TIP3    H211046   0.182   2.150   6.436 -0.1930  0.1283  1.6243
 3697TIP3   OH211047   6.963   0.541   5.394 -0.2198 -0.6786  0.3638
 3697TIP3    H111048   7.010   0.476   5.342 -1.4320 -2.3863  1.2987
 3697TIP3    H211049   6.915   0.593   5.329  0.2910 -1.1001 -0.3704
 3698TIP3   OH211050   6.126   1.373   4.209  0.5564  0.8081  0.1429
 3698TIP3    H111051   6.160   1.417   4.131  2.2004  0.1100  0.4232
 3698TIP3    H211052   6.115   1.282   4.182  0.9806  0.5967  0.6781
 3699TIP3   OH211053   4.332   2.687   0.117  0.1053 -0.1584 -0.0311
 3699TIP3    H111054   4.325   2.701   0.212 -0.2152  2.3628 -0.3449
 3699TIP3    H211055   4.417   2.723   0.094 -0.8799  1.6876 -1.0046
 3700TIP3   OH211056   0.546   6.603   5.361  0.7525  0.0532 -0.1935
 3700TIP3    H111057   0.514   6.666   5.296  1.4825  0.3087 -0.3078
 3700TIP3    H211058   0.475   6.539   5.367  1.1113 -0.6047 -2.0789
 3701TIP3   OH211059   1.904   3.367   5.707  0.1108 -0.4202  0.7293
 3701TIP3    H111060   1.925   3.449   5.662  1.0055 -0.7630  0.4933
 3701TIP3    H211061   1.928   3.384   5.798 -1.1813  0.0906  0.9893
 3702TIP3   OH211062   6.857   0.517   1.535  0.0649 -0.5655 -0.5678
 3702TIP3    H111063   6.799   0.588   1.565 -0.3828 -0.8905 -0.6503
 3702TIP3    H211064   6.922   0.509   1.604 -1.6521 -2.1264  0.9999
 3703TIP3   OH211065   6.691   1.342   5.021 -0.2531  0.3572  0.4555
 3703TIP3    H111066   6.675   1.271   5.084 -0.0243 -0.5419 -0.4729
 3703TIP3    H211067   6.611   1.346   4.969  0.3762 -0.4277 -0.6262
 3704TIP3   OH211068   8.016   5.685   4.188 -0.0793  0.1951 -0.1475
 3704TIP3    H111069   8.089   5.653   4.240  1.0592  2.1289 -0.4691
 3704TIP3    H211070   8.043   5.672   4.097 -1.2948 -1.4961 -0.3224
 3705TIP3   OH211071   5.812   5.876   6.090 -0.4269  0.0696  0.1183
 3705TIP3    H111072   5.757   5.852   6.015 -1.3002 -1.2336  1.1257
 3705TIP3    H211073   5.866   5.798   6.106  1.2144  1.0536 -0.3679
 3706TIP3   OH211074   3.998   4.640   5.281  0.5513 -1.2364  0.1013
 3706TIP3    H111075   3.935   4.710   5.264 -0.6840 -2.2669  0.3314
 3706TIP3    H211076   4.045   4.629   5.198  0.2277 -0.6702 -0.1624
 3707TIP3   OH211077   5.493   7.643   2.640  0.2686 -0.0433 -0.6338
 3707TIP3    H111078   5.427   7.596   2.691  0.8683  1.2717  1.4531
 3707TIP3    H211079   5.562   7.578   2.626 -0.0750 -0.5406 -0.1011
 3708TIP3   OH211080   5.376   3.221   6.340 -0.4970  0.1027 -0.5850
 3708TIP3    H111081   5.434   3.145   6.332  0.3753  0.7992 -1.1712
 3708TIP3    H211082   5.424   3.281   6.398 -1.1194  0.2476 -0.2194
 3709TIP3   OH211083   2.355   0.142   5.090 -0.6703 -0.5634 -0.4346
 3709TIP3    H111084   2.270   0.099   5.101 -1.4270  0.6471 -1.2947
 3709TIP3    H211085   2.334   0.235   5.092  0.8117 -0.2237  0.5535
 3710TIP3   OH211086   0.043   4.464   5.713 -0.3857 -0.0914  0.4917
 3710TIP3    H111087   0.010   4.513   5.788  0.9098  0.8368  0.4801
 3710TIP3    H211088   0.083   4.386   5.751 -0.6904 -0.1620  0.6731
 3711TIP3   OH211089   6.903   6.951   3.378  0.0787  0.0973  0.2127
 3711TIP3    H111090   6.821   6.902   3.374  0.8841 -1.2930 -0.0920
 3711TIP3    H211091   6.880   7.032   3.424 -1.1532 -0.9173  1.5105
 3712TIP3   OH211092   3.135   5.294   2.284 -0.2311  0.0787 -0.1476
 3712TIP3    H111093   3.223   5.325   2.261  0.0660 -1.1880 -0.8364
 3712TIP3    H211094   3.076   5.352   2.236  0.2103  1.0553  0.4605
 3713TIP3   OH211095   0.770   5.543   2.301 -0.0094  0.4684 -0.0360
 3713TIP3    H111096   0.738   5.544   2.211  1.0774  1.7937 -0.4581
 3713TIP3    H211097   0.781   5.451   2.323  0.5157  0.1422 -1.5810
 3714TIP3   OH211098   0.360   1.357   3.079  0.0616  0.2535 -0.2773
 3714TIP3    H111099   0.337   1.410   3.156  0.7926  0.5485 -0.2535
 3714TIP3    H211100   0.419   1.290   3.113  1.1130  0.9345 -0.7263
 3715TIP3   OH211101   7.493   6.179   3.127  0.2521 -0.0469  0.0393
 3715TIP3    H111102   7.529   6.265   3.104  4.0374 -2.0125 -2.3213
 3715TIP3    H211103   7.554   6.144   3.192  0.2005 -1.8925 -0.8726
 3716TIP3   OH211104   0.324   1.881   4.380  0.2488  0.2896 -0.0398
 3716TIP3    H111105   0.391   1.935   4.422  1.2532 -1.1137  0.2319
 3716TIP3    H211106   0.370   1.835   4.310 -0.6196 -0.0722 -0.3872
 3717TIP3   OH211107   6.496   7.477   5.160 -0.3689  0.1554 -0.5973
 3717TIP3    H111108   6.557   7.506   5.093  0.3757 -1.3244 -0.6031
 3717TIP3    H211109   6.542   7.492   5.243 -0.2401 -0.4004 -0.5671
 3718TIP3   OH211110   7.162   2.499   1.481 -0.3547  0.4519 -0.0044
 3718TIP3    H111111   7.171   2.534   1.570  0.5530 -0.5729  0.3298
 3718TIP3    H211112   7.153   2.405   1.494  0.6512  0.1948 -1.0309
 3719TIP3   OH211113   4.798   1.604   1.640 -0.1765  0.0075  0.4636
 3719TIP3    H111114   4.819   1.622   1.731 -1.9476 -3.6192  1.7769
 3719TIP3    H211115   4.839   1.519   1.622  0.0339  0.5791 -2.1138
 3720TIP3   OH211116   8.250   0.893   1.234 -0.1705  0.2612  0.1703
 3720TIP3    H111117   8.322   0.875   1.295 -0.3422  0.0095  0.3027
 3720TIP3    H211118   8.172   0.866   1.282 -0.2048 -1.1486 -0.6234
 3721TIP3   OH211119   0.255   5.566   2.329 -0.7525  0.3406 -0.3647
 3721TIP3    H111120   0.304   5.630   2.380 -0.0486 -1.2723  1.0813
 3721TIP3    H211121   0.178   5.614   2.298 -0.2172  1.8885  0.5886
 3722TIP3   OH211122   5.069   7.670   5.709  0.1026  0.3144  0.4032
 3722TIP3    H111123   5.066   7.619   5.790  0.6895 -0.1819  0.1170
 3722TIP3    H211124   5.158   7.705   5.706  0.4958 -0.7112 -0.6451
 3723TIP3   OH211125   3.132   4.154   5.831 -0.2745  0.3583 -0.3922
 3723TIP3    H111126   3.093   4.163   5.918 -1.8292 -0.0619 -1.0008
 3723TIP3    H211127   3.217   4.112   5.846 -0.7879 -0.2769  0.8768
 3724TIP3   OH211128   1.113   5.716   0.125 -0.2082  0.2910  0.4690
 3724TIP3    H111129   1.046   5.665   0.079 -0.9551 -1.8155  3.5515
 3724TIP3    H211130   1.186   5.720   0.064 -0.7780 -3.0917 -0.6334
 3725TIP3   OH211131   5.737   4.022   2.294  0.3442 -0.4692 -0.2109
 3725TIP3    H111132   5.721   3.970   2.373 -0.3899  1.0596  0.6883
 3725TIP3    H211133   5.704   4.109   2.315  4.2407  1.2937 -0.5212
 3726TIP3   OH211134   7.728   1.744   1.046 -0.3802 -0.6436 -0.1342
 3726TIP3    H111135   7.656   1.803   1.025  0.8372  0.4638 -1.3707
 3726TIP3    H211136   7.790   1.798   1.095 -1.4049 -2.1994  3.2073
 3727TIP3   OH211137   3.432   6.603   0.298 -0.5659  0.9056  0.2663
 3727TIP3    H111138   3.375   6.533   0.331 -0.7605  1.2565  0.6884
 3727TIP3    H211139   3.416   6.604   0.204  0.7195 -0.7621 -0.0199
 3728TIP3   OH211140   0.181   6.952   5.607 -0.8612  0.1041  0.3412
 3728TIP3    H111141   0.269   6.939   5.643 -0.9497 -0.6522  0.2975
 3728TIP3    H211142   0.173   6.885   5.539  0.0241  2.5947 -2.4651
 3729TIP3   OH211143   0.773   1.803   4.224 -0.0664 -0.1386 -0.4688
 3729TIP3    H111144   0.756   1.710   4.233 -1.0805  0.0123 -0.6805
 3729TIP3    H211145   0.867   1.809   4.208  0.2203 -1.0317  0.7357
 3730TIP3   OH211146   0.824   2.781   2.915 -0.1964  0.2603  0.0552
 3730TIP3    H111147   0.846   2.830   2.836  0.8902 -0.5574 -0.1777
 3730TIP3    H211148   0.812   2.848   2.982 -1.2653  0.9746 -0.8074
 3731TIP3   OH211149   6.479   1.671   2.818 -0.0350  0.4980  0.4830
 3731TIP3    H111150   6.459   1.600   2.879 -0.2285 -0.5991 -0.8056
 3731TIP3    H211151   6.566   1.649   2.784 -1.3117 -0.8690 -2.1976
 3732TIP3   OH211152   5.181   1.865   1.622 -0.0289  0.0313 -0.6856
 3732TIP3    H111153   5.222   1.799   1.679 -3.5897 -1.4852  0.3856
 3732TIP3    H211154   5.205   1.838   1.534 -0.3081 -1.9871 -0.2114
 3733TIP3   OH211155   4.655   4.029   0.050 -0.4570  0.1464 -0.7232
 3733TIP3    H111156   4.647   4.078   0.132 -3.4841  1.1255 -1.4641
 3733TIP3    H211157   4.700   3.948   0.075  2.2467  2.0350  1.0736
 3734TIP3   OH211158   2.008   7.344   3.180  0.0950 -0.1437 -0.3132
 3734TIP3    H111159   1.938   7.288   3.147 -0.1796 -0.5225  0.8595
 3734TIP3    H211160   1.963   7.423   3.213  0.4136  0.4775 -1.3266
 3735TIP3   OH211161   1.634   4.195   5.927  0.3329 -0.3431 -0.2800
 3735TIP3    H111162   1.630   4.273   5.983  0.9992 -0.4305 -0.1048
 3735TIP3    H211163   1.584   4.219   5.849  0.5813  0.2790 -0.2504
 3736TIP3   OH211164   4.302   4.013   0.315  0.2951 -0.1299  0.0427
 3736TIP3    H111165   4.208   4.006   0.333  0.1232  2.1049  0.2396
 3736TIP3    H211166   4.312   3.982   0.225 -0.5292 -0.9360  0.2129
 3737TIP3   OH211167   5.644   5.628   3.065 -0.3926  0.2388  0.0600
 3737TIP3    H111168   5.683   5.562   3.122  0.8812  0.8484 -0.0600
 3737TIP3    H211169   5.637   5.585   2.980 -2.2053 -0.6387  0.6034
 3738TIP3   OH211170   7.245   7.373   5.544  0.3049 -0.2132 -0.1145
 3738TIP3    H111171   7.197   7.442   5.590 -2.7246 -0.5693 -2.4113
 3738TIP3    H211172   7.232   7.295   5.598 -1.1060 -0.1207 -0.2721
 3739TIP3   OH211173   1.499   0.616   6.573 -0.9111 -0.4468 -0.7356
 3739TIP3    H111174   1.560   0.646   6.505 -0.4888 -1.2264 -0.7133
 3739TIP3    H211175   1.549   0.551   6.623 -1.9616 -1.5734 -1.1077
 3740TIP3   OH211176   5.488   2.423   3.222  0.1107 -0.4860  0.3403
 3740TIP3    H111177   5.474   2.349   3.163  1.7585  0.1760 -0.9616
 3740TIP3    H211178   5.505   2.497   3.164 -0.4883  0.7072  1.6285
 3741TIP3   OH211179   4.357   3.347   1.294 -0.7055  0.2240  0.8933
 3741TIP3    H111180   4.451   3.363   1.303 -0.7161 -0.6287  2.9667
 3741TIP3    H211181   4.332   3.398   1.217  1.4024  0.6426  0.4117
 3742TIP3   OH211182   3.757   3.052   6.481  0.2805  0.0292 -0.0035
 3742TIP3    H111183   3.820   3.043   6.552  1.5796 -0.3373 -1.1656
 3742TIP3    H211184   3.751   2.964   6.444 -0.2958  0.2442 -0.4353
 3743TIP3   OH211185   4.224   2.062   2.108 -0.0259  0.6067 -0.3123
 3743TIP3    H111186   4.249   1.989   2.051  1.8298  0.0402  1.1272
 3743TIP3    H211187   4.161   2.024   2.170 -0.7547  0.8068 -0.9159
 3744TIP3   OH211188   0.297   4.660   6.226 -0.1883  0.0085  0.1171
 3744TIP3    H111189   0.318   4.747   6.260 -0.2842 -0.1441  0.5675
 3744TIP3    H211190   0.233   4.625   6.288 -1.1933  0.1619 -0.7988
 3745TIP3   OH211191   4.217   6.719   3.192  0.0421  0.5978 -0.0895
 3745TIP3    H111192   4.220   6.646   3.255  1.3281 -0.1712 -0.9850
 3745TIP3    H211193   4.138   6.703   3.141  1.1458 -1.2191 -1.3850
 3746TIP3   OH211194   7.911   1.386   2.854  0.2438  0.1189 -0.6552
 3746TIP3    H111195   7.956   1.470   2.846  0.1896  0.4023  1.4718
 3746TIP3    H211196   7.823   1.402   2.817  0.7401  0.5124 -1.7113
 3747TIP3   OH211197   1.470   0.463   5.765 -0.2993 -0.2344 -0.3988
 3747TIP3    H111198   1.538   0.522   5.797  0.2181 -0.4630 -1.0565
 3747TIP3    H211199   1.402   0.521   5.730 -0.5411 -0.0025  0.4237
 3748TIP3   OH211200   5.697   7.443   0.077 -0.1144 -0.4365 -0.6281
 3748TIP3    H111201   5.726   7.384   0.008 -0.9977 -0.6180 -0.8583
 3748TIP3    H211202   5.685   7.386   0.153  1.7487 -0.1000 -0.0272
 3749TIP3   OH211203   0.286   2.149   1.725  0.2303 -0.5802 -0.0335
 3749TIP3    H111204   0.373   2.164   1.761  0.6347 -1.1601 -0.7449
 3749TIP3    H211205   0.253   2.073   1.774 -0.8035  0.9412  1.7956
 3750TIP3   OH211206   4.922   2.606   6.584 -0.1279 -0.0431  0.1757
 3750TIP3    H111207   4.979   2.683   6.588 -0.2216 -0.0211  2.3274
 3750TIP3    H211208   4.981   2.535   6.559  0.4198  0.3505  0.3046
 3751TIP3   OH211209   1.185   3.405   0.902 -0.4946  0.3415  0.0789
 3751TIP3    H111210   1.113   3.354   0.865 -0.1663 -0.9426  1.1001
 3751TIP3    H211211   1.245   3.421   0.829  0.8045 -3.2639  0.1526
 3752TIP3   OH211212   2.233   0.271   3.789  0.4814  0.5052  0.0285
 3752TIP3    H111213   2.194   0.187   3.814  0.0451  0.3185 -1.2162
 3752TIP3    H211214   2.191   0.293   3.706  2.1177  0.9106 -0.7377
 3753TIP3   OH211215   3.950   3.203   6.051 -0.2533 -0.1267 -0.0646
 3753TIP3    H111216   3.917   3.218   6.139  0.3617  0.5116  0.0667
 3753TIP3    H211217   3.879   3.157   6.006 -0.1808 -1.3873  1.0510
 3754TIP3   OH211218   7.450   6.287   4.804  0.5947  0.1070 -0.2332
 3754TIP3    H111219   7.445   6.199   4.840 -3.3006  0.2058 -0.1190
 3754TIP3    H211220   7.425   6.276   4.712  1.2601  0.9662 -0.5285
 3755TIP3   OH211221   7.987   2.155   6.437 -0.3390 -0.9885 -0.1282
 3755TIP3    H111222   7.919   2.141   6.504  0.4016  0.2439  0.9377
 3755TIP3    H211223   7.942   2.141   6.354 -1.5014 -1.7354  0.5930
 3756TIP3   OH211224   1.276   3.127   2.294 -0.4340 -0.0323  0.3517
 3756TIP3    H111225   1.327   3.201   2.325  0.3799 -1.5103  2.7638
 3756TIP3    H211226   1.255   3.149   2.203  2.9090  1.4924 -0.2056
 3757TIP3   OH211227   4.115   1.104   2.854  0.0952  0.5098  0.7122
 3757TIP3    H111228   4.048   1.054   2.807  0.5684  0.1469  0.4157
 3757TIP3    H211229   4.100   1.084   2.946 -2.0202  2.6604  0.9113
 3758TIP3   OH211230   7.021   6.241   3.723  0.4566  0.4591 -0.4523
 3758TIP3    H111231   6.973   6.259   3.642 -1.1088  1.0411  0.5646
 3758TIP3    H211232   7.039   6.327   3.760 -0.1252  0.1760  0.5281
 3759TIP3   OH211233   6.022   2.919   2.928  0.2863  0.2016  0.6177
 3759TIP3    H111234   6.069   2.899   3.009  2.4208  2.3529  0.0208
 3759TIP3    H211235   5.983   3.005   2.944  0.1776  0.3498 -0.4214
 3760TIP3   OH211236   6.418   2.035   5.716 -0.5029 -0.2685 -0.1149
 3760TIP3    H111237   6.407   2.073   5.802 -0.5522 -1.5716  0.4782
 3760TIP3    H211238   6.415   2.110   5.656 -1.7854  0.5174  0.8817
 3761TIP3   OH211239   8.149   0.583   1.428 -1.1326 -0.2391  0.4107
 3761TIP3    H111240   8.087   0.639   1.380 -0.7268  1.1491  1.4416
 3761TIP3    H211241   8.162   0.508   1.371 -1.0643  1.1022 -1.4308
 3762TIP3   OH211242   7.270   0.000   5.446  0.2754 -0.1623 -0.2195
 3762TIP3    H111243   7.351  -0.038   5.481  0.3293 -0.3966 -0.6040
 3762TIP3    H211244   7.261   0.083   5.494 -0.4467 -1.1609  1.4642
 3763TIP3   OH211245   5.104   4.805   5.704 -0.2202 -0.1258 -0.4929
 3763TIP3    H111246   5.034   4.771   5.649 -1.5056  0.6170  0.6133
 3763TIP3    H211247   5.153   4.727   5.732 -0.6381 -0.6608 -1.2304
 3764TIP3   OH211248   8.159   3.079   3.422  0.1505  0.1342  0.1424
 3764TIP3    H111249   8.107   3.133   3.481  0.0806 -1.3326  1.4872
 3764TIP3    H211250   8.127   2.990   3.436  2.2168 -0.6632  0.1358
 3765TIP3   OH211251   4.792   4.903   6.013  0.5474 -0.1578  0.1350
 3765TIP3    H111252   4.788   4.872   5.923  0.6906  1.9915 -0.6706
 3765TIP3    H211253   4.848   4.981   6.009 -1.6897  1.6307  1.5478
 3766TIP3   OH211254   2.185   3.371   0.834  0.6745 -0.8336 -0.7542
 3766TIP3    H111255   2.181   3.280   0.861  0.6170  0.1485  3.0731
 3766TIP3    H211256   2.243   3.371   0.757  1.7351 -3.8981 -0.0840
 3767TIP3   OH211257   4.940   1.748   1.208 -0.5834 -0.5363  1.0834
 3767TIP3    H111258   4.850   1.714   1.207 -0.6479 -0.3604 -0.5682
 3767TIP3    H211259   4.941   1.816   1.141  0.3552  0.6826  2.2821
 3768TIP3   OH211260   3.733   1.908   6.050 -0.1606  0.2673  0.0172
 3768TIP3    H111261   3.660   1.848   6.065 -0.1085  0.2060  0.0268
 3768TIP3    H211262   3.781   1.869   5.976 -0.4905  0.6374 -0.3917
 3769TIP3   OH211263   0.154   0.783   5.017  0.2820 -0.4997 -0.1453
 3769TIP3    H111264   0.093   0.788   5.090  2.2791  3.8531  1.5834
 3769TIP3    H211265   0.212   0.710   5.039 -0.5334 -0.7344  1.3751
 3770TIP3   OH211266   7.165   2.280   1.080 -0.1159 -0.2539  0.0115
 3770TIP3    H111267   7.247   2.267   1.127  0.6160 -0.9663 -1.3794
 3770TIP3    H211268   7.163   2.209   1.016 -0.6005  1.1576 -1.6272
 3771TIP3   OH211269   1.563   7.382   1.806  0.8432  0.2703  0.7045
 3771TIP3    H111270   1.503   7.457   1.800 -1.6667 -1.7332 -2.2931
 3771TIP3    H211271   1.623   7.392   1.732  1.5433  0.1148  1.2407
 3772TIP3   OH211272   7.867   4.120   0.140 -0.2277  0.0999  0.3716
 3772TIP3    H111273   7.836   4.048   0.085 -0.0449  0.7759 -0.6389
 3772TIP3    H211274   7.846   4.092   0.229 -1.8560 -0.3788 -0.1320
 3773TIP3   OH211275   0.792   6.467   5.340 -0.3388 -0.3772  0.2690
 3773TIP3    H111276   0.756   6.396   5.288 -1.4131 -0.6631  1.3727
 3773TIP3    H211277   0.720   6.529   5.350  0.3374  0.4750  0.0408
 3774TIP3   OH211278   5.296   7.170   6.161  0.5526  0.0011  0.8861
 3774TIP3    H111279   5.344   7.170   6.078 -0.5071 -3.0501  0.1331
 3774TIP3    H211280   5.226   7.105   6.148 -3.2990  3.4165  2.2252
 3775TIP3   OH211281   6.898   5.329   0.145 -1.1048  0.3438 -0.3186
 3775TIP3    H111282   6.941   5.376   0.216  0.0050 -3.5212  1.8197
 3775TIP3    H211283   6.944   5.358   0.066  1.7341  0.4546  1.2463
 3776TIP3   OH211284   0.576   1.534   4.217 -0.3583 -0.0394  0.8105
 3776TIP3    H111285   0.519   1.483   4.159  0.1052  0.0259  0.2908
 3776TIP3    H211286   0.551   1.506   4.305 -1.8172  0.6337  0.6456
 3777TIP3   OH211287   1.921   5.152   2.462  0.1391  0.2923  0.4552
 3777TIP3    H111288   1.896   5.158   2.555  1.8144  0.0816  0.9550
 3777TIP3    H211289   1.893   5.065   2.435  0.4219  0.0100  1.0399
 3778TIP3   OH211290   0.888   6.764   5.952 -0.2336  0.6901  0.3174
 3778TIP3    H111291   0.806   6.789   5.909 -0.7103  0.7277  1.2250
 3778TIP3    H211292   0.931   6.848   5.971  0.0381  0.6689 -0.1988
 3779TIP3   OH211293   3.491   5.973   1.824  0.0239 -0.7726  0.0117
 3779TIP3    H111294   3.467   5.946   1.913 -2.2143 -1.4923 -0.7347
 3779TIP3    H211295   3.417   5.945   1.770  1.1943 -0.0933 -2.0513
 3780TIP3   OH211296   6.803   0.867   6.050 -0.1102 -0.4194 -0.0079
 3780TIP3    H111297   6.773   0.949   6.088 -0.8273 -0.1622 -1.0762
 3780TIP3    H211298   6.893   0.857   6.080 -0.6057 -0.1670  1.6083
 3781TIP3   OH211299   3.800   5.892   2.687 -0.1705  0.0416 -0.1922
 3781TIP3    H111300   3.782   5.983   2.710 -1.0871 -0.2191  0.1398
 3781TIP3    H211301   3.884   5.896   2.641 -0.0346  1.0098  0.1087
 3782TIP3   OH211302   0.331   6.084   6.237 -0.2499  0.0757 -0.1678
 3782TIP3    H111303   0.358   5.998   6.270  2.3006  0.2567 -1.4936
 3782TIP3    H211304   0.254   6.065   6.184 -1.0657 -1.0310  1.3367
 3783TIP3   OH211305   0.129   4.085   0.534 -0.3749  0.4109 -0.5085
 3783TIP3    H111306   0.095   3.998   0.515  1.0530 -0.5300  1.0117
 3783TIP3    H211307   0.222   4.080   0.512 -0.2593  1.5280 -0.3404
 3784TIP3   OH211308   6.966   1.647   0.799 -1.0520  0.4470 -0.2677
 3784TIP3    H111309   7.061   1.658   0.794 -1.0020  1.5516  1.8170
 3784TIP3    H211310   6.953   1.579   0.864 -1.7091  0.2125 -0.6331
 3785TIP3   OH211311   7.421   4.202   5.693  0.5125  0.1734  0.1722
 3785TIP3    H111312   7.515   4.193   5.678  0.4758  0.6777 -0.4254
 3785TIP3    H211313   7.382   4.190   5.607 -0.2148 -2.6347  0.8034
 3786TIP3   OH211314   4.597   1.319   0.470 -0.3472  0.1092 -0.4155
 3786TIP3    H111315   4.692   1.329   0.479 -0.0797 -1.7616 -0.7474
 3786TIP3    H211316   4.564   1.323   0.560  0.2846 -1.1202 -0.1073
 3787TIP3   OH211317   3.019   1.139   3.157 -0.1725  0.0257  0.6624
 3787TIP3    H111318   2.937   1.126   3.204 -0.8361  1.0723 -0.1655
 3787TIP3    H211319   2.994   1.185   3.076  1.1214 -0.3569  0.0111
 3788TIP3   OH211320   4.761   4.438   3.848  0.4923 -0.4737  0.2249
 3788TIP3    H111321   4.808   4.400   3.921  0.9151  0.0109  0.2083
 3788TIP3    H211322   4.826   4.444   3.778 -0.1352 -1.8389 -0.5321
 3789TIP3   OH211323   4.620   0.066   0.923  0.0219  0.4848  0.1283
 3789TIP3    H111324   4.596  -0.026   0.930 -2.0177  1.0694  1.7323
 3789TIP3    H211325   4.605   0.102   1.010  2.3866  2.0315  0.0036
 3790TIP3   OH211326   6.133   1.457   6.407 -0.5386  0.2059  0.6973
 3790TIP3    H111327   6.113   1.529   6.467  1.1855  2.4959 -1.2710
 3790TIP3    H211328   6.229   1.457   6.403 -0.5181 -1.9032  0.2030
 3791TIP3   OH211329   3.618   5.626   2.231 -0.1966 -0.4467 -0.0256
 3791TIP3    H111330   3.706   5.663   2.243  0.4560 -2.3242  1.4083
 3791TIP3    H211331   3.599   5.583   2.315 -2.8538  0.6017 -0.0011
 3792TIP3   OH211332   2.934   5.849   1.118  0.3583  0.3299 -0.5644
 3792TIP3    H111333   2.991   5.925   1.126  1.6963 -0.7414  0.7660
 3792TIP3    H211334   2.845   5.885   1.118  0.8561  1.7989  2.1806
 3793TIP3   OH211335   6.418   2.029   3.356 -0.2420 -0.0388  0.4866
 3793TIP3    H111336   6.363   2.028   3.435  0.9059  2.0176  1.4208
 3793TIP3    H211337   6.406   2.117   3.320  1.2176 -0.0661 -0.1540
 3794TIP3   OH211338   6.586   3.942   4.665 -0.7927 -0.2404 -0.3962
 3794TIP3    H111339   6.510   3.914   4.615 -0.5468 -0.5500 -0.6068
 3794TIP3    H211340   6.551   3.997   4.735 -1.3699 -1.5745  0.4018
 3795TIP3   OH211341   0.373   5.780   0.191  0.3905  0.4168  0.1126
 3795TIP3    H111342   0.395   5.862   0.146 -0.1850  1.0680  1.0014
 3795TIP3    H211343   0.323   5.730   0.126  1.4177  0.4237 -0.7014
 3796TIP3   OH211344   6.818   5.388   2.835 -0.3703 -0.0888 -0.6283
 3796TIP3    H111345   6.766   5.378   2.755 -0.8991 -0.5106 -0.2395
 3796TIP3    H211346   6.907   5.406   2.804 -1.0407  2.4089 -1.3184
 3797TIP3   OH211347   0.650   2.408   6.574  0.0841 -0.4164  0.0863
 3797TIP3    H111348   0.657   2.353   6.496  0.0367 -1.5164  0.8526
 3797TIP3    H211349   0.628   2.495   6.539  0.2274 -0.8514 -1.1350
 3798TIP3   OH211350   2.761   0.387   3.206  0.1647 -0.0357 -0.1312
 3798TIP3    H111351   2.678   0.339   3.210 -0.9392  1.4994 -2.4252
 3798TIP3    H211352   2.739   0.474   3.239  1.0352  0.1951 -0.1445
 3799TIP3   OH211353   5.265   3.201   5.940 -0.1027 -0.4558  0.1306
 3799TIP3    H111354   5.226   3.265   5.999 -0.3937  1.1589 -1.7084
 3799TIP3    H211355   5.297   3.132   5.998 -0.5871  0.8982  2.1345
 3800TIP3   OH211356   8.186   3.173   1.897 -0.4362 -0.1012  0.0742
 3800TIP3    H111357   8.125   3.243   1.919  0.9060  0.5653  1.9660
 3800TIP3    H211358   8.246   3.212   1.834 -0.7379 -0.1134 -0.2225
 3801TIP3   OH211359   7.402   2.904   6.319  0.1236 -0.2109  0.9068
 3801TIP3    H111360   7.450   2.954   6.253 -0.3343  0.7365  1.2765
 3801TIP3    H211361   7.344   2.848   6.268 -0.8958  1.1739  0.4906
 3802TIP3   OH211362   6.829   4.542   4.256  0.0202  0.7057 -0.0804
 3802TIP3    H111363   6.801   4.626   4.219 -2.3915  0.5290  1.0837
 3802TIP3    H211364   6.838   4.560   4.350 -1.2599 -0.4282  0.2981
 3803TIP3   OH211365   7.994   3.069   1.223  0.2542 -0.4125  0.2291
 3803TIP3    H111366   7.908   3.082   1.182  0.3142  0.5970  0.4118
 3803TIP3    H211367   7.976   3.010   1.296 -0.0050 -1.5055 -0.6848
 3804TIP3   OH211368   7.948   0.892   2.360  0.0059 -0.2750  0.1119
 3804TIP3    H111369   8.030   0.939   2.373  0.0458  0.7230 -2.9475
 3804TIP3    H211370   7.889   0.958   2.323 -1.5855 -1.4385  0.4957
 3805TIP3   OH211371   4.846   6.003   5.573  0.1436  0.1365  0.1455
 3805TIP3    H111372   4.882   5.937   5.514  1.2049 -1.2007  2.1795
 3805TIP3    H211373   4.751   5.993   5.564  0.2791 -0.3861 -0.9192
 3806TIP3   OH211374   7.772   6.927   4.250 -0.3380  0.3112  0.0187
 3806TIP3    H111375   7.718   6.927   4.329  0.0858  0.2561  0.3149
 3806TIP3    H211376   7.741   7.002   4.199  1.1154  2.0018  1.4535
 3807TIP3   OH211377   5.251   2.133   1.689 -0.3897 -0.2625 -0.1031
 3807TIP3    H111378   5.195   2.069   1.644 -0.9701 -0.2176  0.5439
 3807TIP3    H211379   5.335   2.125   1.645 -1.0781  0.1536 -1.5473
 3808TIP3   OH211380   2.456   2.385   3.726 -0.7621 -0.0815 -0.6949
 3808TIP3    H111381   2.384   2.448   3.726  0.0562  0.8964  0.4365
 3808TIP3    H211382   2.458   2.353   3.816 -0.4418 -0.8902 -0.9852
 3809TIP3   OH211383   1.576   5.039   1.855 -0.4239 -0.4461  0.3383
 3809TIP3    H111384   1.572   5.133   1.838 -0.2348  0.0102  2.4980
 3809TIP3    H211385   1.497   5.020   1.905  0.8972 -0.8268  2.3815
 3810TIP3   OH211386   1.070   2.759   0.755 -0.2658 -0.7502 -0.4740
 3810TIP3    H111387   1.140   2.790   0.698 -0.7993 -0.4569 -0.9833
 3810TIP3    H211388   1.100   2.780   0.844  0.2796 -0.6198 -0.6857
 3811TIP3   OH211389   3.105   4.087   2.218 -0.2110 -0.1972 -0.3334
 3811TIP3    H111390   3.042   4.146   2.260 -0.0863 -0.7764  0.7241
 3811TIP3    H211391   3.166   4.145   2.173 -1.6842  0.3694 -1.7080
 3812TIP3   OH211392   1.794   1.928   5.438  1.1081  0.3330  0.4303
 3812TIP3    H111393   1.775   1.880   5.357  0.3041  0.5333  0.4896
 3812TIP3    H211394   1.741   1.883   5.504  0.4370  1.2148  0.5101
 3813TIP3   OH211395   3.887   2.757   5.313  0.4337 -0.2114 -0.1699
 3813TIP3    H111396   3.916   2.763   5.404  1.5835 -0.9497 -0.4694
 3813TIP3    H211397   3.886   2.848   5.282  2.3121 -0.1297 -0.0858
 3814TIP3   OH211398   2.342   1.703   2.904 -0.0356 -0.3775 -0.0775
 3814TIP3    H111399   2.268   1.764   2.913  0.7816  1.6037 -4.2520
 3814TIP3    H211400   2.419   1.759   2.896  0.8598 -1.7914 -3.3205
 3815TIP3   OH211401   6.488   4.584   2.385 -1.1636  0.3627  0.1722
 3815TIP3    H111402   6.480   4.668   2.431  2.1738  0.0945  1.5257
 3815TIP3    H211403   6.538   4.529   2.445 -1.7530 -2.0571 -1.4105
 3816TIP3   OH211404   4.511   4.258   5.497 -0.3512 -0.1416  0.1362
 3816TIP3    H111405   4.586   4.319   5.500 -0.5725  0.1182  2.6088
 3816TIP3    H211406   4.439   4.308   5.535 -2.0004 -0.2094 -2.7066
 3817TIP3   OH211407   1.850   1.547   6.167 -0.2834 -0.0140  0.3006
 3817TIP3    H111408   1.856   1.577   6.257 -1.6449  0.2014  0.3408
 3817TIP3    H211409   1.873   1.454   6.171 -0.4391 -0.0330  0.8962
 3818TIP3   OH211410   7.258   0.101   0.412 -0.1569  0.3746 -0.2085
 3818TIP3    H111411   7.252   0.103   0.317 -0.1607  0.6042 -0.2030
 3818TIP3    H211412   7.174   0.136   0.443 -0.6429 -0.8376 -0.1144
 3819TIP3   OH211413   0.424   3.139   6.638  0.4422 -0.4871 -0.2261
 3819TIP3    H111414   0.511   3.133   6.600 -0.0006  0.0776 -1.3715
 3819TIP3    H211415   0.366   3.154   6.564 -0.6754 -1.1440  0.4766
 3820TIP3   OH211416   2.366   2.461   3.980 -0.0543  0.0955 -0.4270
 3820TIP3    H111417   2.372   2.455   4.075 -2.1916 -0.1888 -0.2521
 3820TIP3    H211418   2.421   2.536   3.957  2.9952 -1.6750  0.6298
 3821TIP3   OH211419   5.575   7.236   0.568 -0.1122  0.5939  0.5830
 3821TIP3    H111420   5.601   7.295   0.639  0.2709  0.8733  0.2164
 3821TIP3    H211421   5.645   7.171   0.563  0.5954  1.3921 -0.4571
 3822TIP3   OH211422   5.148   2.852   0.040  0.2833 -0.0390  0.1685
 3822TIP3    H111423   5.151   2.822  -0.051 -1.7254  0.2160 -0.0238
 3822TIP3    H211424   5.193   2.783   0.089  1.8334  0.0544 -1.0370
 3823TIP3   OH211425   2.781   0.838   6.312  0.0729  0.4027  0.2621
 3823TIP3    H111426   2.704   0.790   6.343  0.8824 -0.9579  0.2579
 3823TIP3    H211427   2.787   0.914   6.369  0.2209 -0.8404  1.9628
 3824TIP3   OH211428   4.990   0.766   0.674  0.4346 -0.3617  1.2589
 3824TIP3    H111429   4.971   0.682   0.632 -1.0819  0.8658 -0.6761
 3824TIP3    H211430   4.904   0.806   0.687  1.1714  1.3201  1.1962
 3825TIP3   OH211431   5.397   3.902   5.173 -0.1540  0.0376  0.1061
 3825TIP3    H111432   5.422   3.978   5.226 -0.1881  0.4137 -0.4086
 3825TIP3    H211433   5.359   3.841   5.235  0.0815  0.3517  0.5637
 3826TIP3   OH211434   0.993   6.092   3.431  0.2563 -0.6374  0.3276
 3826TIP3    H111435   0.962   6.177   3.401 -1.9910 -1.6855 -0.6187
 3826TIP3    H211436   1.080   6.108   3.466 -0.4278  2.1824  0.9815
 3827TIP3   OH211437   4.640   5.063   2.486 -0.3573  0.9168  0.5363
 3827TIP3    H111438   4.719   5.108   2.457 -0.2143  1.0174  1.0726
 3827TIP3    H211439   4.609   5.017   2.408  1.2217 -0.5752  0.7287
 3828TIP3   OH211440   4.200   4.287   3.582 -0.6072 -0.7152  0.1355
 3828TIP3    H111441   4.264   4.348   3.545  0.1694 -0.8629  1.1968
 3828TIP3    H211442   4.186   4.318   3.671 -2.2402 -0.5271 -0.1517
 3829TIP3   OH211443   4.826   7.760   0.960 -0.2438  0.2763 -0.9737
 3829TIP3    H111444   4.892   7.712   0.910 -1.5378 -1.1336 -1.3755
 3829TIP3    H211445   4.857   7.851   0.958  1.3900 -0.2520 -1.6084
 3830TIP3   OH211446   1.435   3.837   2.599  0.1692 -0.9277  0.0326
 3830TIP3    H111447   1.464   3.761   2.649  0.1358 -1.4900 -0.7981
 3830TIP3    H211448   1.446   3.812   2.508  0.3563  0.1421 -0.2532
 3831TIP3   OH211449   0.991   5.874   6.531  0.0939 -0.4443  0.0805
 3831TIP3    H111450   0.966   5.947   6.589  0.0712 -0.1503 -0.2979
 3831TIP3    H211451   0.921   5.869   6.467  0.4145 -0.3847 -0.2772
 3832TIP3   OH211452   1.809   0.712   4.401  0.8672 -0.0871 -0.7405
 3832TIP3    H111453   1.831   0.752   4.485 -1.6484 -0.0201 -0.0347
 3832TIP3    H211454   1.822   0.618   4.414  0.4420 -0.0817 -0.2388
 3833TIP3   OH211455   5.582   5.512   6.302 -0.4000 -0.4207 -0.3991
 3833TIP3    H111456   5.582   5.499   6.397 -0.3498  1.5205 -0.1030
 3833TIP3    H211457   5.636   5.441   6.268  1.8783  0.4078  1.2644
 3834TIP3   OH211458   5.720   1.806   2.688  0.2511 -0.9589  0.1702
 3834TIP3    H111459   5.728   1.881   2.748  1.4711 -0.9645  0.0443
 3834TIP3    H211460   5.801   1.756   2.701  0.0651 -1.5221 -0.7355
 3835TIP3   OH211461   1.163   1.411   0.251  0.0130 -0.3689 -0.1970
 3835TIP3    H111462   1.222   1.336   0.260 -0.6816 -0.8608  0.3291
 3835TIP3    H211463   1.188   1.469   0.323  0.0457 -0.4456 -0.1460
 3836TIP3   OH211464   0.789   3.511   1.448 -0.3980 -0.3992 -0.2823
 3836TIP3    H111465   0.854   3.486   1.382 -0.4806  0.1609 -0.5801
 3836TIP3    H211466   0.713   3.538   1.398 -0.2889  0.5142  0.0210
 3837TIP3   OH211467   2.182   3.342   5.281  0.3723  0.5123 -0.1451
 3837TIP3    H111468   2.178   3.257   5.236  0.4598  1.3064 -1.6816
 3837TIP3    H211469   2.254   3.332   5.343 -0.8327 -1.1721  1.1059
 3838TIP3   OH211470   1.828   2.773   0.502  0.1685 -0.2502 -0.5778
 3838TIP3    H111471   1.793   2.854   0.539 -1.7351  0.0953 -2.8766
 3838TIP3    H211472   1.826   2.711   0.575 -0.9102  1.0490  0.5669
 3839TIP3   OH211473   3.758   0.693   3.007 -0.0470 -0.4976  0.4620
 3839TIP3    H111474   3.698   0.621   2.988  0.5953 -1.6059  2.3614
 3839TIP3    H211475   3.826   0.686   2.940 -0.2792 -1.2996  0.3033
 3840TIP3   OH211476   0.106   0.298   3.815 -0.2042 -0.4549  0.2497
 3840TIP3    H111477   0.095   0.217   3.864 -0.3986  0.0614  1.1019
 3840TIP3    H211478   0.197   0.298   3.787 -0.0618 -0.7204  0.7090
 3841TIP3   OH211479   6.859   6.914   5.327 -0.1673 -0.3505 -0.1226
 3841TIP3    H111480   6.934   6.934   5.272  0.2801 -1.4015  0.0794
 3841TIP3    H211481   6.865   6.820   5.343 -1.0236 -0.2952  0.6373
 3842TIP3   OH211482   1.165   7.256   6.273  0.0357 -0.1109 -0.3432
 3842TIP3    H111483   1.163   7.175   6.324 -0.1821 -0.7483 -1.3414
 3842TIP3    H211484   1.123   7.320   6.330 -2.3751 -1.3477 -0.5822
 3843TIP3   OH211485   6.326   0.410   5.713 -0.5507 -0.4723  0.3400
 3843TIP3    H111486   6.297   0.385   5.625  0.8403 -1.2724  0.0721
 3843TIP3    H211487   6.288   0.497   5.728 -0.7648 -0.3039 -1.0810
 3844TIP3   OH211488   2.442   1.246   0.013 -0.0469  1.1376 -0.3453
 3844TIP3    H111489   2.421   1.255   0.106 -0.8904  0.3592 -0.4497
 3844TIP3    H211490   2.531   1.282   0.005 -0.0386  1.3845  0.7221
 3845TIP3   OH211491   0.531   4.017   3.816  0.0206 -0.0661 -0.2593
 3845TIP3    H111492   0.492   4.099   3.786  1.2947  0.3241 -0.8906
 3845TIP3    H211493   0.616   4.042   3.852  0.2482 -1.0558 -0.0703
 3846TIP3   OH211494   6.023   7.155   1.484  0.3013 -0.2257 -0.5761
 3846TIP3    H111495   6.113   7.157   1.451 -0.3315  1.2758 -2.3733
 3846TIP3    H211496   6.003   7.247   1.504 -0.3716 -0.7259  1.2446
 3847TIP3   OH211497   5.261   4.989   0.597  0.4260  0.4405 -0.3523
 3847TIP3    H111498   5.236   4.908   0.552 -0.2912  0.6433 -0.3324
 3847TIP3    H211499   5.356   4.983   0.606  0.4619 -0.0818 -0.9732
 3848TIP3   OH211500   2.803   4.685   6.336  0.2075 -0.3667 -0.6923
 3848TIP3    H111501   2.868   4.632   6.291  0.7862 -0.9691  0.7826
 3848TIP3    H211502   2.736   4.702   6.270  0.9537 -1.3058 -1.7261
 3849TIP3   OH211503   3.990   2.034   6.375  0.1238 -0.3869  0.2118
 3849TIP3    H111504   4.072   1.994   6.348 -0.4630 -1.9274  0.5606
 3849TIP3    H211505   3.957   2.077   6.296  0.9544 -0.3069 -0.0969
 3850TIP3   OH211506   4.444   5.337   5.359 -0.4163 -0.2501  0.0304
 3850TIP3    H111507   4.527   5.384   5.373 -0.7664  0.6349 -0.7625
 3850TIP3    H211508   4.449   5.307   5.268 -0.7895 -0.5826  0.1175
 3851TIP3   OH211509   4.796   4.286   3.491  0.0854 -0.0636 -0.2082
 3851TIP3    H111510   4.805   4.229   3.415  1.6192 -0.1564  0.0143
 3851TIP3    H211511   4.813   4.229   3.566 -1.2514  0.0642  0.2236
 3852TIP3   OH211512   5.378   7.625   0.276 -0.2933  0.0845  0.2227
 3852TIP3    H111513   5.334   7.661   0.199  0.2020  1.1979  0.4392
 3852TIP3    H211514   5.421   7.701   0.317 -2.6795  0.0453  3.1084
 3853TIP3   OH211515   6.073   2.535   2.867  0.1729  0.0320 -0.1123
 3853TIP3    H111516   6.050   2.599   2.800 -0.0950 -0.7131 -0.7553
 3853TIP3    H211517   6.012   2.551   2.939 -1.0957 -0.6440 -0.9941
 3854TIP3   OH211518   4.327   1.410   1.123 -0.4945  0.3884 -0.4201
 3854TIP3    H111519   4.291   1.364   1.048  0.3906 -1.5842  0.2932
 3854TIP3    H211520   4.395   1.468   1.086 -0.1111 -0.5069 -1.1603
 3855TIP3   OH211521   6.221   3.663   6.265  0.4438 -0.2123  0.1825
 3855TIP3    H111522   6.267   3.701   6.340  2.0747  0.7757 -1.2254
 3855TIP3    H211523   6.291   3.626   6.211 -0.7849 -1.8521 -0.3547
 3856TIP3   OH211524   2.271   4.799   0.811  0.4358 -0.1649  0.1220
 3856TIP3    H111525   2.202   4.827   0.752  2.2109  1.7683 -1.1574
 3856TIP3    H211526   2.248   4.838   0.895  0.0846  0.6789 -0.3550
 3857TIP3   OH211527   1.831   1.434   1.144 -0.2993  0.6510 -0.1727
 3857TIP3    H111528   1.800   1.430   1.234  1.4954 -0.6520  0.4498
 3857TIP3    H211529   1.752   1.422   1.091 -1.3995  1.4947  1.1837
 3858TIP3   OH211530   0.598   3.660   1.638  0.5912  0.3322 -0.3061
 3858TIP3    H111531   0.596   3.575   1.682 -0.2100  0.3319 -0.3352
 3858TIP3    H211532   0.593   3.638   1.545 -1.7480  0.4639 -0.2557
 3859TIP3   OH211533   7.872   3.059   1.990  0.5009  0.0490  0.1900
 3859TIP3    H111534   7.923   3.053   2.070  1.8886  1.2687 -0.5370
 3859TIP3    H211535   7.865   3.153   1.974  2.1404 -0.1394 -2.2070
 3860TIP3   OH211536   7.095   2.105   2.435  0.2803  0.0825  0.9048
 3860TIP3    H111537   7.091   2.089   2.529 -3.0052  0.0290  0.8843
 3860TIP3    H211538   7.093   2.018   2.395 -2.2965  0.0476  0.8843
 3861TIP3   OH211539   0.279   1.645   5.603 -0.1683 -0.4922  0.2161
 3861TIP3    H111540   0.359   1.592   5.610  0.9464  1.0736 -0.2209
 3861TIP3    H211541   0.310   1.735   5.593 -2.0108  0.3302  1.2895
 3862TIP3   OH211542   5.235   3.559   4.418  0.7325  0.1695  0.2666
 3862TIP3    H111543   5.219   3.619   4.345 -1.5622 -0.9474 -0.2166
 3862TIP3    H211544   5.284   3.487   4.378  1.2459  0.4984  0.2909
 3863TIP3   OH211545   1.252   7.215   1.165 -0.3707  0.1779  0.0087
 3863TIP3    H111546   1.346   7.214   1.181 -0.4579 -0.2555  0.5148
 3863TIP3    H211547   1.214   7.248   1.246 -0.7134 -0.5461  0.1530
 3864TIP3   OH211548   0.693   4.360   4.240 -0.1060 -0.0745  0.4389
 3864TIP3    H111549   0.674   4.448   4.209 -0.7471  0.0929  1.2718
 3864TIP3    H211550   0.788   4.351   4.229 -0.1072  0.5296 -0.1215
 3865TIP3   OH211551   3.593   1.385   4.960  0.0212 -0.1306 -0.0897
 3865TIP3    H111552   3.608   1.443   5.035 -0.9068 -0.7085  0.5748
 3865TIP3    H211553   3.573   1.300   5.000  0.0396 -0.5786 -1.0143
 3866TIP3   OH211554   8.146   4.311   3.363  0.0938  0.0093 -0.2053
 3866TIP3    H111555   8.152   4.403   3.336  0.4261 -0.0359 -0.2921
 3866TIP3    H211556   8.160   4.314   3.458 -2.6715  0.3445  0.2800
 3867TIP3   OH211557   2.509   1.381   4.950 -0.4678  0.0462  0.2928
 3867TIP3    H111558   2.588   1.335   4.919  0.3988  0.8826  1.1880
 3867TIP3    H211559   2.437   1.340   4.901  0.5058 -0.7771 -0.5091
 3868TIP3   OH211560   0.731   2.627   0.956  0.1651  0.2728  0.5534
 3868TIP3    H111561   0.826   2.619   0.969  0.0962 -0.4729  0.6182
 3868TIP3    H211562   0.702   2.538   0.936 -0.8385  0.0676  2.6826
 3869TIP3   OH211563   1.129   0.801   3.592 -0.0238 -0.0493  0.4093
 3869TIP3    H111564   1.119   0.724   3.536  2.3926 -0.9224  1.0590
 3869TIP3    H211565   1.218   0.794   3.626  0.1964  2.9156  0.6920
 3870TIP3   OH211566   5.569   2.350   3.951 -0.2260  0.6058 -0.2799
 3870TIP3    H111567   5.658   2.383   3.938 -0.5210  1.6432  0.2053
 3870TIP3    H211568   5.518   2.428   3.973 -1.4929  0.2089 -1.6443
 3871TIP3   OH211569   1.455   0.383   1.630 -0.1930 -0.6219  0.1810
 3871TIP3    H111570   1.435   0.457   1.688  1.4279 -0.6054  0.7706
 3871TIP3    H211571   1.398   0.313   1.661 -1.7041  0.3097 -0.3351
 3872TIP3   OH211572   7.058   4.835   6.244  0.2281  0.1546 -0.0087
 3872TIP3    H111573   7.099   4.750   6.228 -1.2657 -0.4663 -0.7544
 3872TIP3    H211574   7.021   4.828   6.332  0.5854  0.2597  0.1554
 3873TIP3   OH211575   7.814   6.449   5.592  0.3805 -0.5128 -0.3347
 3873TIP3    H111576   7.806   6.420   5.501  0.7554 -1.7175 -0.0071
 3873TIP3    H211577   7.829   6.543   5.587 -1.6028 -0.2041 -1.4291
 3874TIP3   OH211578   7.437   1.428   4.657 -0.1843  0.6161 -0.4540
 3874TIP3    H111579   7.525   1.409   4.688 -0.4904 -0.3097 -0.1134
 3874TIP3    H211580   7.415   1.355   4.600 -0.2764  1.4625 -1.5316
 3875TIP3   OH211581   2.481   5.279   3.341 -0.0192 -0.2209  0.2211
 3875TIP3    H111582   2.411   5.340   3.316  1.3173  2.2119  1.9531
 3875TIP3    H211583   2.539   5.278   3.265 -0.2142  0.4352  0.0538
 3876TIP3   OH211584   2.598   6.799   3.604 -0.3119  0.1597  0.1963
 3876TIP3    H111585   2.652   6.865   3.647  0.9762 -0.3090 -0.6522
 3876TIP3    H211586   2.530   6.849   3.559  0.6660  0.9218 -0.4735
 3877TIP3   OH211587   6.406   0.294   1.078 -0.1519  0.1657 -0.3655
 3877TIP3    H111588   6.422   0.334   1.163  2.1349 -0.4261 -0.4418
 3877TIP3    H211589   6.458   0.346   1.016 -2.6760  1.3240 -1.6871
 3878TIP3   OH211590   1.168   3.357   4.658 -0.0083 -0.4039  0.5810
 3878TIP3    H111591   1.237   3.423   4.648 -0.1797 -0.4150 -1.0420
 3878TIP3    H211592   1.119   3.363   4.576 -0.8010 -1.6865  0.9469
 3879TIP3   OH211593   5.840   0.906   3.661 -0.3337  0.0520 -0.2015
 3879TIP3    H111594   5.745   0.913   3.668 -0.3589  0.6765 -1.0425
 3879TIP3    H211595   5.855   0.866   3.575  0.1766  0.4719 -0.3130
 3880TIP3   OH211596   2.382   5.248   2.843 -0.6096  0.3967 -0.4765
 3880TIP3    H111597   2.396   5.219   2.753 -2.4169  0.8174 -0.9245
 3880TIP3    H211598   2.288   5.267   2.849 -0.2857  1.7996  1.0818
 3881TIP3   OH211599   8.039   2.761   1.151  0.1997  0.2835 -0.5231
 3881TIP3    H111600   8.002   2.784   1.236  0.7712 -1.0560  0.1157
 3881TIP3    H211601   7.977   2.700   1.113  0.8962 -0.6731 -0.1705
 3882TIP3   OH211602   0.592   1.638   5.168 -0.7587 -0.2792 -0.4004
 3882TIP3    H111603   0.641   1.584   5.105 -0.5442  0.1051 -0.5669
 3882TIP3    H211604   0.528   1.578   5.206 -1.2468 -0.3956 -1.3728
 3883TIP3   OH211605   6.903   4.509   3.877 -0.3838 -0.5396  0.7690
 3883TIP3    H111606   6.981   4.518   3.823 -0.8940 -2.5710 -0.4200
 3883TIP3    H211607   6.934   4.521   3.967  1.2906 -1.2174  0.3206
 3884TIP3   OH211608   0.946   4.950   4.985 -0.1316 -0.1509  0.1173
 3884TIP3    H111609   0.957   4.969   4.892 -1.8494 -0.8627 -0.2697
 3884TIP3    H211610   0.924   5.034   5.024 -2.0960 -0.2645 -0.6251
 3885TIP3   OH211611   5.369   2.621   0.521  0.4863  0.3747  0.0768
 3885TIP3    H111612   5.392   2.674   0.598 -0.3381  0.2008  0.4556
 3885TIP3    H211613   5.280   2.649   0.499  0.7383  0.4663 -0.8624
 3886TIP3   OH211614   3.801   7.757   1.962 -0.1557 -0.0294 -0.1089
 3886TIP3    H111615   3.868   7.713   2.014  0.4208  0.9480  0.0011
 3886TIP3    H211616   3.848   7.789   1.885 -0.5826  0.2853 -0.2415
 3887TIP3   OH211617   4.830   2.536   3.166  0.1458  0.1504 -0.6702
 3887TIP3    H111618   4.823   2.501   3.254 -0.5986  0.0278 -0.7737
 3887TIP3    H211619   4.752   2.504   3.120  0.5231  0.2068 -1.3749
 3888TIP3   OH211620   5.686   2.992   2.339 -0.0728  0.4367  0.1283
 3888TIP3    H111621   5.709   2.903   2.312 -1.6802 -0.8541  2.6187
 3888TIP3    H211622   5.660   3.036   2.258 -0.5618 -1.8030 -1.0123
 3889TIP3   OH211623   3.803   4.632   1.775 -0.1451 -0.1431 -0.3187
 3889TIP3    H111624   3.814   4.666   1.686  1.7275 -0.8168 -0.3994
 3889TIP3    H211625   3.758   4.548   1.763 -2.6289  1.1285 -0.3227
 3890TIP3   OH211626   8.053   2.832   6.610  0.5551 -0.3799  0.0177
 3890TIP3    H111627   8.061   2.874   6.524  0.7803  0.3069  0.3627
 3890TIP3    H211628   7.959   2.816   6.621  0.2586  1.4358  0.5054
 3891TIP3   OH211629   0.128   1.323   5.584 -0.1263 -0.1070  0.6516
 3891TIP3    H111630   0.127   1.247   5.642  1.3357  0.0160  0.8747
 3891TIP3    H211631   0.221   1.340   5.568 -0.4643  0.7613 -0.5518
 3892TIP3   OH211632   0.099   2.117   6.122  0.2032 -0.6081 -0.4359
 3892TIP3    H111633   0.137   2.029   6.116  2.4939  0.3210 -0.4835
 3892TIP3    H211634   0.127   2.149   6.207 -1.7918 -0.3897  0.1869
 3893TIP3   OH211635   1.796   3.710   1.675  0.3141  0.0050 -0.1424
 3893TIP3    H111636   1.805   3.652   1.751  0.8928 -1.3342 -1.1836
 3893TIP3    H211637   1.791   3.798   1.712 -1.8953 -0.7490  1.5799
 3894TIP3   OH211638   0.615   3.395   0.321 -0.2307 -0.6954  0.2246
 3894TIP3    H111639   0.549   3.347   0.372  0.5255 -0.2298  1.6832
 3894TIP3    H211640   0.567   3.426   0.244 -1.0822 -2.5277 -0.0383
 3895TIP3   OH211641   6.889   7.727   1.244  0.0501 -0.2361 -0.2807
 3895TIP3    H111642   6.826   7.788   1.282 -0.0749  0.2007 -1.1694
 3895TIP3    H211643   6.975   7.759   1.272 -0.0229  0.2786 -0.6428
 3896TIP3   OH211644   4.317   0.596   2.080 -0.7663  0.0999 -0.7102
 3896TIP3    H111645   4.248   0.564   2.022 -0.0608 -1.6853 -0.6431
 3896TIP3    H211646   4.376   0.644   2.022 -1.6306  0.9440 -0.9076
 3897TIP3   OH211647   6.209   5.008   0.522  0.1470 -0.3744  0.2761
 3897TIP3    H111648   6.149   4.983   0.452  1.8504 -1.5287 -0.8411
 3897TIP3    H211649   6.280   5.055   0.477 -0.4190  2.0021  1.7019
 3898TIP3   OH211650   3.615   0.731   0.509  0.4365  0.2350 -0.9199
 3898TIP3    H111651   3.546   0.666   0.518 -0.3573  1.2024  0.1279
 3898TIP3    H211652   3.662   0.729   0.592 -0.2205  1.6801 -0.4885
 3899TIP3   OH211653   3.461   5.084   0.356 -0.8424  0.1775  0.0255
 3899TIP3    H111654   3.414   5.065   0.275 -0.2466  0.3725 -0.3720
 3899TIP3    H211655   3.422   5.025   0.421 -0.3104 -1.0608 -0.7474
 3900TIP3   OH211656   2.446   2.309   5.431  0.1094  0.0926 -0.4224
 3900TIP3    H111657   2.500   2.252   5.485 -0.8576 -0.8646 -0.4390
 3900TIP3    H211658   2.454   2.273   5.343 -1.2736 -0.6475 -0.2756
 3901TIP3   OH211659   1.890   1.893   5.875  0.1549 -0.1312  0.5320
 3901TIP3    H111660   1.907   1.913   5.967  0.3746 -0.5718  0.5905
 3901TIP3    H211661   1.899   1.977   5.830 -1.3849  0.3610  1.1081
 3902TIP3   OH211662   5.844   0.613   4.392  0.0328  0.5166  0.1310
 3902TIP3    H111663   5.929   0.617   4.435 -0.0791  0.9814  0.3222
 3902TIP3    H211664   5.789   0.562   4.452  0.5398 -1.0286 -0.6581
 3903TIP3   OH211665   2.424   3.689   4.424 -0.2689 -0.6187  0.5854
 3903TIP3    H111666   2.400   3.640   4.345  0.2508  0.1695 -0.0840
 3903TIP3    H211667   2.418   3.625   4.495 -2.1292 -1.0148  0.1360
 3904TIP3   OH211668   6.560   3.473   3.735 -0.2494 -0.5714 -0.8253
 3904TIP3    H111669   6.568   3.568   3.728  0.9101 -0.5200  0.8120
 3904TIP3    H211670   6.634   3.439   3.685  0.9982 -0.5000  0.8856
 3905TIP3   OH211671   4.378   2.852   1.094  0.2742 -0.0026  0.2242
 3905TIP3    H111672   4.414   2.838   1.006 -1.1557  2.0039 -0.7349
 3905TIP3    H211673   4.407   2.940   1.118 -2.5580  1.0442  0.0782
 3906TIP3   OH211674   3.797   4.771   0.375 -0.1982 -0.0854  0.0655
 3906TIP3    H111675   3.725   4.707   0.369 -1.2738  1.1352 -0.6256
 3906TIP3    H211676   3.771   4.830   0.445 -0.9637  1.5906 -1.5276
 3907TIP3   OH211677   0.107   5.917   5.780  0.1929  0.8981  0.4213
 3907TIP3    H111678   0.027   5.868   5.767  0.0792  0.8877  1.1104
 3907TIP3    H211679   0.143   5.930   5.692 -0.0276  0.0124  0.1947
 3908TIP3   OH211680   4.294   5.762   2.395 -0.5056  0.5871 -0.2268
 3908TIP3    H111681   4.323   5.853   2.390 -1.7133  0.9626 -0.6806
 3908TIP3    H211682   4.323   5.732   2.481 -1.9559  2.0845  0.8369
 3909TIP3   OH211683   6.763   4.328   6.170  0.2898 -0.2531 -0.2077
 3909TIP3    H111684   6.841   4.311   6.118  0.4282 -0.7066  0.1339
 3909TIP3    H211685   6.768   4.264   6.242  0.1989  0.4780  0.4595
 3910TIP3   OH211686   0.980   3.802   4.305 -0.1303  0.7326  0.0205
 3910TIP3    H111687   0.950   3.880   4.260 -0.2035 -0.2218 -1.6558
 3910TIP3    H211688   0.979   3.733   4.238  0.7859 -0.5034  1.2127
 3911TIP3   OH211689   1.315   2.672   1.633  0.5066  0.1024 -0.6129
 3911TIP3    H111690   1.276   2.630   1.710 -0.0739 -0.0757 -0.9946
 3911TIP3    H211691   1.407   2.684   1.656 -0.0886  2.1648  1.0520
 3912TIP3   OH211692   8.039   4.337   1.129  0.0000 -0.2659  0.1206
 3912TIP3    H111693   8.083   4.316   1.211 -0.3188 -1.4545  0.0179
 3912TIP3    H211694   7.961   4.281   1.129  2.5009 -4.4799 -3.2310
 3913TIP3   OH211695   8.165   6.855   2.137  0.5126 -0.1420  0.2234
 3913TIP3    H111696   8.214   6.773   2.142  1.6358  0.3262 -1.9870
 3913TIP3    H211697   8.073   6.827   2.134  0.8148 -1.2407  0.4497
 3914TIP3   OH211698   6.686   7.687   0.571 -0.2797 -0.3827  0.2142
 3914TIP3    H111699   6.662   7.764   0.520  0.2422 -0.2546  0.1601
 3914TIP3    H211700   6.780   7.677   0.558 -0.3239 -0.9731  0.3001
 3915TIP3   OH211701   2.697   6.073   4.817  0.0500  0.1911  0.0786
 3915TIP3    H111702   2.764   6.013   4.784 -0.5605  0.1247 -1.0860
 3915TIP3    H211703   2.668   6.033   4.899  1.3198  0.1478  0.5264
 3916TIP3   OH211704   3.350   4.734   5.287 -0.3231 -0.2335 -0.5394
 3916TIP3    H111705   3.411   4.806   5.272  0.5532 -0.9159 -0.3390
 3916TIP3    H211706   3.406   4.658   5.301 -1.1830 -0.6037  1.1153
 3917TIP3   OH211707   6.463   4.970   3.723  0.3125  0.6715  0.5054
 3917TIP3    H111708   6.504   4.993   3.640 -0.4864 -1.0423 -0.4180
 3917TIP3    H211709   6.442   5.054   3.764  0.6164  1.5560 -1.0690
 3918TIP3   OH211710   4.143   0.837   5.451 -0.2595 -0.0303  0.1464
 3918TIP3    H111711   4.079   0.824   5.381 -1.6350  0.1430  1.3134
 3918TIP3    H211712   4.129   0.927   5.480 -0.7523 -0.5390  1.5853
 3919TIP3   OH211713   0.723   5.022   1.971 -0.1678 -0.0275  0.1419
 3919TIP3    H111714   0.788   4.962   2.007  1.5779  1.7853  0.2330
 3919TIP3    H211715   0.726   5.007   1.876 -0.0025 -0.3228  0.1935
 3920TIP3   OH211716   0.682   7.137   4.556 -0.4029 -0.5656 -0.2158
 3920TIP3    H111717   0.697   7.112   4.465  0.4752 -1.6704  0.1994
 3920TIP3    H211718   0.615   7.204   4.552  1.3004  1.1730 -1.8830
 3921TIP3   OH211719   0.271   6.305   2.906 -0.0060  0.5055  0.3020
 3921TIP3    H111720   0.191   6.354   2.924 -1.1789 -0.3784 -2.0597
 3921TIP3    H211721   0.240   6.220   2.873  1.8178  0.7083 -2.2115
 3922TIP3   OH211722   5.561   6.584   0.092 -0.6184  0.1647 -0.0066
 3922TIP3    H111723   5.490   6.569   0.031 -0.7769  1.3295 -0.1216
 3922TIP3    H211724   5.564   6.504   0.146 -1.8880  0.0413 -0.1023
 3923TIP3   OH211725   4.312   6.402   0.277 -0.2252 -0.4015  0.6190
 3923TIP3    H111726   4.310   6.316   0.320 -1.3839 -0.7731 -0.1321
 3923TIP3    H211727   4.383   6.449   0.321  2.2996 -2.6707 -0.7715
 3924TIP3   OH211728   2.278   5.638   1.560 -0.2243 -0.2634  0.5298
 3924TIP3    H111729   2.255   5.730   1.572  1.2449  0.5978 -2.3515
 3924TIP3    H211730   2.352   5.640   1.499 -0.1118 -3.3673  0.4314
 3925TIP3   OH211731   5.209   5.833   5.339 -0.5742  0.9747 -0.0732
 3925TIP3    H111732   5.300   5.808   5.348 -1.0732 -1.9547 -1.8541
 3925TIP3    H211733   5.207   5.926   5.363  3.0278  1.4439 -0.9998
 3926TIP3   OH211734   1.359   4.592   4.852 -0.2500 -0.3537  0.4537
 3926TIP3    H111735   1.278   4.549   4.878 -0.0834 -0.2300  1.1804
 3926TIP3    H211736   1.332   4.680   4.827 -0.2549 -0.1053  1.3183
 3927TIP3   OH211737   1.724   2.790   4.632  0.3984 -0.0926 -0.0615
 3927TIP3    H111738   1.747   2.697   4.638  1.8700  0.1707 -1.1439
 3927TIP3    H211739   1.631   2.791   4.611 -0.1875 -1.2594  2.1415
 3928TIP3   OH211740   1.462   5.185   3.816 -0.3077  0.4703 -0.1569
 3928TIP3    H111741   1.399   5.124   3.856  1.2423 -0.2656  1.2527
 3928TIP3    H211742   1.434   5.191   3.725 -2.4490  0.2158  0.4225
 3929TIP3   OH211743   1.434   7.603   1.381  0.2207  0.3979  0.3358
 3929TIP3    H111744   1.434   7.695   1.410 -0.3018  0.2325  0.8785
 3929TIP3    H211745   1.344   7.574   1.395  0.2348 -0.0241 -0.4120
 3930TIP3   OH211746   0.850   0.909   1.472  0.5340 -0.2931 -0.0524
 3930TIP3    H111747   0.917   0.855   1.513 -0.7589 -0.7421  1.6107
 3930TIP3    H211748   0.835   0.981   1.534 -2.3819 -1.6834  1.0906
 3931TIP3   OH211749   2.656   7.651   3.697 -0.3208 -0.0471  0.4830
 3931TIP3    H111750   2.582   7.688   3.746 -0.6428 -0.4490  0.3018
 3931TIP3    H211751   2.720   7.630   3.765 -0.2921  0.4718  0.6246
 3932TIP3   OH211752   7.187   5.403   3.052  0.0048  0.0643  0.2864
 3932TIP3    H111753   7.186   5.488   3.008 -0.6897  0.2711  0.6843
 3932TIP3    H211754   7.125   5.413   3.124 -0.6512 -1.0228 -0.1097
 3933TIP3   OH211755   2.980   0.322   4.322  0.2359  0.1938 -0.7038
 3933TIP3    H111756   2.898   0.348   4.364  0.6669  0.7540 -0.2104
 3933TIP3    H211757   3.044   0.386   4.351  0.4392  0.9458 -2.6528
 3934TIP3   OH211758   2.480   0.953   5.442  0.5299  0.5567  0.4279
 3934TIP3    H111759   2.390   0.985   5.447 -0.1287 -1.1921  0.5545
 3934TIP3    H211760   2.490   0.896   5.518  1.7078  0.6070  0.3394
 3935TIP3   OH211761   3.705   7.670   4.167  0.8427  0.1649 -0.0685
 3935TIP3    H111762   3.726   7.701   4.079  3.5870 -0.6390  0.2223
 3935TIP3    H211763   3.789   7.669   4.213 -0.3850 -0.2722  2.3116
 3936TIP3   OH211764   0.463   0.904   2.631 -0.3907  0.1740  0.0491
 3936TIP3    H111765   0.516   0.905   2.551 -0.0568  0.7246  0.2684
 3936TIP3    H211766   0.527   0.888   2.701 -0.7984 -1.1923  0.1330
 3937TIP3   OH211767   1.885   2.613   1.015 -0.1648  0.3907  0.0684
 3937TIP3    H111768   1.860   2.601   0.923 -0.5666 -0.0029  0.2258
 3937TIP3    H211769   1.974   2.579   1.020 -0.0853  0.5532 -0.2081
 3938TIP3   OH211770   1.103   7.704   6.531  0.0968  0.0837 -0.3797
 3938TIP3    H111771   1.192   7.732   6.556  0.4840  0.0668 -1.6575
 3938TIP3    H211772   1.063   7.783   6.494 -0.4906  0.1318  0.3454
 3939TIP3   OH211773   8.113   0.377   6.495 -0.1174 -0.1827  0.4505
 3939TIP3    H111774   8.020   0.365   6.478 -0.0779  2.2551 -2.3574
 3939TIP3    H211775   8.124   0.471   6.507  2.0434 -0.3065 -0.0462
 3940TIP3   OH211776   7.770   0.669   5.995 -0.0698 -0.2051 -0.2642
 3940TIP3    H111777   7.761   0.575   6.008 -0.3940 -0.2110 -0.5196
 3940TIP3    H211778   7.861   0.688   6.018 -0.7241 -0.0990  2.6380
 3941TIP3   OH211779   6.690   6.522   6.438  0.3597  0.3478 -0.1215
 3941TIP3    H111780   6.715   6.431   6.426 -0.0652  0.2219 -0.0612
 3941TIP3    H211781   6.663   6.529   6.530 -1.1309  0.1540 -0.5196
 3942TIP3   OH211782   1.809   2.399   6.417  0.5337 -0.2751  0.5675
 3942TIP3    H111783   1.825   2.487   6.384 -1.3853  0.4090  1.2984
 3942TIP3    H211784   1.784   2.349   6.339 -2.0929  0.8476  0.5780
 3943TIP3   OH211785   2.079   1.382   4.673  0.2349  0.2917  0.7390
 3943TIP3    H111786   2.154   1.335   4.710 -0.1856 -0.4019  0.7291
 3943TIP3    H211787   2.109   1.410   4.586  0.6709  0.5077  0.9564
 3944TIP3   OH211788   0.838   1.569   1.695  0.4551 -0.5610 -0.3507
 3944TIP3    H111789   0.882   1.549   1.778  1.9140  0.2581 -0.8811
 3944TIP3    H211790   0.804   1.657   1.706  1.3520 -0.1373 -0.8810
 3945TIP3   OH211791   4.567   2.350   5.300  0.3635  0.0940 -0.1849
 3945TIP3    H111792   4.553   2.366   5.206  0.0587 -0.1050 -0.1733
 3945TIP3    H211793   4.520   2.421   5.343 -0.1703 -0.2625 -0.1629
 3946TIP3   OH211794   0.773  -0.003   3.795  0.2622  0.3987 -0.2663
 3946TIP3    H111795   0.802  -0.038   3.880  0.4151  0.5037 -0.2747
 3946TIP3    H211796   0.725   0.076   3.817 -0.7913 -0.2455 -0.1878
 3947TIP3   OH211797   4.711   2.749   2.987 -0.6701  0.0224  0.2592
 3947TIP3    H111798   4.650   2.823   2.980  0.9080  1.3209 -0.6632
 3947TIP3    H211799   4.740   2.750   3.078 -1.2268  0.0614  0.4366
 3948TIP3   OH211800   5.571   0.820   0.290 -0.0724 -0.0139  0.1077
 3948TIP3    H111801   5.491   0.821   0.343 -0.8606 -1.7578 -0.9742
 3948TIP3    H211802   5.576   0.909   0.253 -0.9496  0.4122  0.9705
 3949TIP3   OH211803   0.869   3.377   5.375 -0.1887 -0.5395  0.4697
 3949TIP3    H111804   0.842   3.421   5.295  2.0872 -3.6537 -2.3226
 3949TIP3    H211805   0.958   3.408   5.390  0.1174 -1.4302  0.5672
 3950TIP3   OH211806   1.266   5.631   3.760 -0.4758 -0.3830  0.0445
 3950TIP3    H111807   1.310   5.645   3.843 -0.6337 -1.9582  0.4298
 3950TIP3    H211808   1.337   5.631   3.695 -0.3343  0.6675  0.1877
 3951TIP3   OH211809   1.052   6.533   5.336  0.2870 -0.4456  0.5912
 3951TIP3    H111810   1.064   6.603   5.400 -0.8448  1.4562 -1.1185
 3951TIP3    H211811   0.961   6.505   5.349  0.1894 -0.3488  0.1420
 3952TIP3   OH211812   1.054   2.857   3.104  0.3512  0.1787  0.1755
 3952TIP3    H111813   1.081   2.939   3.064 -0.0769 -0.2932 -1.1489
 3952TIP3    H211814   0.972   2.878   3.149 -0.4273  0.2305 -1.2154
 3953TIP3   OH211815   2.778   6.478   6.614  0.4452 -0.2415 -0.2477
 3953TIP3    H111816   2.718   6.528   6.670 -0.4053 -1.8393  0.3265
 3953TIP3    H211817   2.843   6.443   6.675  1.6590  0.9695 -0.7862
 3954TIP3   OH211818   6.945   1.541   0.153  0.2878 -0.4779  0.2243
 3954TIP3    H111819   6.926   1.564   0.244  1.7050 -0.9308  0.6643
 3954TIP3    H211820   6.968   1.624   0.111  1.8262 -0.5250  0.8831
 3955TIP3   OH211821   7.912   1.854   2.650  0.2651  0.2218  1.0095
 3955TIP3    H111822   7.973   1.870   2.578  1.8259  0.4265  2.3464
 3955TIP3    H211823   7.878   1.766   2.633 -0.4123  0.7514 -0.6574
 3956TIP3   OH211824   3.770   2.264   5.244  0.1264 -0.2951  0.3605
 3956TIP3    H111825   3.708   2.333   5.222  1.8312  0.3795 -3.0524
 3956TIP3    H211826   3.839   2.309   5.293  0.5202  0.1715 -0.5904
 3957TIP3   OH211827   7.691   5.054   3.326 -0.0478 -0.0106  0.2189
 3957TIP3    H111828   7.642   4.994   3.269 -3.2282  0.8419  1.8226
 3957TIP3    H211829   7.703   5.005   3.407  0.7701  0.2131  0.2377
 3958TIP3   OH211830   2.916   3.909   4.425 -0.2987 -0.3950 -0.5705
 3958TIP3    H111831   2.885   3.878   4.510 -0.7756  0.5032 -0.4022
 3958TIP3    H211832   2.884   3.845   4.362 -1.3821 -0.1876 -0.2547
 3959TIP3   OH211833   3.126   5.033   0.590  0.5641  0.8256  0.0428
 3959TIP3    H111834   3.153   5.114   0.634  0.7835 -0.8259  3.2350
 3959TIP3    H211835   3.031   5.033   0.597  0.3977  1.7084 -1.7967
 3960TIP3   OH211836   7.086   0.039   4.338 -0.6366 -0.0180  0.7013
 3960TIP3    H111837   7.005   0.088   4.343 -0.5666  0.1400  0.3302
 3960TIP3    H211838   7.146   0.096   4.291 -1.3752 -1.5001 -2.3342
 3961TIP3   OH211839   1.695   3.738   4.688 -0.5076  0.1413  0.1607
 3961TIP3    H111840   1.600   3.745   4.673 -0.8798 -1.1131  1.6969
 3961TIP3    H211841   1.733   3.742   4.600 -2.2132 -2.6091 -0.8244
 3962TIP3   OH211842   0.680   0.813   1.869  0.0295 -0.3694  0.0854
 3962TIP3    H111843   0.648   0.825   1.958 -1.4450 -0.2364 -0.4446
 3962TIP3    H211844   0.738   0.888   1.855 -1.5628  0.9384  0.1557
 3963TIP3   OH211845   4.025   3.535   4.455  0.0301  0.3223  0.0515
 3963TIP3    H111846   3.986   3.448   4.454 -0.7839  0.6623  0.8470
 3963TIP3    H211847   4.120   3.519   4.460 -0.1369 -0.5149  0.6404
 3964TIP3   OH211848   0.328   7.376   6.137  0.1890 -0.0830  0.0918
 3964TIP3    H111849   0.319   7.297   6.192 -1.6694 -1.6661 -2.3156
 3964TIP3    H211850   0.241   7.391   6.102  0.7030  2.6105 -0.2117
 3965TIP3   OH211851   3.547   0.449   2.982  0.9159  0.7620 -0.2020
 3965TIP3    H111852   3.542   0.454   2.887 -0.9188 -1.5651 -0.3273
 3965TIP3    H211853   3.468   0.492   3.013  1.4711  1.4486  0.2856
 3966TIP3   OH211854   5.186   3.503   2.189 -0.3122 -0.3659  0.0690
 3966TIP3    H111855   5.107   3.557   2.186  1.5018  2.5312 -0.2024
 3966TIP3    H211856   5.194   3.475   2.280 -1.4615 -0.4059  0.1647
 3967TIP3   OH211857   5.806   5.152   6.033 -0.2812  0.2451  0.1621
 3967TIP3    H111858   5.855   5.076   6.064 -0.4681 -0.0560 -0.2735
 3967TIP3    H211859   5.730   5.157   6.090  0.2168  0.6823  0.8084
 3968TIP3   OH211860   7.917   6.540   2.348  0.2000  0.1322  0.3693
 3968TIP3    H111861   8.002   6.511   2.315 -0.3393 -0.2149 -0.7491
 3968TIP3    H211862   7.858   6.466   2.332 -1.0731  1.5238 -2.0208
 3969TIP3   OH211863   6.356   1.446   3.494 -0.4455  0.5842  0.0876
 3969TIP3    H111864   6.261   1.442   3.501 -0.3495 -0.2497  1.1705
 3969TIP3    H211865   6.380   1.527   3.541 -0.6136  0.7724 -0.1489
 3970TIP3   OH211866   6.449   2.505   1.763  0.1199  0.2834 -0.1435
 3970TIP3    H111867   6.411   2.427   1.723  0.4133  0.8316 -1.5462
 3970TIP3    H211868   6.544   2.489   1.760  0.1271  0.0722  0.9046
 3971TIP3   OH211869   7.295   1.204   0.990  0.0520 -0.1598 -0.0075
 3971TIP3    H111870   7.337   1.152   1.059 -1.1880 -0.4041  0.5976
 3971TIP3    H211871   7.364   1.262   0.958  0.9872 -0.9322  0.5538
 3972TIP3   OH211872   7.446   7.130   1.697 -0.3602  0.5382  0.1413
 3972TIP3    H111873   7.428   7.152   1.789 -0.6785  1.2822 -0.0922
 3972TIP3    H211874   7.415   7.206   1.648 -1.6430 -0.5037 -0.7210
 3973TIP3   OH211875   7.443   7.182   2.579  0.2980 -0.0653 -0.7042
 3973TIP3    H111876   7.523   7.136   2.602  0.8017  1.2707  0.3686
 3973TIP3    H211877   7.373   7.129   2.618  0.7320 -0.7262 -0.8157
 3974TIP3   OH211878   0.071   3.939   3.734 -0.1953 -0.5251 -0.1326
 3974TIP3    H111879   0.115   3.862   3.699  0.4228  0.1985 -0.9837
 3974TIP3    H211880   0.003   3.961   3.670  1.2953  1.1296 -1.2373
 3975TIP3   OH211881   2.570   4.587   2.270  0.3660  0.0547 -0.2669
 3975TIP3    H111882   2.587   4.494   2.259 -1.0902 -0.4361  1.2496
 3975TIP3    H211883   2.548   4.597   2.363 -1.6796  1.5227 -0.8322
 3976TIP3   OH211884   1.567   0.314   3.249  0.2296 -0.3225  0.3861
 3976TIP3    H111885   1.472   0.317   3.242 -0.0045  0.3341  2.8586
 3976TIP3    H211886   1.598   0.389   3.200 -0.7778  1.1715  1.9302
 3977TIP3   OH211887   6.695   2.190   6.321  0.3795  0.3392  0.2658
 3977TIP3    H111888   6.681   2.105   6.279  0.4731  0.1859  0.5419
 3977TIP3    H211889   6.738   2.169   6.403 -1.4479  0.4703  1.3220
 3978TIP3   OH211890   1.130   0.260   2.200 -0.1142  0.5379 -0.1936
 3978TIP3    H111891   1.115   0.269   2.294  1.6699 -0.2599  0.2213
 3978TIP3    H211892   1.167   0.172   2.190 -1.0240  0.2980 -1.7612
 3979TIP3   OH211893   6.296   1.143   6.738  0.1031 -0.2405  0.4277
 3979TIP3    H111894   6.378   1.186   6.714  0.2450 -0.3646  0.6958
 3979TIP3    H211895   6.230   1.212   6.734  0.4582  0.1701  1.6135
 3980TIP3   OH211896   3.114   0.993   0.971  0.1148 -0.9279 -0.1111
 3980TIP3    H111897   3.166   1.071   0.956  1.1388 -1.4561  0.5508
 3980TIP3    H211898   3.033   1.008   0.922  1.2011 -0.4244 -1.8422
 3981TIP3   OH211899   2.332   6.658   1.316 -0.1164  0.0641  0.4733
 3981TIP3    H111900   2.274   6.586   1.290 -0.7659 -0.2200  2.5909
 3981TIP3    H211901   2.310   6.676   1.407  0.7570  2.2775  0.3174
 3982TIP3   OH211902   3.571   5.561   2.935 -0.4197 -0.1167 -0.5631
 3982TIP3    H111903   3.535   5.505   2.866 -1.1170  0.1095 -0.3951
 3982TIP3    H211904   3.650   5.516   2.964 -0.9011 -0.9574 -0.5169
 3983TIP3   OH211905   6.962   4.188   5.247 -0.5296  0.6221 -0.0957
 3983TIP3    H111906   6.970   4.137   5.327 -0.8448 -1.1112 -1.1163
 3983TIP3    H211907   7.051   4.188   5.210 -0.9118 -0.9632 -1.0985
 3984TIP3   OH211908   5.139   0.996   4.218  0.3051 -0.8728  0.1879
 3984TIP3    H111909   5.231   0.975   4.201  0.3656 -0.8475  0.4703
 3984TIP3    H211910   5.094   0.971   4.138  0.5813 -0.7343 -0.0131
 3985TIP3   OH211911   1.977   1.153   3.612 -0.9700  0.2740 -0.1318
 3985TIP3    H111912   2.036   1.089   3.652 -0.7178  0.2496 -0.5368
 3985TIP3    H211913   1.905   1.162   3.675 -0.2034  0.8225  0.6913
 3986TIP3   OH211914   1.729   7.083   4.416 -0.1060 -0.5018 -0.1734
 3986TIP3    H111915   1.822   7.102   4.429 -0.0864 -1.8139  2.0738
 3986TIP3    H211916   1.702   7.141   4.344  3.0166 -1.8671 -2.6728
 3987TIP3   OH211917   3.006   1.421   1.779 -0.2998  0.0394 -0.0500
 3987TIP3    H111918   2.935   1.361   1.756 -0.2941 -0.2699  0.7110
 3987TIP3    H211919   2.969   1.477   1.847 -0.1412  0.5661 -0.3940
 3988TIP3   OH211920   3.940   5.514   2.521 -0.1299  0.1932  0.2693
 3988TIP3    H111921   3.971   5.425   2.507  0.6361  0.3139  1.1045
 3988TIP3    H211922   3.946   5.527   2.615 -0.2839  1.1087  0.1640
 3989TIP3   OH211923   0.051   1.826   6.338 -0.2804  0.2917 -0.2940
 3989TIP3    H111924   0.047   1.909   6.385 -1.4056  0.4513 -0.6485
 3989TIP3    H211925  -0.033   1.784   6.356 -0.3919 -0.0142 -1.4627
 3990TIP3   OH211926   5.862   6.329   4.441  0.2821 -0.0428 -0.2861
 3990TIP3    H111927   5.783   6.280   4.464 -0.4739  1.6210  0.7937
 3990TIP3    H211928   5.934   6.271   4.466 -0.5607 -1.1629 -0.3460
 3991TIP3   OH211929   4.725   0.041   0.277 -0.1124  0.2021  0.2109
 3991TIP3    H111930   4.700   0.053   0.185 -2.9730 -3.0998  0.3249
 3991TIP3    H211931   4.785  -0.034   0.276  1.9072  1.7491  0.8928
 3992TIP3   OH211932   7.531   2.567   1.072 -0.0832  0.3031  0.1044
 3992TIP3    H111933   7.556   2.654   1.102 -0.6940  0.5738 -0.1390
 3992TIP3    H211934   7.512   2.518   1.152 -1.3859  0.9220  0.2065
 3993TIP3   OH211935   6.099   0.657   6.008 -0.0396 -0.3912  0.5087
 3993TIP3    H111936   6.083   0.563   6.003 -1.5269 -0.0940 -0.6940
 3993TIP3    H211937   6.048   0.695   5.937  2.1582  1.1489 -0.3854
 3994TIP3   OH211938   6.762   6.220   0.122 -0.6635  0.8027 -0.0059
 3994TIP3    H111939   6.693   6.206   0.057  0.9914  0.8701 -1.8374
 3994TIP3    H211940   6.774   6.315   0.124  1.2878  0.6732 -1.8687
 3995TIP3   OH211941   2.132   7.713   1.199  0.1958  0.3355 -0.0184
 3995TIP3    H111942   2.130   7.787   1.138 -1.0663 -0.6231 -1.1874
 3995TIP3    H211943   2.221   7.678   1.191 -0.2038 -0.3605 -2.1089
 3996TIP3   OH211944   8.073   3.216   0.960  0.1275 -0.3449  0.1201
 3996TIP3    H111945   8.018   3.220   1.038 -1.0217 -0.7965 -0.6329
 3996TIP3    H211946   8.082   3.122   0.943 -2.5159 -0.3134 -2.1886
 3997TIP3   OH211947   0.104   6.229   3.300 -0.0520  0.4575 -0.2011
 3997TIP3    H111948   0.088   6.162   3.233 -0.8763 -0.4968  0.9154
 3997TIP3    H211949   0.074   6.311   3.259 -2.4824 -0.4027 -0.3259
 3998TIP3   OH211950   4.853   6.883   2.455 -0.3970 -0.5654  0.3808
 3998TIP3    H111951   4.831   6.892   2.362 -1.3638 -2.7779  0.3204
 3998TIP3    H211952   4.779   6.924   2.500 -0.9707 -1.3064  0.1459
 3999TIP3   OH211953   5.152   0.789   5.352 -0.0034  0.1854  0.3441
 3999TIP3    H111954   5.098   0.713   5.370  0.1217  0.3320  1.4134
 3999TIP3    H211955   5.129   0.852   5.421  0.7541  0.6504  0.1864
 4000TIP3   OH211956   3.881   4.531   0.933  0.3386 -0.6908  0.0337
 4000TIP3    H111957   3.947   4.539   0.864 -1.8524 -0.4151 -2.1492
 4000TIP3    H211958   3.889   4.612   0.983  1.4824 -0.5604 -0.3288
 4001TIP3   OH211959   4.801   5.295   3.649  0.1364 -0.7653  0.3461
 4001TIP3    H111960   4.849   5.269   3.570  1.2249 -1.2043  1.1281
 4001TIP3    H211961   4.868   5.325   3.710 -0.7802  0.5725  0.7575
 4002TIP3   OH211962   1.602   2.710   5.951  0.3070  0.3663 -0.0277
 4002TIP3    H111963   1.655   2.640   5.989 -0.4124 -0.4374 -0.4518
 4002TIP3    H211964   1.565   2.671   5.871  0.0110  1.2836 -0.3507
 4003TIP3   OH211965   1.910   4.499   5.762  0.2622 -0.8287 -0.3766
 4003TIP3    H111966   1.935   4.585   5.727  0.7111 -1.6801 -2.2848
 4003TIP3    H211967   1.842   4.518   5.826 -0.5470  0.8927 -1.6494
 4004TIP3   OH211968   4.346   5.030   5.938 -0.1633 -0.3426 -0.7234
 4004TIP3    H111969   4.406   5.015   6.011  0.7587 -1.4535 -1.6698
 4004TIP3    H211970   4.299   5.110   5.961  0.3508 -0.4800  0.9134
 4005TIP3   OH211971   2.444   7.166   3.199 -0.1481  0.2605  0.1057
 4005TIP3    H111972   2.362   7.197   3.159  0.0334  0.2631 -0.2676
 4005TIP3    H211973   2.513   7.210   3.149  0.1323 -1.0393 -0.7072
 4006TIP3   OH211974   7.838   5.293   4.001 -0.1807 -0.4860  0.4678
 4006TIP3    H111975   7.826   5.207   3.960 -1.4999  0.8202 -2.1294
 4006TIP3    H211976   7.750   5.315   4.034 -0.6606  1.0783 -1.6327
 4007TIP3   OH211977   6.864   3.608   4.311  0.0559 -0.2797  0.0952
 4007TIP3    H111978   6.795   3.666   4.279  0.8037  0.3638 -0.3989
 4007TIP3    H211979   6.924   3.666   4.359  0.0226 -0.9054  0.9089
 4008TIP3   OH211980   0.297   0.309   5.396  0.2979  0.3114 -0.1706
 4008TIP3    H111981   0.344   0.365   5.458 -0.3413  1.8262 -1.0084
 4008TIP3    H211982   0.207   0.308   5.428 -0.1239  1.4221 -1.2415
 4009TIP3   OH211983   6.503   4.352   1.894 -0.1536 -0.4172  0.1040
 4009TIP3    H111984   6.526   4.375   1.984  1.2946 -0.0140 -0.3370
 4009TIP3    H211985   6.431   4.411   1.872  0.6539  0.7219  0.4283
 4010TIP3   OH211986   4.341   5.835   1.326  0.3702 -0.1047 -0.5438
 4010TIP3    H111987   4.303   5.753   1.296  0.9235  0.2828 -2.4200
 4010TIP3    H211988   4.422   5.810   1.370 -1.1818 -0.8055  2.1138
 4011TIP3   OH211989   0.322   3.525   1.433  0.1288  0.2803 -0.0912
 4011TIP3    H111990   0.313   3.619   1.449 -1.6647 -0.0547  1.2137
 4011TIP3    H211991   0.350   3.519   1.342  1.4484  2.0878  0.1470
 4012TIP3   OH211992   5.417   0.399   5.654  0.4750 -0.2262  0.3127
 4012TIP3    H111993   5.508   0.371   5.662  0.4683  0.0264  1.3831
 4012TIP3    H211994   5.384   0.399   5.744 -0.1306  1.2044  0.1111
 4013TIP3   OH211995   3.427   6.231   2.384  0.0599  0.2949 -0.4385
 4013TIP3    H111996   3.332   6.246   2.385  0.0816  0.3808  0.4759
 4013TIP3    H211997   3.448   6.203   2.472  0.8010 -0.3381 -0.8122
 4014TIP3   OH211998   7.773   3.338   6.665 -0.2672  0.3183  0.0963
 4014TIP3    H111999   7.830   3.413   6.679 -0.3184  0.5715 -0.9581
 4014TIP3    H212000   7.692   3.375   6.632  0.0164 -0.2350 -1.3015
 4015TIP3   OH212001   3.332   5.985   4.389  0.1449  0.0042 -0.1706
 4015TIP3    H112002   3.381   5.921   4.337  1.8948  0.6623  0.5723
 4015TIP3    H212003   3.328   6.063   4.333 -1.5657 -0.5469 -0.8841
 4016TIP3   OH212004   4.458   4.552   5.312  0.3582  0.4973  0.1689
 4016TIP3    H112005   4.523   4.512   5.370 -1.0069  0.0460  1.4705
 4016TIP3    H212006   4.378   4.502   5.329 -0.2355  0.7168 -1.7378
 4017TIP3   OH212007   7.842   7.666   1.097  0.0696  0.1354 -0.3169
 4017TIP3    H112008   7.932   7.647   1.068  0.1580 -0.0170  0.0468
 4017TIP3    H212009   7.799   7.702   1.020  0.3016 -0.2589 -0.6360
 4018TIP3   OH212010   0.296   4.708   3.905  0.5259  0.1183 -0.0452
 4018TIP3    H112011   0.261   4.621   3.924 -0.0285  0.3828  0.1600
 4018TIP3    H212012   0.389   4.693   3.888  0.7758 -0.3177  1.5348
 4019TIP3   OH212013   4.951   6.503   6.690 -0.5088 -0.1560 -0.0809
 4019TIP3    H112014   4.873   6.448   6.686 -1.5870  1.3096 -0.0305
 4019TIP3    H212015   4.976   6.516   6.599  0.8687 -2.1931 -0.0479
 4020TIP3   OH212016   0.278   0.105   2.454  0.0264 -0.3924 -0.2863
 4020TIP3    H112017   0.183   0.098   2.447  0.2525 -3.3929 -1.9178
 4020TIP3    H212018   0.303   0.037   2.517  1.0162  2.0030  2.1141
 4021TIP3   OH212019   0.910   2.567   0.250 -0.8819  0.0108 -0.4267
 4021TIP3    H112020   0.866   2.516   0.182 -0.3485  1.7392 -2.1487
 4021TIP3    H212021   0.855   2.644   0.263 -0.8730 -0.1890  0.9991
 4022TIP3   OH212022   5.464   4.603   1.823  0.5215  0.3850 -0.7639
 4022TIP3    H112023   5.543   4.628   1.776 -1.0306  2.3128 -2.5254
 4022TIP3    H212024   5.481   4.627   1.914  2.2404 -0.0553 -0.9392
 4023TIP3   OH212025   1.961   0.978   3.940 -0.3816  0.1253 -0.7872
 4023TIP3    H112026   2.009   0.958   3.860 -0.2025  1.5999 -1.0690
 4023TIP3    H212027   2.022   0.958   4.010 -0.7133 -1.6726 -0.9552
 4024TIP3   OH212028   4.142   5.375   0.398 -0.1254  0.1610 -0.5183
 4024TIP3    H112029   4.072   5.437   0.418 -0.4289 -0.0344 -0.9727
 4024TIP3    H212030   4.112   5.330   0.319  1.1313  1.0398 -1.5391
 4025TIP3   OH212031   4.530   6.023   1.651 -0.3651  0.7108 -0.1633
 4025TIP3    H112032   4.536   5.935   1.613 -0.7287  0.6566 -0.0955
 4025TIP3    H212033   4.472   6.071   1.592 -0.6412  0.7324  0.1214
 4026TIP3   OH212034   1.800   6.083   0.533  0.1666 -0.7123 -0.0860
 4026TIP3    H112035   1.884   6.105   0.573 -0.6049 -0.3273  1.3677
 4026TIP3    H212036   1.762   6.018   0.592 -1.3084  0.3756  0.2019
 4027TIP3   OH212037   6.417   2.303   1.991 -0.1630  0.3404  0.3611
 4027TIP3    H112038   6.360   2.263   1.926 -0.6983 -0.2043  1.1533
 4027TIP3    H212039   6.496   2.327   1.941 -0.5818 -0.0016 -0.4955
 4028TIP3   OH212040   3.504   1.035   5.383  0.6661  0.2183  0.1250
 4028TIP3    H112041   3.521   0.979   5.459  3.4049  0.6375 -0.0819
 4028TIP3    H212042   3.554   0.996   5.312  2.0362  2.4315 -0.2213
 4029TIP3   OH212043   2.088   2.433   6.149 -0.2744 -0.1706 -0.3733
 4029TIP3    H112044   1.996   2.454   6.132 -0.3175 -0.7603 -0.9087
 4029TIP3    H212045   2.131   2.518   6.155 -0.6082  0.1088 -1.5771
 4030TIP3   OH212046   2.796   5.546   5.499  0.1232  0.2942  0.1595
 4030TIP3    H112047   2.717   5.502   5.530 -1.0725  0.3692 -2.4791
 4030TIP3    H212048   2.868   5.497   5.539 -1.1946 -0.0651  2.2797
 4031TIP3   OH212049   4.758   3.788   0.106  0.1602 -0.5128  0.2604
 4031TIP3    H112050   4.734   3.700   0.077  3.1041 -0.5851 -2.5537
 4031TIP3    H212051   4.843   3.777   0.149  0.1297  0.8758  0.7402
 4032TIP3   OH212052   1.120   6.339   2.935 -0.7137  0.1609  0.0533
 4032TIP3    H112053   1.095   6.404   3.001 -1.1390 -0.5917  0.6387
 4032TIP3    H212054   1.105   6.384   2.852 -0.5290  0.9875  0.4483
 4033TIP3   OH212055   7.347   6.728   3.428 -0.1685  0.1507  0.1630
 4033TIP3    H112056   7.326   6.788   3.358 -0.8802 -1.3749 -0.9893
 4033TIP3    H212057   7.335   6.641   3.390  0.2735 -0.7314  1.9151
 4034TIP3   OH212058   4.228   1.481   4.728 -0.0264 -0.2101  0.3817
 4034TIP3    H112059   4.274   1.399   4.708  0.8033  0.7748 -2.1358
 4034TIP3    H212060   4.288   1.527   4.786  1.0075 -0.0851 -0.7315
 4035TIP3   OH212061   6.919   4.266   3.755  0.2306  0.0688  0.5081
 4035TIP3    H112062   6.879   4.197   3.808  2.5949 -0.3284  1.9269
 4035TIP3    H212063   6.906   4.346   3.805  1.1332 -0.0552  0.9519
 4036TIP3   OH212064   2.787   1.614   0.988  0.2065  0.0355 -0.0221
 4036TIP3    H112065   2.860   1.675   1.000 -0.5279  0.9000  0.2207
 4036TIP3    H212066   2.792   1.555   1.063  0.4325  0.3400  0.2049
 4037TIP3   OH212067   4.867   6.170   4.030  0.6634  0.3064  0.4481
 4037TIP3    H112068   4.887   6.164   4.123  1.4787  1.6470  0.3799
 4037TIP3    H212069   4.888   6.083   3.995  0.8916 -0.0346  1.4004
 4038TIP3   OH212070   1.425   0.364   1.214 -0.0191  0.0855 -0.1693
 4038TIP3    H112071   1.445   0.383   1.122  0.4207 -1.5764 -0.4627
 4038TIP3    H212072   1.330   0.350   1.215  0.0837 -0.7050 -0.5549
 4039TIP3   OH212073   0.824   1.058   5.917  0.2052 -0.2922 -0.3355
 4039TIP3    H112074   0.912   1.022   5.915  0.5083  0.3409 -2.9975
 4039TIP3    H212075   0.835   1.148   5.947  0.2553 -0.6422  0.7074
 4040TIP3   OH212076   1.299   2.890   1.277  0.0666 -0.0246  0.2802
 4040TIP3    H112077   1.363   2.888   1.349 -0.1732  2.2853  0.6353
 4040TIP3    H212078   1.352   2.893   1.198  0.4395  1.2148  0.5492
 4041TIP3   OH212079   3.385   0.909   1.245  0.4371  0.6826 -0.1781
 4041TIP3    H112080   3.427   0.851   1.308  0.3248 -1.6101 -2.0669
 4041TIP3    H212081   3.381   0.994   1.289  1.6090 -0.4546  2.3108
 4042TIP3   OH212082   2.691   6.450   2.359 -0.2543  0.1344  0.8515
 4042TIP3    H112083   2.694   6.467   2.265  3.1115 -1.1874  0.5739
 4042TIP3    H212084   2.691   6.537   2.399 -1.2455  0.7137 -0.3502
 4043TIP3   OH212085   4.399   1.721   1.095  0.7174 -0.1705  0.0145
 4043TIP3    H112086   4.418   1.709   1.188 -0.4402 -0.7824  0.1823
 4043TIP3    H212087   4.393   1.816   1.084  1.9435 -0.0330  0.3193
 4044TIP3   OH212088   6.222   4.307   0.151  0.1547 -0.2107 -0.1145
 4044TIP3    H112089   6.135   4.339   0.176  0.2012 -0.3675  0.2512
 4044TIP3    H212090   6.207   4.258   0.070 -0.0676 -0.0908 -0.1475
 4045TIP3   OH212091   3.603   4.447   3.137  0.2164 -0.4321 -0.3957
 4045TIP3    H112092   3.623   4.540   3.133  0.7465 -0.5697 -1.4337
 4045TIP3    H212093   3.553   4.436   3.218  1.4986  0.4849  0.5619
 4046TIP3   OH212094   3.564   5.599   6.485  0.5065  0.1731 -0.5229
 4046TIP3    H112095   3.627   5.544   6.439 -0.3361 -1.0639 -0.2702
 4046TIP3    H212096   3.542   5.668   6.423  1.4826  0.1425 -0.9115
 4047TIP3   OH212097   7.941   3.771   5.544 -0.4660  0.0502  0.1940
 4047TIP3    H112098   7.862   3.786   5.596 -0.9998  0.4292 -0.6848
 4047TIP3    H212099   7.929   3.684   5.506 -1.0686  0.5775 -0.9053
 4048TIP3   OH212100   1.465   0.165   5.027 -0.2508 -0.2804 -0.2267
 4048TIP3    H112101   1.433   0.193   4.941 -1.2660 -0.6814  0.0082
 4048TIP3    H212102   1.388   0.128   5.070 -0.0966  1.1383  1.3837
 4049TIP3   OH212103   0.833   3.283   6.775  0.1148  0.5376  0.4155
 4049TIP3    H112104   0.835   3.309   6.683 -0.2824 -0.3991  0.1373
 4049TIP3    H212105   0.925   3.266   6.797  0.1326  0.0373 -0.0228
 4050TIP3   OH212106   4.520   7.079   5.684 -0.4331  0.1001 -0.1588
 4050TIP3    H112107   4.573   7.151   5.652 -0.1526 -0.3954 -0.8193
 4050TIP3    H212108   4.439   7.083   5.634  0.0018 -0.6674 -0.9626
 4051TIP3   OH212109   3.128   4.856   2.189 -0.2073  0.2414 -0.1500
 4051TIP3    H112110   3.066   4.923   2.221  0.7209  1.5296 -0.9410
 4051TIP3    H212111   3.159   4.890   2.105  0.5267 -1.0625 -0.4332
 4052TIP3   OH212112   0.347   7.130   3.384 -0.2632  0.0443  0.2993
 4052TIP3    H112113   0.325   7.222   3.393  0.9026  0.5730 -1.5231
 4052TIP3    H212114   0.302   7.102   3.304 -0.4236 -0.8907  0.7091
 4053TIP3   OH212115   4.810   2.007   5.838 -0.3178  0.0687  0.1061
 4053TIP3    H112116   4.895   2.016   5.880 -0.4765  0.4914  0.3441
 4053TIP3    H212117   4.814   2.063   5.761 -0.6363  0.6846  0.5294
 4054TIP3   OH212118   5.544   7.139   2.458  0.3273  0.1666 -0.0077
 4054TIP3    H112119   5.572   7.062   2.408  0.1483  0.2227 -0.1986
 4054TIP3    H212120   5.625   7.186   2.476  0.2596  1.0675 -1.7833
 4055TIP3   OH212121   3.819   4.774   1.077 -0.5482  0.0258  0.1178
 4055TIP3    H112122   3.877   4.773   1.153 -0.4316 -2.0619  0.0542
 4055TIP3    H212123   3.738   4.731   1.107 -1.2229  0.8725 -0.4249
 4056TIP3   OH212124   6.760   0.065   2.385  0.1000  0.3011  0.8748
 4056TIP3    H112125   6.763   0.151   2.344 -0.2755 -0.0413  0.1126
 4056TIP3    H212126   6.760   0.084   2.479 -1.3184  1.1948  0.7256
 4057TIP3   OH212127   1.925   6.953   6.650 -0.0995 -0.3194 -0.7595
 4057TIP3    H112128   1.858   6.910   6.703  1.4934 -0.0630  1.6495
 4057TIP3    H212129   1.979   7.000   6.714  1.5080  0.6803 -2.7384
 4058TIP3   OH212130   6.832   7.508   6.554  0.2098 -0.4240 -0.0277
 4058TIP3    H112131   6.753   7.521   6.502  1.1311 -2.6611 -2.1634
 4058TIP3    H212132   6.803   7.456   6.629 -0.6879  0.7486  0.4811
 4059TIP3   OH212133   3.430   5.114   5.539 -0.7269  0.3805  0.5091
 4059TIP3    H112134   3.337   5.130   5.557 -0.9450  0.3988 -0.5648
 4059TIP3    H212135   3.436   5.019   5.531 -0.5966  0.3590  0.8659
 4060TIP3   OH212136   1.842   1.096   5.284 -0.2445  0.4396 -0.0639
 4060TIP3    H112137   1.806   1.155   5.218 -1.9140  0.0350  0.4434
 4060TIP3    H212138   1.795   1.014   5.271  0.5072 -0.1144  0.6348
 4061TIP3   OH212139   7.835   1.033   6.399 -0.3896  0.4895  0.1371
 4061TIP3    H112140   7.804   0.959   6.346  0.7293 -0.2972  0.5310
 4061TIP3    H212141   7.902   0.995   6.456 -0.1014  1.7331  0.6622
 4062TIP3   OH212142   6.403   2.231   4.323 -0.1547 -0.1952  0.1622
 4062TIP3    H112143   6.445   2.212   4.407  0.2997 -0.7243 -0.1724
 4062TIP3    H212144   6.316   2.264   4.346  0.0279 -0.1732  0.8427
 4063TIP3   OH212145   0.795   5.532   3.540  0.5933  0.1932  0.0595
 4063TIP3    H112146   0.813   5.452   3.492 -0.5916 -0.6840  1.0108
 4063TIP3    H212147   0.881   5.570   3.559  1.1263 -0.3865 -1.1540
 4064TIP3   OH212148   6.283   5.042   5.704  0.3767  0.1421  0.3886
 4064TIP3    H112149   6.208   5.049   5.763  1.4472 -0.1887  1.8456
 4064TIP3    H212150   6.253   5.082   5.622 -0.9040  1.3225  1.3872
 4065TIP3   OH212151   3.953   7.521   6.246  0.4747  0.0069 -0.1905
 4065TIP3    H112152   3.917   7.589   6.189  0.1035 -0.2633 -0.2812
 4065TIP3    H212153   4.021   7.479   6.193  3.0719  2.4337  0.9563
 4066TIP3   OH212154   6.711   5.703   4.934  0.4912  0.1280  0.9466
 4066TIP3    H112155   6.644   5.641   4.964  1.0109 -0.1150  1.6364
 4066TIP3    H212156   6.681   5.731   4.848  0.8316 -2.0289  0.0368
 4067TIP3   OH212157   4.088   7.684   5.585 -0.5227 -0.3593  0.8803
 4067TIP3    H112158   4.162   7.725   5.628  0.4361 -1.6196  0.5016
 4067TIP3    H212159   4.094   7.712   5.494 -1.4862  0.8405  1.1616
 4068TIP3   OH212160   8.244   5.486   6.058  0.0727  0.5585 -0.0057
 4068TIP3    H112161   8.320   5.544   6.057  0.5615  0.0450  2.3624
 4068TIP3    H212162   8.185   5.524   6.123  0.1465 -1.2312  1.1765
 4069TIP3   OH212163   4.508   6.106   6.316  0.1197 -0.1164 -0.1446
 4069TIP3    H112164   4.417   6.088   6.293 -0.1133  1.5713 -0.6936
 4069TIP3    H212165   4.553   6.022   6.306 -1.8800 -1.7465  2.9854
 4070TIP3   OH212166   2.753   6.837   5.057 -0.3576 -0.3561 -0.2275
 4070TIP3    H112167   2.826   6.839   4.995 -0.7818 -1.1556 -0.7825
 4070TIP3    H212168   2.679   6.803   5.005 -1.4350  1.4829  0.0024
 4071TIP3   OH212169   6.368   6.167   4.067  0.4328  0.5952  0.3629
 4071TIP3    H112170   6.376   6.147   4.161 -1.3629 -0.2145  0.3883
 4071TIP3    H212171   6.274   6.169   4.051  0.6686  2.4982 -1.0954
 4072TIP3   OH212172   5.084   5.574   1.512  0.2423  0.3371  0.1378
 4072TIP3    H112173   5.162   5.548   1.463 -0.5591  1.0978 -1.6534
 4072TIP3    H212174   5.032   5.494   1.517 -0.5333  0.6169 -2.0618
 4073TIP3   OH212175   0.377   6.064   3.539 -0.1053 -0.2002 -0.0335
 4073TIP3    H112176   0.316   6.078   3.611  0.4775  2.5356  0.0372
 4073TIP3    H212177   0.443   6.004   3.574 -1.8029 -1.8592  0.4275
 4074TIP3   OH212178   3.653   6.727   1.474 -0.1107  0.4794 -0.1565
 4074TIP3    H112179   3.645   6.820   1.496  0.8804  1.2341 -2.6538
 4074TIP3    H212180   3.731   6.697   1.520 -0.7485  0.6859  1.1134
 4075TIP3   OH212181   3.499   1.790   2.889 -0.5696 -0.2455  0.2415
 4075TIP3    H112182   3.579   1.740   2.873 -0.0658  0.1697  1.3614
 4075TIP3    H212183   3.522   1.880   2.865  0.0068  0.2744  2.5565
 4076TIP3   OH212184   1.401   0.310   6.498  0.4116 -0.3444  0.1212
 4076TIP3    H112185   1.417   0.329   6.591  0.1684  1.6659 -0.2008
 4076TIP3    H212186   1.485   0.279   6.465  0.8180  0.0712  0.7503
 4077TIP3   OH212187   3.071   2.136   6.558 -0.6846 -0.1441 -0.1601
 4077TIP3    H112188   3.103   2.062   6.610  0.3705 -0.4215 -1.1669
 4077TIP3    H212189   3.109   2.213   6.600 -2.4674 -0.0463  1.4056
 4078TIP3   OH212190   0.148   4.605   1.718 -0.8135 -0.4405 -0.2193
 4078TIP3    H112191   0.107   4.523   1.744  0.3066 -0.5813  1.2516
 4078TIP3    H212192   0.234   4.581   1.684 -0.7372  0.0761 -0.4139
 4079TIP3   OH212193   6.883   0.801   6.647  0.4443  0.0448 -0.3981
 4079TIP3    H112194   6.904   0.805   6.740  0.9129 -0.0899 -0.4978
 4079TIP3    H212195   6.789   0.779   6.645  0.5511 -0.4714  0.0393
 4080TIP3   OH212196   1.098   1.554   0.975 -0.6781  0.0146 -0.4156
 4080TIP3    H112197   1.146   1.631   0.942 -0.3735  0.1136  0.2585
 4080TIP3    H212198   1.111   1.488   0.907  2.2525 -0.6963  0.6768
 4081TIP3   OH212199   0.468   1.375   5.589  0.5769 -0.3946  0.3225
 4081TIP3    H112200   0.487   1.282   5.604  0.0885 -0.0805  3.4609
 4081TIP3    H212201   0.542   1.422   5.628 -0.8735  0.5466  2.0974
 4082TIP3   OH212202   3.903   4.873   5.999 -0.1274 -0.0173  0.4785
 4082TIP3    H112203   3.902   4.960   5.958  0.0616  0.2071  0.9393
 4082TIP3    H212204   3.925   4.890   6.090  1.3355 -0.6844  0.2701
 4083TIP3   OH212205   7.254   7.103   4.554  0.3204 -0.3979  0.0864
 4083TIP3    H112206   7.207   7.168   4.501 -1.1605 -0.4268  1.3056
 4083TIP3    H212207   7.312   7.059   4.492 -0.8308  0.0562 -1.3619
 4084TIP3   OH212208   7.652   7.410   0.821 -0.5053  0.0163  0.4461
 4084TIP3    H112209   7.640   7.426   0.915  0.5835 -2.0424  1.0042
 4084TIP3    H212210   7.745   7.428   0.806 -0.7872  0.8841 -0.4045
 4085TIP3   OH212211   0.388   1.332   4.214 -0.8635 -0.0334  1.2706
 4085TIP3    H112212   0.356   1.248   4.249  0.8293 -1.2732 -0.0140
 4085TIP3    H212213   0.321   1.395   4.240 -3.1248 -2.0742  0.7757
 4086TIP3   OH212214   7.242   2.920   1.742 -0.2704  0.3620 -0.1046
 4086TIP3    H112215   7.150   2.937   1.726 -0.5514 -0.1393  0.8924
 4086TIP3    H212216   7.288   2.991   1.698 -0.9035 -1.0826 -3.4247
 4087TIP3   OH212217   1.159   4.212   2.982 -0.1171 -0.1885  0.5378
 4087TIP3    H112218   1.212   4.200   2.903 -0.7868 -1.4732  0.2433
 4087TIP3    H212219   1.223   4.208   3.054  0.3359 -0.4604  0.1309
 4088TIP3   OH212220   7.258   0.974   6.571 -0.1855  0.1281 -0.0867
 4088TIP3    H112221   7.189   0.929   6.620 -0.6132  0.3134 -0.5230
 4088TIP3    H212222   7.216   1.051   6.534  0.6871  1.2513  1.1727
 4089TIP3   OH212223   8.164   1.875   0.523  0.5107 -0.4589 -0.8189
 4089TIP3    H112224   8.184   1.961   0.485  1.2815  0.1134  0.7904
 4089TIP3    H212225   8.249   1.836   0.541  0.1627 -1.1648 -0.6523
 4090TIP3   OH212226   4.940   0.605   1.483 -0.2903 -0.4943  0.0406
 4090TIP3    H112227   5.024   0.640   1.452  0.4176 -1.1673  1.1037
 4090TIP3    H212228   4.934   0.519   1.442 -0.2321 -0.6285  0.3072
 4091TIP3   OH212229   7.181   4.943   0.199 -0.3737  0.6744 -0.3331
 4091TIP3    H112230   7.119   5.004   0.238  1.3287  1.3727  1.4697
 4091TIP3    H212231   7.235   4.997   0.141  0.0541  0.5743 -0.0383
 4092TIP3   OH212232   2.779   3.540   0.918  0.1766  0.2326 -0.0584
 4092TIP3    H112233   2.824   3.490   0.851  0.1756 -1.4082  1.1019
 4092TIP3    H212234   2.696   3.495   0.930 -0.8537  1.9038 -0.5879
 4093TIP3   OH212235   3.463   5.245   3.086  0.0219  0.0826 -0.6594
 4093TIP3    H112236   3.542   5.269   3.135 -2.8162  2.0987  3.5998
 4093TIP3    H212237   3.448   5.154   3.110  0.0810  0.2695  0.1395
 4094TIP3   OH212238   2.076   0.095   0.311 -0.4114  0.0169 -0.1861
 4094TIP3    H112239   2.079   0.157   0.238  0.3896  0.3743  0.1329
 4094TIP3    H212240   2.012   0.030   0.285 -1.1389  0.8877 -0.6067
 4095TIP3   OH212241   0.232   3.082   1.589  0.4026 -0.5356  0.5949
 4095TIP3    H112242   0.294   3.014   1.563 -1.0049 -1.1760 -1.2818
 4095TIP3    H212243   0.249   3.154   1.529 -0.0799 -0.3984  0.6172
 4096TIP3   OH212244  -0.002   7.010   4.233  0.1014  0.3181 -0.6760
 4096TIP3    H112245   0.033   7.080   4.288 -0.1941  0.0352 -0.1105
 4096TIP3    H212246   0.001   7.045   4.144  0.0457  1.0068 -0.4137
 4097TIP3   OH212247   4.261   2.231   1.869  1.0500 -0.7840  0.3028
 4097TIP3    H112248   4.341   2.263   1.909 -1.1368  4.0408  1.5695
 4097TIP3    H212249   4.200   2.219   1.942 -0.7522  0.6401 -0.8526
 4098TIP3   OH212250   7.237   1.182   0.201  0.5404 -0.1712 -0.0729
 4098TIP3    H112251   7.329   1.156   0.204  0.4024 -0.8339 -0.9782
 4098TIP3    H212252   7.240   1.278   0.195  1.0685  0.0886  2.9214
 4099TIP3   OH212253   3.980   6.283   4.397  0.5022  0.0345  0.6499
 4099TIP3    H112254   3.917   6.310   4.330  3.6049  2.9974 -1.3807
 4099TIP3    H212255   4.009   6.196   4.369 -0.5988 -0.1729  0.0855
 4100TIP3   OH212256   1.945   5.484   5.102 -0.3186 -0.1965  0.3549
 4100TIP3    H112257   1.885   5.536   5.157 -0.4494 -0.0288  0.0555
 4100TIP3    H212258   1.912   5.496   5.013  0.8374  0.8644  0.0338
 4101TIP3   OH212259   3.441   2.269   1.966 -0.2662  0.0676 -0.1593
 4101TIP3    H112260   3.427   2.339   2.030 -1.5310  0.7525 -1.1339
 4101TIP3    H212261   3.431   2.311   1.881  3.0593 -0.4627 -0.9425
 4102TIP3   OH212262   6.028   1.818   3.686 -0.2436  0.3840 -0.3675
 4102TIP3    H112263   6.101   1.813   3.747 -0.7332 -0.5961  0.1683
 4102TIP3    H212264   6.026   1.910   3.659  0.0399  0.8405  1.0422
 4103TIP3   OH212265   1.030   2.758   0.435  0.8280  0.6397  0.1188
 4103TIP3    H112266   1.025   2.685   0.372  0.2217  0.5325  0.2809
 4103TIP3    H212267   0.946   2.755   0.480  2.7406 -2.1270  4.1156
 4104TIP3   OH212268   4.452   3.272   4.314 -0.1934  0.1761 -0.6220
 4104TIP3    H112269   4.457   3.177   4.322 -0.5314  0.2411  0.6414
 4104TIP3    H212270   4.537   3.299   4.279  0.9242 -0.3822  1.5223
 4105TIP3   OH212271   6.371   7.550   3.755 -0.4797 -0.0438 -0.0798
 4105TIP3    H112272   6.339   7.640   3.755  1.6717  0.8161  0.8292
 4105TIP3    H212273   6.369   7.523   3.663 -1.0448  0.9907 -0.3847
 4106TIP3   OH212274   6.005   4.261   4.880 -0.6157 -0.1306  0.3118
 4106TIP3    H112275   6.056   4.184   4.855  0.1926  0.3358  0.4523
 4106TIP3    H212276   5.928   4.258   4.824 -2.1810 -2.6871  2.3914
 4107TIP3   OH212277   4.364   6.244   2.149  0.1892  0.2167 -0.4946
 4107TIP3    H112278   4.419   6.321   2.161 -0.4253  0.7963 -1.2832
 4107TIP3    H212279   4.371   6.223   2.056  0.4265 -0.7462 -0.2711
 4108TIP3   OH212280   3.489   5.952   5.903  0.7216  0.0569 -0.0816
 4108TIP3    H112281   3.422   5.898   5.945  2.3370 -2.5901 -0.6491
 4108TIP3    H212282   3.448   6.037   5.890 -1.7121 -0.7596  1.6485
 4109TIP3   OH212283   2.939   0.043   0.747 -0.3184 -0.4918 -0.3664
 4109TIP3    H112284   2.908   0.082   0.666 -2.0664  1.7994  1.2664
 4109TIP3    H212285   3.016   0.094   0.771 -0.1991 -0.7201 -0.2590
 4110TIP3   OH212286   4.928   1.006   1.329  0.2667 -0.5533  0.1274
 4110TIP3    H112287   4.988   1.069   1.289 -0.2282  0.3889  0.8181
 4110TIP3    H212288   4.886   1.055   1.400 -0.8854 -1.3584  0.0374
 4111TIP3   OH212289   4.644   7.511   0.278 -0.0283  0.4347 -0.6046
 4111TIP3    H112290   4.728   7.544   0.310 -0.1243  0.0263  0.0758
 4111TIP3    H212291   4.635   7.551   0.191  1.4006 -0.4226 -1.1802
 4112TIP3   OH212292   2.631   2.777   1.283  0.4287  0.4933 -0.7011
 4112TIP3    H112293   2.712   2.828   1.277  0.3919  0.4855 -1.3441
 4112TIP3    H212294   2.649   2.699   1.231  0.9799 -0.8496  1.3715
 4113TIP3   OH212295   7.219   2.445   4.019 -0.4491 -0.4721 -0.0814
 4113TIP3    H112296   7.295   2.418   4.071 -0.7317  0.3600  0.7945
 4113TIP3    H212297   7.237   2.412   3.931  0.7259 -0.6398  0.2063
 4114TIP3   OH212298   3.784   0.119   0.305  0.2802  0.5875  0.2476
 4114TIP3    H112299   3.877   0.139   0.318 -0.1471  2.3556  0.8124
 4114TIP3    H212300   3.771   0.127   0.210  0.9377 -0.9132 -0.0011
 4115TIP3   OH212301   7.233   6.039   6.636  0.3029  0.3099 -0.1081
 4115TIP3    H112302   7.262   5.991   6.558  0.7612 -0.3906  0.4799
 4115TIP3    H212303   7.313   6.050   6.688 -0.3742 -1.4034  1.4013
 4116TIP3   OH212304   2.582   1.974   6.430  0.2963  0.1294  0.2461
 4116TIP3    H112305   2.620   1.969   6.517  1.1272  0.3941 -0.0887
 4116TIP3    H212306   2.513   2.039   6.437  0.9348  0.7868  0.5075
 4117TIP3   OH212307   0.865   6.726   2.107  0.0135  0.0134  0.2742
 4117TIP3    H112308   0.875   6.775   2.189  0.9883 -0.9124  0.7384
 4117TIP3    H212309   0.771   6.709   2.101 -0.1300  0.5213  0.9408
 4118TIP3   OH212310   7.558   2.097   1.429  0.2221 -0.6850  0.3433
 4118TIP3    H112311   7.645   2.110   1.466  0.7123 -0.6976 -0.7799
 4118TIP3    H212312   7.540   2.004   1.441  0.5510 -0.7702  0.1688
 4119TIP3   OH212313   0.875   1.009   0.756  0.1566 -0.5723 -0.4892
 4119TIP3    H112314   0.878   1.044   0.667  0.9396  0.5475 -0.0397
 4119TIP3    H212315   0.874   0.914   0.744  2.6927 -0.5525 -1.7039
 4120TIP3   OH212316   3.787   1.681   1.930  0.3477  0.9620 -0.1038
 4120TIP3    H112317   3.835   1.606   1.895  0.0518  0.1996  1.0655
 4120TIP3    H212318   3.849   1.725   1.988  0.1472  0.9288  0.1381
 4121TIP3   OH212319   6.967   7.770   0.227 -1.2237 -0.3944  0.0293
 4121TIP3    H112320   7.012   7.840   0.181 -0.4533 -0.4979  0.6160
 4121TIP3    H212321   6.880   7.767   0.187 -0.8765  0.1280 -0.7735
 4122TIP3   OH212322   5.103   3.480   2.671  0.1899 -0.4191  0.1027
 4122TIP3    H112323   5.022   3.457   2.715 -1.0583  2.1960 -0.6020
 4122TIP3    H212324   5.136   3.555   2.721  1.4316 -0.5579 -0.4764
 4123TIP3   OH212325   1.231   1.088   3.844  0.7461 -0.1096  0.8677
 4123TIP3    H112326   1.303   1.025   3.842 -1.2164 -2.5025 -0.7115
 4123TIP3    H212327   1.167   1.051   3.904 -0.7167 -0.0165 -0.5421
 4124TIP3   OH212328   2.429   6.005   2.144 -0.5730 -0.0811  0.1166
 4124TIP3    H112329   2.482   6.079   2.114  1.9140 -1.9990 -0.4987
 4124TIP3    H212330   2.432   6.011   2.239  0.5892 -0.0187  0.0922
 4125TIP3   OH212331   3.263   2.131   5.588  0.2575  0.3231 -0.2333
 4125TIP3    H112332   3.240   2.221   5.565  0.0204 -0.0551 -1.5510
 4125TIP3    H212333   3.348   2.117   5.548 -0.2237 -0.3973 -1.0444
 4126TIP3   OH212334   6.628   3.091   4.604  0.5343  1.0657 -0.6724
 4126TIP3    H112335   6.653   3.089   4.696  1.2834  0.8995 -0.8737
 4126TIP3    H212336   6.711   3.080   4.556 -0.0927 -1.3794 -1.3436
 4127TIP3   OH212337   0.648   3.869   0.945  0.1904  0.2662  0.1712
 4127TIP3    H112338   0.607   3.869   0.859 -1.3995 -0.8734  0.8599
 4127TIP3    H212339   0.650   3.776   0.970  2.7393  0.3242  0.4381
 4128TIP3   OH212340   4.786   2.976   5.216 -0.0411 -0.2482  0.5688
 4128TIP3    H112341   4.755   3.057   5.256 -0.0771 -0.8272  1.7337
 4128TIP3    H212342   4.762   2.985   5.123  0.4733  1.3219  0.5492
 4129TIP3   OH212343   3.763   3.268   4.980  0.0492 -0.1544  0.0115
 4129TIP3    H112344   3.850   3.286   4.945  0.7665 -2.2209  0.5988
 4129TIP3    H212345   3.725   3.205   4.919 -0.7472  0.1508  0.1744
 4130TIP3   OH212346   8.070   6.597   5.112  0.0960 -0.0757 -0.5330
 4130TIP3    H112347   8.068   6.665   5.044 -2.4689  0.0534 -0.4455
 4130TIP3    H212348   8.068   6.515   5.063  1.1280 -0.0729 -0.6080
 4131TIP3   OH212349   2.189   5.775   6.603  0.2187  0.2725  0.4125
 4131TIP3    H112350   2.224   5.846   6.549  0.6263  0.4898  0.9566
 4131TIP3    H212351   2.145   5.819   6.676 -0.7123 -0.0118  0.0406
 4132TIP3   OH212352   5.705   4.028   6.294 -0.1894  0.2602 -0.3627
 4132TIP3    H112353   5.794   4.041   6.327 -0.7642  0.5620  1.1220
 4132TIP3    H212354   5.709   3.946   6.245  0.8779  0.2273 -0.2419
 4133TIP3   OH212355   7.184   2.043   5.424 -0.3997 -0.2073 -0.3117
 4133TIP3    H112356   7.125   2.008   5.491 -0.2419 -1.0408 -0.5975
 4133TIP3    H212357   7.247   1.973   5.408  1.2206  0.9716  0.6045
 4134TIP3   OH212358   4.452   2.698   0.389  0.7455  0.0568  0.4336
 4134TIP3    H112359   4.520   2.722   0.452  3.0695  0.3403 -2.0140
 4134TIP3    H212360   4.491   2.626   0.339 -1.0592 -0.2580 -0.5927
 4135TIP3   OH212361   6.782   5.243   1.423  0.4470 -0.3943  0.1377
 4135TIP3    H112362   6.731   5.323   1.409  0.3189  0.0694  2.6533
 4135TIP3    H212363   6.857   5.252   1.365  2.5828  3.6478  2.9778
 4136TIP3   OH212364   0.291   2.787   5.746 -0.3918 -0.0091  0.0211
 4136TIP3    H112365   0.262   2.739   5.668 -1.5315 -1.0448  1.0529
 4136TIP3    H212366   0.387   2.783   5.742 -0.4452 -1.8754 -0.2305
 4137TIP3   OH212367   1.877   5.316   0.339 -0.1936  0.3423  0.1656
 4137TIP3    H112368   1.864   5.362   0.255 -1.3295  0.1366  0.2069
 4137TIP3    H212369   1.822   5.364   0.401  0.6794  0.5202  0.8195
 4138TIP3   OH212370   0.749   1.985   2.435  0.6195  0.1510  0.1145
 4138TIP3    H112371   0.776   1.996   2.344  2.3749  0.9034  0.6901
 4138TIP3    H212372   0.780   2.064   2.480  0.3648 -0.4960  1.4973
 4139TIP3   OH212373   8.106   1.043   5.597 -0.2311  0.3651 -0.0544
 4139TIP3    H112374   8.087   0.955   5.629  0.0195  0.0934 -0.6475
 4139TIP3    H212375   8.129   1.093   5.675  2.2903 -0.7750  0.0081
 4140TIP3   OH212376   3.157   2.401   5.570 -0.4567 -0.1017  0.2122
 4140TIP3    H112377   3.124   2.398   5.480  0.7534  0.6304 -0.2837
 4140TIP3    H212378   3.083   2.435   5.621 -1.3557 -1.0856 -0.3912
 4141TIP3   OH212379   5.212   4.005   2.148 -0.0865  0.1676 -0.1468
 4141TIP3    H112380   5.168   4.090   2.135  0.6328  0.5523 -0.1219
 4141TIP3    H212381   5.154   3.958   2.207 -0.6429  0.5282 -0.3852
 4142TIP3   OH212382   4.375   6.123   4.635  0.3865  0.3795  0.1720
 4142TIP3    H112383   4.323   6.175   4.696 -0.3667  0.7826 -0.7839
 4142TIP3    H212384   4.314   6.099   4.565  0.9428 -1.0220  0.1209
 4143TIP3   OH212385   3.411   4.793   2.540  0.0251 -0.0693 -0.3690
 4143TIP3    H112386   3.324   4.762   2.566 -0.4693  0.2786 -1.5584
 4143TIP3    H212387   3.410   4.886   2.561  0.6422 -0.3384  0.9478
 4144TIP3   OH212388   0.474   6.974   3.905 -0.1548 -0.3485  0.4543
 4144TIP3    H112389   0.384   6.962   3.934 -0.1633 -1.0248  0.1587
 4144TIP3    H212390   0.466   7.007   3.815 -0.1123 -0.7967  0.2812
 4145TIP3   OH212391   1.633   4.118   2.749 -0.5800 -0.0418  0.5507
 4145TIP3    H112392   1.622   4.212   2.768  2.0327  0.8855 -1.8827
 4145TIP3    H212393   1.552   4.094   2.704 -0.5713  1.5535 -0.4002
 4146TIP3   OH212394   4.820   4.280   0.841  0.1646 -0.2181  0.3330
 4146TIP3    H112395   4.782   4.196   0.868 -0.8706  0.1654  0.1080
 4146TIP3    H212396   4.793   4.291   0.750  0.2780  0.3612  0.3632
 4147TIP3   OH212397   1.989   3.441   1.585  0.2429  0.3748 -0.0452
 4147TIP3    H112398   1.948   3.492   1.516 -0.3550 -0.1590 -0.1011
 4147TIP3    H212399   1.941   3.465   1.664  1.2986  1.4169  0.3134
 4148TIP3   OH212400   1.598   0.041   0.709 -0.4536 -0.2016  0.1651
 4148TIP3    H112401   1.648  -0.037   0.734  0.0389  0.4012  1.0840
 4148TIP3    H212402   1.610   0.102   0.781 -1.2843  0.5325 -0.2959
 4149TIP3   OH212403   1.917   6.716   4.862 -0.5671  0.0476 -0.3358
 4149TIP3    H112404   1.853   6.767   4.912  0.3720  0.6695  0.2659
 4149TIP3    H212405   1.946   6.649   4.923 -1.4535 -0.9428 -0.9756
 4150TIP3   OH212406   1.274   3.453   0.275  0.9323  0.3697  0.6186
 4150TIP3    H112407   1.351   3.502   0.245  1.4121 -1.7607 -1.8995
 4150TIP3    H212408   1.224   3.435   0.196 -0.9764 -0.3383  1.9147
 4151TIP3   OH212409   8.123   4.215   5.599 -0.0388  0.0170 -0.0669
 4151TIP3    H112410   8.093   4.147   5.539  1.4823 -0.0680 -0.8027
 4151TIP3    H212411   8.115   4.296   5.549  1.4065 -0.0748 -0.5074
 4152TIP3   OH212412   2.508   3.380   4.246 -0.1715 -0.0233 -0.1684
 4152TIP3    H112413   2.441   3.386   4.315  1.5543  1.0832  1.5257
 4152TIP3    H212414   2.488   3.453   4.187 -0.7474 -0.0157  0.0230
 4153TIP3   OH212415   5.670   7.561   2.282  0.1702 -0.1910  0.1599
 4153TIP3    H112416   5.703   7.650   2.269 -0.2349  0.1271  1.2508
 4153TIP3    H212417   5.678   7.545   2.376  0.6775 -1.4907 -0.0822
 4154TIP3   OH212418   0.587   7.711   1.555  0.2885  0.1696 -0.0357
 4154TIP3    H112419   0.606   7.778   1.620 -1.5822  1.3436 -0.6138
 4154TIP3    H212420   0.614   7.629   1.596 -0.3179  0.9274  1.9796
 4155TIP3   OH212421   6.453   7.128   0.700  0.0182 -0.1012  0.8949
 4155TIP3    H112422   6.514   7.057   0.720  2.0157  0.8491 -1.3370
 4155TIP3    H212423   6.485   7.203   0.752 -0.0510  0.0401  0.7356
 4156TIP3   OH212424   6.849   1.057   1.611 -0.4201  0.1056 -0.2780
 4156TIP3    H112425   6.786   1.062   1.539 -1.6043 -0.2264  0.6900
 4156TIP3    H212426   6.910   0.988   1.585  1.1870  2.1848 -2.4307
 4157TIP3   OH212427   5.547   6.494   3.613 -0.1065 -0.2447 -0.1859
 4157TIP3    H112428   5.478   6.489   3.678 -2.2665  1.0483 -2.2196
 4157TIP3    H212429   5.532   6.577   3.568  1.8835 -0.6150 -1.6799
 4158TIP3   OH212430   1.441   7.511   5.865  0.0063 -0.1628 -0.4064
 4158TIP3    H112431   1.396   7.448   5.921  0.8821 -1.4584 -1.1278
 4158TIP3    H212432   1.408   7.492   5.777 -0.8646  1.4230 -0.4661
 4159TIP3   OH212433   2.393   6.804   3.277  0.0134 -0.2558  0.9051
 4159TIP3    H112434   2.359   6.869   3.338  1.3915 -0.4746  1.9477
 4159TIP3    H212435   2.374   6.720   3.319  1.9076 -0.3758  1.5832
 4160TIP3   OH212436   2.259   4.091   1.457  0.0533  0.2931 -0.4560
 4160TIP3    H112437   2.306   4.174   1.451  0.0233  0.4274  0.8706
 4160TIP3    H212438   2.234   4.084   1.549 -0.9270 -0.6563 -0.7692
 4161TIP3   OH212439   0.428   5.551   4.778  0.3913 -0.1496 -0.2586
 4161TIP3    H112440   0.476   5.613   4.831  1.2522 -1.5614  0.6827
 4161TIP3    H212441   0.459   5.465   4.807  0.0657 -1.0130 -2.2620
 4162TIP3   OH212442   5.229   4.952   3.948  0.3209  0.1380  0.0681
 4162TIP3    H112443   5.262   5.006   3.877  1.1290  0.0173  0.3413
 4162TIP3    H212444   5.163   4.896   3.908  0.4509  0.3820 -0.4889
 4163TIP3   OH212445   4.477   4.605   0.908 -0.4369 -0.0004  0.3409
 4163TIP3    H112446   4.461   4.567   0.821 -2.8139 -0.2203  0.8097
 4163TIP3    H212447   4.540   4.675   0.893 -1.3930  0.4879 -1.7243
 4164TIP3   OH212448   7.158   3.613   5.903  0.4749  0.3410  0.1509
 4164TIP3    H112449   7.211   3.555   5.848  0.8702  1.9359 -1.2537
 4164TIP3    H212450   7.079   3.629   5.852 -0.0119  0.3601  0.9006
 4165TIP3   OH212451   5.770   3.177   0.162  0.2244 -0.3854 -1.1164
 4165TIP3    H112452   5.694   3.127   0.193  0.4414  0.8472  1.7064
 4165TIP3    H212453   5.734   3.235   0.096 -1.7398  1.2220  1.1817
 4166TIP3   OH212454   5.989   3.480   0.767  0.4223  0.1543 -0.4111
 4166TIP3    H112455   6.011   3.512   0.680 -1.2409 -0.0171 -0.9398
 4166TIP3    H212456   5.961   3.558   0.815 -0.6030 -0.0314 -0.6910
 4167TIP3   OH212457   1.743   2.280   0.688  0.3102  0.1253  0.2538
 4167TIP3    H112458   1.811   2.283   0.756  1.5157 -0.4494 -0.8681
 4167TIP3    H212459   1.763   2.200   0.639 -1.4765 -0.3021  0.1673
 4168TIP3   OH212460   2.003   7.540   5.748  0.2135 -0.5858 -0.6504
 4168TIP3    H112461   1.948   7.521   5.824  0.3680 -0.1991 -0.4416
 4168TIP3    H212462   2.035   7.629   5.762 -1.6601  0.4329 -2.3244
 4169TIP3   OH212463   0.883   7.422   6.689  0.3341  0.0968  0.1272
 4169TIP3    H112464   0.884   7.513   6.659 -0.0650  0.0475 -0.0529
 4169TIP3    H212465   0.929   7.423   6.773  0.8797  0.3538 -0.1698
 4170TIP3   OH212466   7.889   3.454   5.576  0.0072  0.2082 -0.1954
 4170TIP3    H112467   7.910   3.441   5.484  1.8512  0.9373  0.0951
 4170TIP3    H212468   7.902   3.368   5.616  1.7327  0.4478 -0.1793
 4171TIP3   OH212469   2.529   5.214   1.451  0.5159 -0.5931 -0.1720
 4171TIP3    H112470   2.447   5.176   1.419  0.8473 -1.9514  0.4806
 4171TIP3    H212471   2.523   5.206   1.547  0.8119  0.6064 -0.0371
 4172TIP3   OH212472   0.782   6.152   4.592  0.7266 -0.0444  0.4351
 4172TIP3    H112473   0.790   6.235   4.639 -0.7494  0.3614  0.0179
 4172TIP3    H212474   0.750   6.176   4.505  1.6870 -0.9437 -0.1873
 4173TIP3   OH212475   5.862   2.566   1.655 -0.0138 -0.1664  0.1467
 4173TIP3    H112476   5.841   2.580   1.563  0.1958 -0.9864 -0.0327
 4173TIP3    H212477   5.779   2.540   1.695  0.2820 -1.7110 -0.2110
 4174TIP3   OH212478   1.909   5.652   2.107 -0.2910 -0.3640 -0.7532
 4174TIP3    H112479   1.984   5.648   2.165  0.4396  0.1154 -1.6354
 4174TIP3    H212480   1.946   5.672   2.021 -1.3310 -1.1511 -1.4126
 4175TIP3   OH212481   5.084   0.993   1.892  0.4362 -0.5520  0.2356
 4175TIP3    H112482   5.044   1.073   1.927 -0.2620 -0.6280 -0.3634
 4175TIP3    H212483   5.177   1.002   1.912  0.8204  1.5987 -2.0222
 4176TIP3   OH212484   0.706   2.526   5.104 -0.3717 -0.1270  0.3169
 4176TIP3    H112485   0.657   2.462   5.052 -1.4693  0.2560  0.8678
 4176TIP3    H212486   0.640   2.574   5.153  0.5523  0.4379  1.0476
 4177TIP3   OH212487   3.372   5.724   0.210 -0.3452  0.5144 -0.0558
 4177TIP3    H112488   3.402   5.746   0.122 -1.6627 -0.5977 -0.8360
 4177TIP3    H212489   3.309   5.793   0.231 -1.1233 -0.0011 -0.6244
 4178TIP3   OH212490   6.402   3.516   4.340 -0.5085  0.3850  0.1503
 4178TIP3    H112491   6.335   3.521   4.409  0.1967 -0.4492  0.9171
 4178TIP3    H212492   6.453   3.438   4.362  1.2862  1.4889  0.1099
 4179TIP3   OH212493   3.271   6.705   6.595  0.5989 -0.2695  0.1727
 4179TIP3    H112494   3.223   6.735   6.672 -0.9308 -1.6273 -0.2047
 4179TIP3    H212495   3.224   6.744   6.521  0.1501 -1.4865 -0.1972
 4180TIP3   OH212496   3.200   6.973   1.540 -0.0168 -0.7644 -0.2371
 4180TIP3    H112497   3.206   6.961   1.445 -0.3310  0.5199 -0.4449
 4180TIP3    H212498   3.111   7.007   1.554  0.1470 -0.6149  0.4834
 4181TIP3   OH212499   7.314   2.320   2.412 -0.1994 -0.2852  0.9108
 4181TIP3    H112500   7.283   2.410   2.400 -1.1374 -0.5883  0.9449
 4181TIP3    H212501   7.235   2.270   2.431 -0.1174 -1.6143 -1.7417
 4182TIP3   OH212502   0.476   2.953   1.579  0.3483 -0.1785  0.3089
 4182TIP3    H112503   0.532   2.930   1.653  0.5116 -0.0457  0.2273
 4182TIP3    H212504   0.530   3.012   1.526  0.4415 -0.7304 -0.2184
 4183TIP3   OH212505   0.158   3.887   3.980 -0.2472  0.0508  0.1533
 4183TIP3    H112506   0.076   3.848   4.012  0.3570 -0.4577  1.0987
 4183TIP3    H212507   0.140   3.907   3.888 -0.8703 -1.6466 -0.1331
 4184TIP3   OH212508   1.585   6.387   4.374 -0.4612  0.6728 -0.1197
 4184TIP3    H112509   1.615   6.336   4.299 -0.3461 -0.8788  0.9293
 4184TIP3    H212510   1.591   6.478   4.345  2.3247  0.3137 -1.0437
 4185TIP3   OH212511   4.461   3.915   2.631  0.3546  0.1994 -0.2902
 4185TIP3    H112512   4.424   3.831   2.608 -0.8548  0.6886 -0.1839
 4185TIP3    H212513   4.460   3.917   2.726  2.1043 -0.3968 -0.2274
 4186TIP3   OH212514   1.375   3.569   1.140  0.3181 -0.2337 -0.2069
 4186TIP3    H112515   1.290   3.589   1.100 -0.0111  0.4244  0.7804
 4186TIP3    H212516   1.360   3.490   1.191 -0.0168  0.5046  0.8718
 4187TIP3   OH212517   3.585   6.827   6.319 -0.0494 -0.2030 -0.6132
 4187TIP3    H112518   3.490   6.824   6.331  0.1897 -0.2727  1.9645
 4187TIP3    H212519   3.601   6.907   6.270 -1.3852  0.4532 -0.0127
 4188TIP3   OH212520   5.631   5.660   1.888  0.3433 -0.4252  0.2322
 4188TIP3    H112521   5.644   5.650   1.793  0.0695  2.1037 -0.1445
 4188TIP3    H212522   5.711   5.701   1.919 -0.1755  0.1626  0.8190
 4189TIP3   OH212523   7.400   5.349   4.815 -0.5351 -0.3130 -0.1196
 4189TIP3    H112524   7.404   5.398   4.733 -0.7005  2.1436  1.2378
 4189TIP3    H212525   7.309   5.319   4.820 -2.1414  3.9634  1.3820
 4190TIP3   OH212526   7.770   3.777   1.446  0.0623  0.2525  0.0709
 4190TIP3    H112527   7.828   3.708   1.480  2.6939  1.6994 -1.2223
 4190TIP3    H212528   7.760   3.757   1.353  2.3624  2.4602 -0.7574
 4191TIP3   OH212529   4.860   5.354   2.164  0.5302 -0.1115  0.0568
 4191TIP3    H112530   4.832   5.416   2.232  0.5315 -1.1865  1.0687
 4191TIP3    H212531   4.956   5.355   2.170  0.5830  0.6010 -0.6952
 4192TIP3   OH212532   3.866   7.757   6.133  0.2188 -0.1159  0.4977
 4192TIP3    H112533   3.884   7.850   6.124 -1.1974  0.1945  0.6749
 4192TIP3    H212534   3.781   7.745   6.091  0.0105 -1.1799  1.1886
 4193TIP3   OH212535   1.956   0.503   2.242  0.2180 -0.5718 -0.2181
 4193TIP3    H112536   1.932   0.495   2.149  1.2482 -1.4649 -0.4209
 4193TIP3    H212537   1.915   0.585   2.270 -2.4792 -1.6453 -0.7179
 4194TIP3   OH212538   6.497   7.597   3.079 -0.2042 -0.2278  0.4302
 4194TIP3    H112539   6.474   7.644   3.160 -0.3129 -0.4483  0.5292
 4194TIP3    H212540   6.578   7.638   3.049 -0.0212 -0.3174  0.7953
 4195TIP3   OH212541   2.342   3.175   4.477  0.0660 -0.0918  0.0506
 4195TIP3    H112542   2.419   3.138   4.520  0.3535  1.8773  1.3742
 4195TIP3    H212543   2.269   3.124   4.511  0.6933 -1.6794 -0.8620
 4196TIP3   OH212544   0.067   0.674   4.430  0.0128 -0.0664  0.1293
 4196TIP3    H112545   0.033   0.595   4.471 -0.3258 -0.8598 -1.5789
 4196TIP3    H212546  -0.010   0.718   4.394  0.1274  1.3784  1.5765
 4197TIP3   OH212547   3.083   6.708   0.305  0.1094  0.3884 -0.4983
 4197TIP3    H112548   3.096   6.783   0.247 -1.1055  0.3771 -0.8079
 4197TIP3    H212549   3.043   6.744   0.384  2.8091  0.5858  0.9089
 4198TIP3   OH212550   6.273   3.371   5.075  0.3786 -0.2155  0.2661
 4198TIP3    H112551   6.192   3.342   5.116 -0.9542 -0.4189 -2.3281
 4198TIP3    H212552   6.342   3.333   5.130 -1.2291 -0.0304  2.5394
 4199TIP3   OH212553   0.106   6.115   1.431  0.3350  0.1412  0.1342
 4199TIP3    H112554   0.048   6.191   1.434 -0.7743 -0.5339 -2.3405
 4199TIP3    H212555   0.057   6.048   1.384  1.4985 -1.9870  1.7701
 4200TIP3   OH212556   4.974   5.717   3.489  0.0025 -0.0778 -0.4035
 4200TIP3    H112557   5.009   5.679   3.570  1.6728  1.1734 -0.5009
 4200TIP3    H212558   4.883   5.738   3.510  0.4551  0.3682  1.2034
 4201TIP3   OH212559   5.642   6.842   4.767 -0.3730  0.6924  0.3908
 4201TIP3    H112560   5.553   6.847   4.733 -0.6863  1.5745  1.3020
 4201TIP3    H212561   5.640   6.769   4.829 -0.5734  0.9874  0.7310
 4202TIP3   OH212562   5.579   3.473   2.985 -0.1741 -0.1985  0.5576
 4202TIP3    H112563   5.504   3.518   2.945  0.3903  1.8318  1.6417
 4202TIP3    H212564   5.605   3.408   2.920 -2.9821 -1.1438  0.2301
 4203TIP3   OH212565   4.040   7.554   2.627  0.1105 -0.5698  0.0492
 4203TIP3    H112566   4.069   7.624   2.685  0.1550  0.9773 -1.7374
 4203TIP3    H212567   4.064   7.474   2.673  0.2030  0.5575  2.1101
 4204TIP3   OH212568   0.025   7.462   2.908  0.4444 -0.3496 -0.1610
 4204TIP3    H112569  -0.011   7.519   2.976  1.8187  0.1757  0.1409
 4204TIP3    H212570  -0.012   7.496   2.827 -2.1384 -1.6796  0.3338
 4205TIP3   OH212571   1.267   3.265   1.999 -0.0575 -0.0262 -0.1529
 4205TIP3    H112572   1.272   3.171   1.986  0.1814  0.0564 -0.6594
 4205TIP3    H212573   1.199   3.295   1.939 -1.4228 -0.1100  1.2902
 4206TIP3   OH212574   1.496   6.480   0.663 -0.4835  0.1086  0.4049
 4206TIP3    H112575   1.403   6.491   0.643 -0.3982  0.9382  0.4243
 4206TIP3    H212576   1.520   6.396   0.624 -1.1160  0.1477 -0.0690
 4207TIP3   OH212577   0.870   0.931   0.329 -0.1926  0.2027 -0.8871
 4207TIP3    H112578   0.960   0.902   0.319 -0.3456 -1.4315  1.5870
 4207TIP3    H212579   0.870   0.979   0.412 -1.4810  0.6427 -1.1267
 4208TIP3   OH212580   1.822   2.651   6.274 -0.9114 -0.1733 -0.0103
 4208TIP3    H112581   1.840   2.694   6.190  2.9847 -0.0928  0.6440
 4208TIP3    H212582   1.759   2.708   6.317 -0.0416  1.9379 -1.3500
 4209TIP3   OH212583   7.718   3.529   0.896  0.8662  0.6959 -0.9284
 4209TIP3    H112584   7.765   3.610   0.920  2.3117 -0.4257  0.2293
 4209TIP3    H212585   7.711   3.481   0.978  0.4007 -0.5457 -1.6761
 4210TIP3   OH212586   5.224   5.527   4.910  0.5762 -0.5360 -0.3474
 4210TIP3    H112587   5.135   5.497   4.892  0.1600 -0.4109  1.2844
 4210TIP3    H212588   5.217   5.570   4.996  1.9624  0.5894 -0.7651
 4211TIP3   OH212589   2.156   7.010   6.158  0.2554 -0.3174 -0.3422
 4211TIP3    H112590   2.165   6.931   6.212 -0.0380 -0.1771 -0.0840
 4211TIP3    H212591   2.220   7.071   6.194  0.6139 -0.4987 -0.6604
 4212TIP3   OH212592   6.355   6.643   3.709  0.4712 -0.3372 -0.0682
 4212TIP3    H112593   6.365   6.716   3.649 -0.0593 -0.3716 -0.2037
 4212TIP3    H212594   6.442   6.603   3.713  0.4715 -0.4461 -0.9572
 4213TIP3   OH212595   0.587   0.179   2.468 -0.2195 -0.2685 -0.3178
 4213TIP3    H112596   0.498   0.145   2.458  0.1839 -1.2712 -0.5867
 4213TIP3    H212597   0.643   0.108   2.437  0.8277 -0.9053  2.7718
 4214TIP3   OH212598   3.239   3.093   3.598  0.1365 -0.4634 -0.2046
 4214TIP3    H112599   3.295   3.018   3.617 -0.2324 -0.8540 -0.6713
 4214TIP3    H212600   3.295   3.169   3.615 -0.2495 -0.7426  2.8697
 4215TIP3   OH212601   1.037   2.454   0.964 -0.1443  0.1558 -0.3812
 4215TIP3    H112602   1.030   2.534   1.016  2.0767 -0.3635  0.8538
 4215TIP3    H212603   0.958   2.404   0.985 -0.9145  1.4355 -0.1567
 4216TIP3   OH212604   2.758   6.242   2.871  0.3369  0.4555 -0.0547
 4216TIP3    H112605   2.846   6.268   2.843  0.2144  2.6498  1.3654
 4216TIP3    H212606   2.717   6.323   2.899 -1.1888 -0.8950  1.9285
 4217TIP3   OH212607   5.925   6.253   0.629  0.1451 -0.2981  0.1981
 4217TIP3    H112608   6.006   6.241   0.579 -1.0127  0.2342 -1.9020
 4217TIP3    H212609   5.891   6.337   0.600 -1.5606 -0.8582  0.4781
 4218TIP3   OH212610   3.785   0.694   5.230 -0.2803 -0.3439  0.0810
 4218TIP3    H112611   3.793   0.694   5.325 -0.4324  0.9540  0.1112
 4218TIP3    H212612   3.815   0.607   5.203 -1.2167 -1.0969  1.3803
 4219TIP3   OH212613   3.552   5.011   1.450 -0.2464  0.2576 -0.3096
 4219TIP3    H112614   3.604   4.995   1.371 -1.8889  1.6938 -1.7776
 4219TIP3    H212615   3.492   4.937   1.454 -0.9763  0.7785 -1.1602
 4220TIP3   OH212616   7.229   5.124   2.528  0.9153  0.2123 -0.5461
 4220TIP3    H112617   7.295   5.191   2.510  0.8755  0.0120 -1.4730
 4220TIP3    H212618   7.198   5.145   2.616  1.0477  1.2960 -0.7413
 4221TIP3   OH212619   6.747   3.008   1.752  0.5611  0.3664  0.0789
 4221TIP3    H112620   6.710   3.096   1.741  0.9820  0.3516 -1.9227
 4221TIP3    H212621   6.670   2.950   1.750  0.3497  0.6313  0.4882
 4222TIP3   OH212622   1.185   2.676   1.391 -0.1881  0.7322  0.3790
 4222TIP3    H112623   1.215   2.695   1.480 -0.5823  1.2814  0.4002
 4222TIP3    H212624   1.225   2.745   1.338 -0.1959  0.5801  0.1767
 4223TIP3   OH212625   6.585   6.167   3.326 -0.0551 -0.1906 -0.2591
 4223TIP3    H112626   6.608   6.119   3.406  2.6640 -0.5267 -1.1471
 4223TIP3    H212627   6.606   6.106   3.255 -2.7195 -0.0205 -1.3016
 4224TIP3   OH212628   3.872   0.803   2.179  0.9587  0.6894  0.5119
 4224TIP3    H112629   3.827   0.776   2.099  1.3755  1.2309  0.0902
 4224TIP3    H212630   3.809   0.859   2.224  0.1798 -0.7655  1.2753
 4225TIP3   OH212631   1.942   2.057   4.174 -0.2055 -0.5007 -0.0107
 4225TIP3    H112632   2.032   2.026   4.184  0.6383  1.0473 -2.0750
 4225TIP3    H212633   1.912   2.020   4.091 -0.8297  0.4251 -0.2196
 4226TIP3   OH212634   7.120   2.091   0.897 -0.3010 -0.3047  0.7970
 4226TIP3    H112635   7.100   2.037   0.821 -2.5132 -2.1068  2.4952
 4226TIP3    H212636   7.210   2.120   0.884 -0.1199 -1.7696 -1.7359
 4227TIP3   OH212637   0.924   3.572   1.998  0.8241  0.2365  0.2090
 4227TIP3    H112638   0.861   3.532   1.938 -0.2303  2.1913 -0.0866
 4227TIP3    H212639   0.925   3.515   2.074 -0.1317 -0.6624 -0.4273
 4228TIP3   OH212640   2.398   2.468   0.985  0.8133  0.5858  0.2775
 4228TIP3    H112641   2.422   2.442   1.074  0.1297 -1.2056 -0.0200
 4228TIP3    H212642   2.479   2.458   0.935  0.1245 -3.9683 -0.4059
 4229TIP3   OH212643   6.171   1.999   4.405 -0.6288  0.1827 -0.3768
 4229TIP3    H112644   6.191   2.019   4.496 -0.0163 -0.2259 -0.4160
 4229TIP3    H212645   6.081   1.966   4.407 -0.6717  0.3213  0.0589
 4230TIP3   OH212646   4.891   4.605   0.447  0.4289 -0.4495  0.0891
 4230TIP3    H112647   4.818   4.657   0.412 -0.7222 -2.2229 -0.2824
 4230TIP3    H212648   4.961   4.617   0.383 -0.2873 -0.4429 -0.7228
 4231TIP3   OH212649   5.809   5.985   0.606 -0.1631  0.2929 -0.0822
 4231TIP3    H112650   5.854   6.069   0.608 -1.1589  0.8329  0.3236
 4231TIP3    H212651   5.877   5.921   0.626  0.1411  1.2412  2.3702
 4232TIP3   OH212652   7.088   3.803   5.572  0.1663 -0.3052 -0.4128
 4232TIP3    H112653   7.048   3.716   5.572  0.6617 -0.5393 -0.8882
 4232TIP3    H212654   7.173   3.790   5.614  0.7099 -0.2836 -1.4795
 4233TIP3   OH212655   3.567   3.939   5.327 -0.0469 -0.3692 -0.0682
 4233TIP3    H112656   3.648   3.889   5.339 -0.4759 -1.7729 -2.4258
 4233TIP3    H212657   3.590   4.006   5.262 -0.4913 -0.0005  0.1462
 4234TIP3   OH212658   1.463   2.807   4.867 -0.3254  0.1713 -0.0292
 4234TIP3    H112659   1.501   2.785   4.782  2.8118 -0.0039  1.3126
 4234TIP3    H212660   1.515   2.880   4.899 -1.5780  0.3834  1.6857
 4235TIP3   OH212661   2.557   3.240   0.510  0.4195 -0.2647 -0.9188
 4235TIP3    H112662   2.593   3.151   0.516  0.6576 -0.2125 -1.5689
 4235TIP3    H212663   2.611   3.284   0.446  0.2265  0.3238 -0.6807
 4236TIP3   OH212664   1.485   0.908   2.113 -0.1848  0.4374  0.3641
 4236TIP3    H112665   1.440   0.825   2.128 -1.4092  0.9492 -0.3441
 4236TIP3    H212666   1.517   0.933   2.200 -1.6869  0.2687  1.0015
 4237TIP3   OH212667   1.488   2.791   4.029 -0.4795  0.5346 -0.5404
 4237TIP3    H112668   1.478   2.756   4.117 -0.7904  0.5941 -0.5534
 4237TIP3    H212669   1.419   2.750   3.978 -0.3274  0.5339 -0.7480
 4238TIP3   OH212670   7.801   5.497   0.501 -0.1170 -0.2105  0.9060
 4238TIP3    H112671   7.825   5.412   0.464 -1.0901 -0.6935  1.3460
 4238TIP3    H212672   7.796   5.481   0.595  0.3969  0.5212  1.0642
 4239TIP3   OH212673   4.193   7.689   6.173 -0.2794 -0.8755  0.2873
 4239TIP3    H112674   4.124   7.747   6.142 -0.7989 -2.5719 -1.9891
 4239TIP3    H212675   4.238   7.740   6.240 -0.1477  2.4795 -2.0843
 4240TIP3   OH212676   0.930   6.166   1.940  0.3525  0.1386  0.2660
 4240TIP3    H112677   0.954   6.243   1.887 -0.0167 -0.4384 -0.7714
 4240TIP3    H212678   0.946   6.091   1.882 -1.4628 -0.4348  0.4426
 4241TIP3   OH212679   3.867   5.714   2.323  0.0232  0.3715 -0.1639
 4241TIP3    H112680   3.882   5.635   2.374  1.0000  1.6328  1.6052
 4241TIP3    H212681   3.885   5.786   2.384 -1.6636  1.9750 -1.4558
 4242TIP3   OH212682   7.125   7.533   2.292  0.2285  0.5367  0.3629
 4242TIP3    H112683   7.187   7.467   2.323 -1.2369  0.0161  2.3649
 4242TIP3    H212684   7.179   7.611   2.278  1.7541 -0.6344 -0.6228
 4243TIP3   OH212685   2.092   3.084   5.133  0.4378 -0.3749 -0.3280
 4243TIP3    H112686   2.122   2.993   5.133  0.3056 -0.4291 -1.1717
 4243TIP3    H212687   1.999   3.078   5.157  0.6701 -0.3554  0.6405
 4244TIP3   OH212688   0.664   4.099   1.881  0.5401  0.2369 -0.2758
 4244TIP3    H112689   0.706   4.050   1.810  2.5087  0.0963  0.9352
 4244TIP3    H212690   0.709   4.071   1.960 -0.1504  1.9936  0.8018
 4245TIP3   OH212691   5.769   7.137   0.023  0.3117  0.5526 -0.4830
 4245TIP3    H112692   5.859   7.166   0.032  0.0689  1.7230 -1.4597
 4245TIP3    H212693   5.773   7.042   0.025  1.3360  0.6012  1.3142
 4246TIP3   OH212694   6.745   2.506   0.831 -0.2522 -0.2574  0.2591
 4246TIP3    H112695   6.761   2.507   0.926  0.1197 -2.8837  0.3137
 4246TIP3    H212696   6.674   2.443   0.820 -1.2563  1.0622 -1.1353
 4247TIP3   OH212697   4.132   6.968   3.167  0.4425  0.1296 -0.0788
 4247TIP3    H112698   4.162   6.879   3.185 -0.3194 -0.0332  0.4491
 4247TIP3    H212699   4.070   6.958   3.094  0.8499  0.3157 -0.4518
 4248TIP3   OH212700   2.299   6.792   0.367 -0.1070  0.2842  0.0562
 4248TIP3    H112701   2.324   6.883   0.352 -1.7682  1.1254  1.9636
 4248TIP3    H212702   2.382   6.747   0.383  0.8592  1.1313 -2.1618
 4249TIP3   OH212703   5.307   5.234   0.465  0.0470  0.2764 -0.1638
 4249TIP3    H112704   5.229   5.281   0.494 -0.7673 -0.0257 -1.7664
 4249TIP3    H212705   5.290   5.142   0.484  0.1671  0.2479 -0.1864
 4250TIP3   OH212706   5.859   6.149   3.071 -0.2673 -0.3600  0.6781
 4250TIP3    H112707   5.919   6.113   3.136  2.9048  1.2292 -1.1218
 4250TIP3    H212708   5.805   6.211   3.120  1.1375 -0.1625  2.0533
 4251TIP3   OH212709   5.127   1.841   4.437 -0.1976  0.1383 -0.6020
 4251TIP3    H112710   5.145   1.767   4.495 -0.4821  0.9999  0.6236
 4251TIP3    H212711   5.132   1.804   4.349 -1.1814 -1.5292  0.0010
 4252TIP3   OH212712   0.631   4.131   4.115  0.0589 -0.0188  0.5166
 4252TIP3    H112713   0.640   4.211   4.167  0.5542 -0.6289  1.4072
 4252TIP3    H212714   0.600   4.065   4.177  0.3143 -0.6861 -0.0422
 4253TIP3   OH212715   5.546   5.143   6.210  0.2145  0.2214 -0.0366
 4253TIP3    H112716   5.469   5.088   6.223  0.1051  0.4341  0.2306
 4253TIP3    H212717   5.567   5.175   6.298 -0.5661  1.7310 -0.3703
 4254TIP3   OH212718   3.080   1.167   2.075 -0.0232  0.4759  0.7900
 4254TIP3    H112719   3.093   1.249   2.122 -0.7932  0.2779  1.3732
 4254TIP3    H212720   3.025   1.190   2.001 -0.9245  0.3555  1.4087
 4255TIP3   OH212721   5.424   3.877   5.488  0.3961  0.1532  0.5241
 4255TIP3    H112722   5.425   3.872   5.583  0.4149 -0.5732  0.4879
 4255TIP3    H212723   5.445   3.968   5.468  3.8067 -0.3870  1.1312
 4256TIP3   OH212724   5.783   4.412   5.759  0.0866 -0.7144  0.7291
 4256TIP3    H112725   5.756   4.327   5.792 -0.3190 -0.6362  0.6027
 4256TIP3    H212726   5.878   4.407   5.754  0.0313 -1.3542  0.1943
 4257TIP3   OH212727   2.681   4.023   6.605  0.1508  0.4830  0.0480
 4257TIP3    H112728   2.600   4.069   6.587  0.1960  0.1916 -0.9468
 4257TIP3    H212729   2.742   4.091   6.635 -0.7486  0.5478  1.8747
 4258TIP3   OH212730   0.842   1.892   1.365 -0.3383  0.2463 -0.4048
 4258TIP3    H112731   0.819   1.921   1.277 -2.6490 -0.4596 -0.1166
 4258TIP3    H212732   0.935   1.913   1.375 -0.4719  2.0029 -2.3194
 4259TIP3   OH212733   4.651   4.824   0.909 -0.3662 -0.0145  0.2985
 4259TIP3    H112734   4.654   4.870   0.993  0.4459 -0.5760  0.5939
 4259TIP3    H212735   4.743   4.808   0.888 -0.6035 -3.0805  1.0990
 4260TIP3   OH212736   1.035   1.989   2.728  0.3600 -0.0718 -0.6296
 4260TIP3    H112737   1.030   2.084   2.728  2.6974  0.1743  1.8779
 4260TIP3    H212738   0.945   1.960   2.740 -0.8331  1.5996 -4.0820
 4261TIP3   OH212739   1.835   1.229   4.618  0.0330 -0.1029 -0.4541
 4261TIP3    H112740   1.863   1.145   4.655  0.1211  0.1809  0.1408
 4261TIP3    H212741   1.915   1.279   4.608 -0.0924  0.1652 -0.1453
 4262TIP3   OH212742   1.486   2.490   4.828 -0.1770  0.1167  0.4529
 4262TIP3    H112743   1.415   2.548   4.856 -1.1122 -1.1677  0.8377
 4262TIP3    H212744   1.472   2.477   4.735 -1.2034 -1.0971  0.7531
 4263TIP3   OH212745   4.470   1.032   0.467  0.1143 -0.0422 -0.4915
 4263TIP3    H112746   4.458   1.027   0.562  2.6877 -0.6846 -0.1306
 4263TIP3    H212747   4.498   1.122   0.451 -1.4010  0.3973 -0.8374
 4264TIP3   OH212748   4.841   2.990   2.186 -0.2292  0.2592  0.4546
 4264TIP3    H112749   4.847   3.050   2.260  2.6125 -0.4797  0.9486
 4264TIP3    H212750   4.761   3.016   2.141 -0.0483  3.2441  1.6098
 4265TIP3   OH212751   4.705   0.468   0.806 -0.1318  0.2092  0.2824
 4265TIP3    H112752   4.648   0.475   0.882  0.3078  0.8650  0.5703
 4265TIP3    H212753   4.727   0.559   0.785  2.0773 -0.0318  1.1833
 4266TIP3   OH212754   7.290   6.271   3.495 -0.0100  0.1842 -0.3894
 4266TIP3    H112755   7.273   6.183   3.461 -1.4796 -0.7679  2.5283
 4266TIP3    H212756   7.212   6.321   3.473 -0.6597 -0.2373  0.8944
 4267TIP3   OH212757   1.397   7.204   5.640  0.0747 -0.2983 -0.3608
 4267TIP3    H112758   1.448   7.249   5.571  0.6267  0.0132  0.2388
 4267TIP3    H212759   1.440   7.120   5.651  0.0836 -0.2837 -0.2845
 4268TIP3   OH212760   2.893   5.976   1.869 -0.1403  0.4663  0.0714
 4268TIP3    H112761   2.818   5.962   1.927  0.4196  0.7342  0.8704
 4268TIP3    H212762   2.965   6.001   1.927  0.3673  0.9985 -0.7643
 4269TIP3   OH212763   0.928   7.083   0.226  0.5438 -0.4656 -0.5853
 4269TIP3    H112764   0.890   7.045   0.147 -0.9035  0.2557 -0.2643
 4269TIP3    H212765   0.989   7.016   0.259 -2.6807 -3.0732  0.5827
 4270TIP3   OH212766   7.954   4.676   3.282 -1.0152  0.2046  0.4318
 4270TIP3    H112767   7.884   4.656   3.344 -0.8641  0.0353  0.5506
 4270TIP3    H212768   7.948   4.770   3.267 -1.1245  0.2257  0.6152
 4271TIP3   OH212769   2.882   2.963   1.788  0.0689 -0.2045 -0.3694
 4271TIP3    H112770   2.866   2.918   1.705  1.3030 -1.2299 -0.0891
 4271TIP3    H212771   2.942   2.905   1.835  1.1650  1.4188  0.3069
 4272TIP3   OH212772   3.758   3.483   4.607  0.1733 -0.1510  0.1360
 4272TIP3    H112773   3.801   3.403   4.576  3.2382  1.0375  0.9770
 4272TIP3    H212774   3.806   3.554   4.565 -1.9429  1.3284  0.0474
 4273TIP3   OH212775   5.995   5.212   2.097 -0.6339  0.0170  0.0866
 4273TIP3    H112776   6.007   5.306   2.107  1.1039 -0.2969  1.5999
 4273TIP3    H212777   5.947   5.185   2.176 -2.0602 -0.2570 -0.8395
 4274TIP3   OH212778   2.373   2.481   4.282  0.6190 -0.5348  0.1603
 4274TIP3    H112779   2.305   2.545   4.266  2.3794  1.1845 -0.8349
 4274TIP3    H212780   2.326   2.400   4.301 -1.7043 -0.0904 -3.0377
 4275TIP3   OH212781   6.305   4.408   5.077  0.3402  0.2760 -0.3531
 4275TIP3    H112782   6.263   4.455   5.148 -0.2023 -0.8259  0.0710
 4275TIP3    H212783   6.262   4.439   4.998  0.1611  0.6649 -0.1026
 4276TIP3   OH212784   2.995   6.420   5.635 -0.3833 -0.0004  0.2686
 4276TIP3    H112785   2.956   6.393   5.718 -1.8112 -2.1162 -0.9874
 4276TIP3    H212786   2.921   6.451   5.582  0.2945  0.1042 -0.6481
 4277TIP3   OH212787   4.154   4.950   5.152  0.3346 -0.3161  0.0709
 4277TIP3    H112788   4.192   5.035   5.130 -2.2695  0.7718 -0.5764
 4277TIP3    H212789   4.122   4.960   5.241 -1.0533 -0.1500 -0.4157
 4278TIP3   OH212790   3.943   7.735   6.428 -0.0932  0.1389 -0.6551
 4278TIP3    H112791   3.943   7.690   6.344 -0.5221 -0.9522 -0.0816
 4278TIP3    H212792   3.859   7.714   6.467  0.1756  0.4824  0.1395
 4279TIP3   OH212793   6.253   3.658   0.904 -0.0194  0.5042 -0.1292
 4279TIP3    H112794   6.208   3.733   0.866 -1.0624 -0.6955 -1.3998
 4279TIP3    H212795   6.345   3.670   0.881  0.0706  2.1166  0.9778
 4280TIP3   OH212796   6.091   4.975   4.569 -0.1506 -0.2343  0.5909
 4280TIP3    H112797   6.025   5.012   4.628 -0.7626 -0.3043 -0.0317
 4280TIP3    H212798   6.173   4.980   4.618 -0.6724 -0.4338  1.5048
 4281TIP3   OH212799   6.687   4.887   0.664  0.0207  0.1640  0.4619
 4281TIP3    H112800   6.626   4.816   0.685  1.4432 -0.6293  2.1929
 4281TIP3    H212801   6.642   4.967   0.691 -0.7345 -0.2778  0.5374
 4282TIP3   OH212802   6.786   6.796   2.689  0.2689  0.1901 -0.1281
 4282TIP3    H112803   6.872   6.763   2.718  0.9984  2.3681  0.4102
 4282TIP3    H212804   6.723   6.741   2.733  1.4046  1.0440  2.8118
 4283TIP3   OH212805   7.406   6.811   2.676  0.1453 -0.5223 -0.2125
 4283TIP3    H112806   7.486   6.780   2.633  0.5876  0.7140 -0.3394
 4283TIP3    H212807   7.382   6.891   2.628 -0.6254 -0.3545  0.4253
 4284TIP3   OH212808   2.933   7.183   4.121 -0.3049 -0.3731  0.6616
 4284TIP3    H112809   2.957   7.201   4.030  0.4636 -0.5113  0.8304
 4284TIP3    H212810   2.987   7.108   4.146 -0.7293 -0.5267  1.1414
 4285TIP3   OH212811   2.818   1.209   1.898 -0.2679 -0.2966 -0.1908
 4285TIP3    H112812   2.760   1.283   1.918 -1.4531 -0.8293 -1.5094
 4285TIP3    H212813   2.774   1.133   1.936  1.3169 -0.2872  1.8229
 4286TIP3   OH212814   2.530   1.415   2.876  0.2222  0.7958  0.3463
 4286TIP3    H112815   2.455   1.362   2.849  0.2885  1.0081 -0.2847
 4286TIP3    H212816   2.605   1.358   2.862  0.1740  0.5563  1.0520
 4287TIP3   OH212817   4.743   6.527   2.716 -0.1284 -0.1133  0.3190
 4287TIP3    H112818   4.837   6.518   2.704 -0.1467 -2.2493  1.4298
 4287TIP3    H212819   4.730   6.520   2.810 -1.4659 -0.4207  0.1246
 4288TIP3   OH212820   4.897   4.092   0.566  0.4346 -0.0860  0.9122
 4288TIP3    H112821   4.891   4.104   0.660 -1.0432 -1.6303  1.0817
 4288TIP3    H212822   4.972   4.145   0.539  0.1252  1.3930  2.7480
 4289TIP3   OH212823   6.812   1.515   2.974  0.3072  0.5308 -0.0373
 4289TIP3    H112824   6.772   1.581   3.030  1.2873 -0.7232  2.2702
 4289TIP3    H212825   6.788   1.542   2.885 -3.7096  1.0615  1.0099
 4290TIP3   OH212826   3.537   1.023   0.164  0.6726  0.0837 -0.2459
 4290TIP3    H112827   3.528   0.959   0.093  2.3930  1.0735 -1.4152
 4290TIP3    H212828   3.626   1.010   0.197 -0.1393 -0.4512  1.8893
 4291TIP3   OH212829   0.966   6.997   0.951  0.2866  0.3624 -0.0370
 4291TIP3    H112830   0.924   7.010   1.036  0.4473 -0.1396  0.1255
 4291TIP3    H212831   1.000   7.083   0.928  1.5976  0.2114  1.1434
 4292TIP3   OH212832   5.657   5.501   5.938  0.3853 -0.0088 -0.1468
 4292TIP3    H112833   5.720   5.476   6.005 -0.3433  0.2619  0.6541
 4292TIP3    H212834   5.582   5.443   5.952  0.1875  0.1180 -0.6636
 4293TIP3   OH212835   7.750   0.910   2.649  0.0963 -0.2232 -0.2008
 4293TIP3    H112836   7.817   0.843   2.663  0.8991  0.2576 -1.5850
 4293TIP3    H212837   7.792   0.992   2.675 -0.6962 -0.1396  0.9422
 4294TIP3   OH212838   5.110   3.328   4.451 -0.2153 -0.1380 -0.3839
 4294TIP3    H112839   5.184   3.276   4.419  0.2607 -0.4450  1.1215
 4294TIP3    H212840   5.147   3.415   4.468 -0.1250 -0.3343  0.5210
 4295TIP3   OH212841   2.758   2.046   2.094 -0.6434  0.4993  0.1476
 4295TIP3    H112842   2.684   2.008   2.045  0.1793 -1.4306  0.2901
 4295TIP3    H212843   2.731   2.136   2.112 -1.0716  1.2931 -3.6555
 4296TIP3   OH212844   7.701   3.460   4.876 -0.1530 -0.1418  0.8152
 4296TIP3    H112845   7.702   3.405   4.797  0.0169  0.0417  0.6878
 4296TIP3    H212846   7.617   3.441   4.918 -0.3982  0.0268  0.4007
 4297TIP3   OH212847   0.830   7.055   1.197  0.1898 -0.4069  0.5884
 4297TIP3    H112848   0.807   7.145   1.220 -1.1663  0.3059 -2.9924
 4297TIP3    H212849   0.772   7.001   1.249 -2.6248  1.0548 -0.8223
 4298TIP3   OH212850   0.578   1.140   5.756  0.4147  0.2421 -0.2507
 4298TIP3    H112851   0.558   1.087   5.678 -3.9910  0.0036  0.7755
 4298TIP3    H212852   0.602   1.076   5.823 -0.9891 -0.1397 -0.0782
 4299TIP3   OH212853   6.832   1.171   0.566 -0.2856 -0.5763  0.0701
 4299TIP3    H112854   6.774   1.153   0.492  0.8102 -0.4423 -0.8545
 4299TIP3    H212855   6.920   1.151   0.533  0.3316  0.4682  1.0070
 4300TIP3   OH212856   5.089   3.148   0.031  0.5663 -0.5524 -0.2408
 4300TIP3    H112857   5.141   3.174   0.107  1.4982 -0.2366 -0.9677
 4300TIP3    H212858   5.106   3.054   0.021  0.9669 -0.4567 -0.4553
 4301TIP3   OH212859   0.817   3.958   6.598  0.4740  0.2047  0.0202
 4301TIP3    H112860   0.796   4.024   6.663  1.3499 -0.2204  0.7431
 4301TIP3    H212861   0.839   3.880   6.648 -1.2285 -0.8801 -0.8152
 4302TIP3   OH212862   4.284   0.212   1.964 -0.0247 -0.0843  0.4507
 4302TIP3    H112863   4.359   0.212   1.905  0.3812  0.7134  0.9488
 4302TIP3    H212864   4.270   0.305   1.985 -1.7688 -0.1102 -0.4118
 4303TIP3   OH212865   6.723   7.414   4.290  0.9598 -0.6432 -0.4677
 4303TIP3    H112866   6.647   7.437   4.236 -1.0067  2.0563  3.0245
 4303TIP3    H212867   6.690   7.345   4.348  1.3738 -0.0447  0.5082
 4304TIP3   OH212868   0.235   3.212   0.027 -0.3558 -0.4392 -0.2834
 4304TIP3    H112869   0.174   3.220  -0.047 -1.8460  1.6843  1.0369
 4304TIP3    H212870   0.194   3.148   0.085  0.2843 -1.3170 -0.7722
 4305TIP3   OH212871   1.223   1.846   4.957  0.0911  0.9345  0.4773
 4305TIP3    H112872   1.226   1.879   4.867 -0.1777  3.0062  1.1721
 4305TIP3    H212873   1.233   1.751   4.948  2.1902  1.2553 -1.5773
 4306TIP3   OH212874   3.134   6.067   1.188 -0.2077 -0.0760  0.9766
 4306TIP3    H112875   3.073   6.141   1.188 -0.1107  0.1200 -1.9281
 4306TIP3    H212876   3.218   6.105   1.161  0.2676 -0.9572  1.1822
 4307TIP3   OH212877   4.241   3.642   1.280 -0.5949  0.7830 -0.0314
 4307TIP3    H112878   4.207   3.561   1.316  1.2256 -0.0210 -0.0341
 4307TIP3    H212879   4.325   3.655   1.323  0.9842  0.5705 -2.7945
 4308TIP3   OH212880   6.772   1.317   6.357 -0.0378 -0.3528  0.8741
 4308TIP3    H112881   6.791   1.385   6.293  0.4279 -0.2818  1.0859
 4308TIP3    H212882   6.814   1.347   6.437 -1.5889  0.1227  1.5436
 4309TIP3   OH212883   3.628   2.374   4.560 -0.0204 -0.7152  0.1415
 4309TIP3    H112884   3.613   2.469   4.560  1.5236 -0.4199  1.7431
 4309TIP3    H212885   3.697   2.361   4.495 -0.2826 -0.7808 -0.1306
 4310TIP3   OH212886   5.593   5.992   3.980 -0.5700  0.2773  0.3730
 4310TIP3    H112887   5.643   5.966   4.058  0.6774  1.7449  0.1300
 4310TIP3    H212888   5.548   6.073   4.007  0.3957  1.1660 -0.5843
 4311TIP3   OH212889   7.272   5.628   6.598  0.1962 -0.7298 -0.1926
 4311TIP3    H112890   7.325   5.708   6.600  1.1691 -1.3658  0.8850
 4311TIP3    H212891   7.191   5.651   6.645 -0.1193 -0.0073 -1.0680
 4312TIP3   OH212892   0.525   0.135   4.582 -0.3350  0.6978  0.0384
 4312TIP3    H112893   0.469   0.165   4.654 -1.0102  2.9261 -1.3247
 4312TIP3    H212894   0.466   0.131   4.507  0.6166 -0.4230 -0.6751
 4313TIP3   OH212895   3.483   4.712   1.695 -0.0981  0.0527  0.4063
 4313TIP3    H112896   3.573   4.685   1.680  0.6989  2.6242  0.1869
 4313TIP3    H212897   3.431   4.655   1.638  1.3268 -1.5326  0.6080
 4314TIP3   OH212898   5.500   6.719   5.291  0.0438 -0.3429  0.2218
 4314TIP3    H112899   5.552   6.793   5.319  0.2636 -1.3970  2.9318
 4314TIP3    H212900   5.553   6.642   5.313 -1.9280 -1.3989  1.6120
 4315TIP3   OH212901   1.614   0.078   1.551 -0.3385 -0.1365 -0.3993
 4315TIP3    H112902   1.597   0.095   1.458  1.4817  0.3190 -0.6971
 4315TIP3    H212903   1.527   0.070   1.590 -1.1772  1.0681 -1.8822
 4316TIP3   OH212904   6.048   2.509   1.916  0.3351  0.2054 -0.4817
 4316TIP3    H112905   5.974   2.485   1.860 -0.8249  2.1604  0.1187
 4316TIP3    H212906   6.052   2.439   1.981 -0.4296 -0.3822 -1.0423
 4317TIP3   OH212907   7.909   2.907   1.435  0.0947  0.2822 -0.1611
 4317TIP3    H112908   7.933   2.916   1.527 -0.4517  0.7262 -0.0581
 4317TIP3    H212909   7.818   2.936   1.431  0.3621  1.0349 -0.9723
 4318TIP3   OH212910   7.556   6.973   1.157  0.3661 -0.4257 -0.5529
 4318TIP3    H112911   7.505   7.037   1.206  1.8436  0.1913  0.2226
 4318TIP3    H212912   7.543   6.997   1.065 -0.0817  0.2101 -0.3270
 4319TIP3   OH212913   1.957   3.370   3.801 -0.7420  0.2782  0.6964
 4319TIP3    H112914   1.987   3.383   3.711 -0.9285  0.7121  0.6931
 4319TIP3    H212915   1.917   3.283   3.801  0.4648 -0.2946  0.6902
 4320TIP3   OH212916   0.079   2.597   4.628  0.3449  0.7408 -0.1354
 4320TIP3    H112917   0.057   2.522   4.572 -1.0423  0.4711  0.7221
 4320TIP3    H212918   0.142   2.562   4.690 -0.1989  0.2975  0.1822
 4321TIP3   OH212919   2.104   4.704   3.236  0.5984 -0.2178  0.0534
 4321TIP3    H112920   2.082   4.723   3.327  0.4356  0.5394 -0.1406
 4321TIP3    H212921   2.114   4.608   3.234 -1.6060 -0.4997  0.3820
 4322TIP3   OH212922   2.398   5.779   1.968 -0.3586 -0.0794  0.1611
 4322TIP3    H112923   2.317   5.780   1.917 -0.2235 -0.5860 -0.0786
 4322TIP3    H212924   2.377   5.823   2.049 -0.3826  1.4350 -0.6329
 4323TIP3   OH212925   7.680   4.749   4.153 -0.0349 -0.7873 -0.3072
 4323TIP3    H112926   7.594   4.709   4.146 -0.8069  0.9323 -1.0646
 4323TIP3    H212927   7.712   4.756   4.063 -0.4784  1.3953 -0.3432
 4324TIP3   OH212928   1.851   4.450   2.895 -0.3879 -0.0832  0.3414
 4324TIP3    H112929   1.779   4.435   2.956  0.3001  0.5909  1.3280
 4324TIP3    H212930   1.900   4.523   2.931  0.9468 -0.6780 -0.1877
 4325TIP3   OH212931   0.142   5.906   5.509 -0.6434 -0.0144  0.3327
 4325TIP3    H112932   0.110   5.885   5.421  0.3755 -0.3065  0.0121
 4325TIP3    H212933   0.228   5.946   5.493 -1.2819  1.7451  1.0897
 4326TIP3   OH212934   7.464   0.475   0.849 -0.1842  0.1500  0.1094
 4326TIP3    H112935   7.418   0.408   0.798 -0.2969 -0.7840  1.3811
 4326TIP3    H212936   7.400   0.503   0.914  0.4931  0.0674  0.8199
 4327TIP3   OH212937   3.393   6.852   3.348 -0.3816  0.4470 -0.0104
 4327TIP3    H112938   3.313   6.887   3.309 -0.2437  0.6168 -0.1423
 4327TIP3    H212939   3.364   6.774   3.396 -0.6784  0.6898  0.2133
 4328TIP3   OH212940   6.641   0.793   4.562 -0.3012  0.0748 -0.1450
 4328TIP3    H112941   6.608   0.881   4.579  0.2152  0.5263 -1.3315
 4328TIP3    H212942   6.687   0.800   4.478 -3.8588 -2.2141 -2.5824
 4329TIP3   OH212943   6.911   1.991   6.351 -0.0031 -0.0660  0.2824
 4329TIP3    H112944   6.853   1.916   6.363 -0.2044  0.3354  2.0941
 4329TIP3    H212945   6.997   1.960   6.378  1.4475 -1.4985 -4.8979
 4330TIP3   OH212946   6.396   3.741   1.922  0.0022  0.8035 -0.4253
 4330TIP3    H112947   6.432   3.803   1.859 -3.2994  1.3461 -1.9907
 4330TIP3    H212948   6.348   3.795   1.986  2.7098  0.2119  2.3362
 4331TIP3   OH212949   4.438   4.733   3.388 -0.2472 -0.4333  0.6882
 4331TIP3    H112950   4.481   4.721   3.303  1.6740 -0.5605  1.6183
 4331TIP3    H212951   4.345   4.721   3.370 -0.0663  0.9421 -1.6550
 4332TIP3   OH212952   1.901   6.223   4.417  0.4139  0.3097 -0.0813
 4332TIP3    H112953   1.835   6.270   4.468  0.5236  0.1234  0.2348
 4332TIP3    H212954   1.867   6.134   4.408  0.8816  0.0522  0.5798
 4333TIP3   OH212955   1.615   3.441   2.036 -0.2166 -0.0665 -0.2049
 4333TIP3    H112956   1.660   3.474   2.113  0.6356 -0.9691 -0.2965
 4333TIP3    H212957   1.538   3.497   2.027  2.0382  3.1813 -1.4295
 4334TIP3   OH212958   1.797   1.414   3.025  0.2582  0.1423  0.0479
 4334TIP3    H112959   1.860   1.455   2.965  0.7300  0.8089  0.9771
 4334TIP3    H212960   1.723   1.475   3.026  0.5775  0.5354  0.7219
 4335TIP3   OH212961   6.353   0.916   6.557  0.1297 -0.7362  0.2650
 4335TIP3    H112962   6.413   0.989   6.572  2.0310 -1.8692 -1.3687
 4335TIP3    H212963   6.280   0.933   6.617 -1.0657  4.0962 -2.0524
 4336TIP3   OH212964   6.940   4.339   6.524 -0.3321 -0.0934 -0.0330
 4336TIP3    H112965   6.858   4.340   6.573  0.0409 -0.4250  0.5988
 4336TIP3    H212966   6.927   4.271   6.458 -1.9864  2.3154 -2.4266
 4337TIP3   OH212967   7.215   1.949   4.662  0.4253 -0.0453 -0.6424
 4337TIP3    H112968   7.263   1.869   4.643  1.2033  0.6342 -1.5908
 4337TIP3    H212969   7.166   1.968   4.582 -1.1262 -0.4892  0.1607
 4338TIP3   OH212970   7.264   4.362   0.315 -0.3016  0.0853  0.0798
 4338TIP3    H112971   7.212   4.294   0.273 -0.1472  0.7424 -1.2018
 4338TIP3    H212972   7.204   4.405   0.376 -1.1569  0.5904 -1.1004
 4339TIP3   OH212973   4.025   7.547   3.278  0.3168  0.0143 -0.2087
 4339TIP3    H112974   4.047   7.535   3.370 -1.5446 -1.6378  0.0928
 4339TIP3    H212975   3.930   7.555   3.276  0.4052  1.2578 -1.8969
 4340TIP3   OH212976   3.116   6.466   6.515 -0.1512 -0.7829  0.1572
 4340TIP3    H112977   3.163   6.545   6.540  0.9422 -1.3970  0.0993
 4340TIP3    H212978   3.025   6.494   6.506  0.4037  0.7494 -1.0952
 4341TIP3   OH212979   4.757   3.663   3.227 -0.2055 -0.3612 -0.2833
 4341TIP3    H112980   4.829   3.712   3.268 -0.6903 -0.3139  0.5445
 4341TIP3    H212981   4.690   3.660   3.295 -0.4835 -1.5292 -0.5915
 4342TIP3   OH212982   5.900   5.249   4.853 -0.2545 -0.0560 -0.2273
 4342TIP3    H112983   5.967   5.260   4.921 -0.2335  1.1434 -0.4133
 4342TIP3    H212984   5.817   5.248   4.901 -0.1055 -2.5328  0.1009
 4343TIP3   OH212985   0.423   5.484   4.079  0.1806 -0.6584 -0.0513
 4343TIP3    H112986   0.345   5.537   4.065  0.5216 -0.4156 -1.1337
 4343TIP3    H212987   0.476   5.498   4.000  2.4709  1.1410  1.6936
 4344TIP3   OH212988   7.195   5.465   3.511 -0.2566 -0.9084 -0.2053
 4344TIP3    H112989   7.165   5.435   3.597  0.6531 -2.1316 -0.2887
 4344TIP3    H212990   7.157   5.403   3.449 -0.5873 -0.2626 -0.6585
 4345TIP3   OH212991   1.138   4.065   1.538  0.0970  0.4608 -0.0307
 4345TIP3    H112992   1.052   4.090   1.571  0.8539  0.7162  1.8779
 4345TIP3    H212993   1.158   3.982   1.582  1.6991  1.4748  1.3047
 4346TIP3   OH212994   5.129   3.506   1.915 -0.5920 -0.0745  0.1754
 4346TIP3    H112995   5.172   3.503   2.000 -0.7273  0.3839  0.2611
 4346TIP3    H212996   5.036   3.503   1.935 -0.6173 -0.3239  0.0245
 4347TIP3   OH212997   4.077   3.707   4.207  0.4508 -0.4189 -0.7958
 4347TIP3    H112998   4.043   3.649   4.276 -1.2023 -0.7556 -1.8290
 4347TIP3    H212999   4.153   3.661   4.172  1.6315 -0.0181  1.0739
 4348TIP3   OH213000   4.833   6.622   5.033 -0.2683  0.1429 -0.1080
 4348TIP3    H113001   4.844   6.535   4.995  1.5624  0.9293 -1.5077
 4348TIP3    H213002   4.780   6.670   4.970  0.9414  0.7984 -0.6603
 4349TIP3   OH213003  -0.020   5.532   3.691 -0.3218  0.3776  0.1286
 4349TIP3    H113004   0.004   5.616   3.653  0.6475  0.1267  0.1602
 4349TIP3    H213005   0.050   5.472   3.665 -1.1692 -0.5142 -0.1891
 4350TIP3   OH213006   5.216   3.008   4.149  0.2751  0.0972 -0.1503
 4350TIP3    H113007   5.200   2.963   4.066 -0.6604 -0.0776  0.1142
 4350TIP3    H213008   5.223   3.100   4.125 -4.9245  0.8104  0.0070
 4351TIP3   OH213009   1.236   2.236   6.024  0.4771  0.7859 -0.2809
 4351TIP3    H113010   1.297   2.265   5.957 -1.4218  2.1068 -1.5573
 4351TIP3    H213011   1.185   2.166   5.982  1.0900 -0.3412  0.7756
 4352TIP3   OH213012   7.525   5.000   1.828  0.1117  0.4045 -0.3965
 4352TIP3    H113013   7.514   4.957   1.743  1.2919  1.0186 -0.8794
 4352TIP3    H213014   7.602   4.959   1.866 -0.3356  0.2214  0.3414
 4353TIP3   OH213015   7.763   5.185   1.959  0.2540 -0.3175  0.1539
 4353TIP3    H113016   7.755   5.090   1.971 -1.5482 -0.2101  0.0293
 4353TIP3    H213017   7.744   5.198   1.866  2.7436 -0.0179 -0.3810
 4354TIP3   OH213018   1.641   0.761   6.359  0.5619 -0.5024 -0.0394
 4354TIP3    H113019   1.628   0.852   6.384  1.0968 -0.6583  0.8658
 4354TIP3    H213020   1.636   0.761   6.264 -2.8583 -0.0793  0.0278
 4355TIP3   OH213021   3.637   4.411   1.223 -0.0309 -0.7381  0.0987
 4355TIP3    H113022   3.710   4.375   1.173 -2.0816 -3.3096 -1.3309
 4355TIP3    H213023   3.628   4.501   1.190  0.6466 -1.3418 -1.9272
 4356TIP3   OH213024   0.744   4.812   0.476  0.0977  0.3695 -0.0752
 4356TIP3    H113025   0.755   4.829   0.569 -0.0591  2.6955 -0.4255
 4356TIP3    H213026   0.794   4.881   0.432 -1.7448  0.7768 -1.6886
 4357TIP3   OH213027   1.168   5.974   0.477 -0.0501  0.2174 -0.0442
 4357TIP3    H113028   1.247   5.979   0.530  0.0303  0.6926 -0.2011
 4357TIP3    H213029   1.109   6.039   0.515  0.8293  2.2132 -1.8563
 4358TIP3   OH213030   6.689   2.356   1.822  0.0231  0.1582  0.0265
 4358TIP3    H113031   6.755   2.423   1.800  0.8510 -0.6813 -0.0915
 4358TIP3    H213032   6.721   2.318   1.904 -0.0540 -0.5958 -0.2952
 4359TIP3   OH213033   8.092   6.923   5.538 -0.0707 -0.1114  0.4967
 4359TIP3    H113034   8.162   6.904   5.475  0.1831  2.0849  0.0253
 4359TIP3    H213035   8.136   6.972   5.608 -1.0989  1.5226  0.0707
 4360TIP3   OH213036   1.016   0.278   3.827  0.4284 -0.6799 -0.6679
 4360TIP3    H113037   1.109   0.298   3.839  0.0244  0.7104  0.3426
 4360TIP3    H213038   0.980   0.275   3.916 -0.8712  0.8003 -1.1055
 4361TIP3   OH213039   0.730   7.789   3.129 -0.2248 -0.0214 -0.2585
 4361TIP3    H113040   0.794   7.736   3.080  1.4219  2.2350 -0.7372
 4361TIP3    H213041   0.733   7.875   3.086  1.1838  2.0674  3.5791
 4362TIP3   OH213042   7.170   6.810   6.310  0.1989  0.6734  0.0816
 4362TIP3    H113043   7.192   6.886   6.364 -0.3934 -0.6373  2.3038
 4362TIP3    H213044   7.078   6.823   6.287  0.2452  0.8714  0.0066
 4363TIP3   OH213045   6.181   2.869   5.995 -0.1084 -0.0682  0.3158
 4363TIP3    H113046   6.253   2.812   6.020 -0.4569 -0.5530  0.2189
 4363TIP3    H213047   6.178   2.865   5.899  0.2553  0.5953  0.2709
 4364TIP3   OH213048   6.343   1.243   1.330 -0.7033  0.2088 -0.4642
 4364TIP3    H113049   6.395   1.163   1.330  0.7248  1.0798 -1.6537
 4364TIP3    H213050   6.406   1.312   1.350 -1.7490  1.1140 -0.2241
 4365TIP3   OH213051   4.473   4.438   5.847 -0.5343 -0.2294  0.1992
 4365TIP3    H113052   4.456   4.532   5.860  0.1958  0.0661 -0.8657
 4365TIP3    H213053   4.398   4.408   5.796  0.3142  0.2845 -1.3986
 4366TIP3   OH213054   8.215   3.878   4.812 -0.0887  0.2445  0.3274
 4366TIP3    H113055   8.290   3.910   4.862  0.7742  0.6800 -1.1966
 4366TIP3    H213056   8.156   3.953   4.806 -0.4358  0.0452  1.0941
 4367TIP3   OH213057   3.092   7.147   4.956  0.3765 -0.0101 -0.2988
 4367TIP3    H113058   3.131   7.091   4.890  2.1855  1.5182 -0.6189
 4367TIP3    H213059   3.091   7.234   4.916 -1.2000  0.4537  0.6286
 4368TIP3   OH213060   3.343   5.867   1.075  0.1989 -0.6473  0.4973
 4368TIP3    H113061   3.285   5.887   1.001  0.1221  1.1920  1.0246
 4368TIP3    H213062   3.425   5.912   1.054 -0.4367  1.5713  2.3788
 4369TIP3   OH213063   0.913   5.336   0.365  0.0283 -0.1606 -0.7507
 4369TIP3    H113064   1.005   5.337   0.338 -0.0025  1.2171 -0.8561
 4369TIP3    H213065   0.895   5.425   0.394 -1.2933 -0.3948 -0.7768
 4370TIP3   OH213066   2.043   3.337   5.954  0.0979 -0.5520 -0.7981
 4370TIP3    H113067   2.098   3.414   5.942  0.7149 -0.6845  0.8509
 4370TIP3    H213068   2.079   3.272   5.894  1.2656 -0.3764 -0.3285
 4371TIP3   OH213069   3.098   2.147   5.121  0.0568 -0.3149 -0.2646
 4371TIP3    H113070   3.003   2.136   5.115  0.1796 -0.7473 -1.7667
 4371TIP3    H213071   3.121   2.202   5.046  0.8523  0.8734  0.8019
 4372TIP3   OH213072   2.900   2.958   5.968 -0.2243  0.2316 -0.4788
 4372TIP3    H113073   2.991   2.974   5.993 -0.6354 -1.4064  2.5452
 4372TIP3    H213074   2.904   2.885   5.907  0.4821 -0.7727  0.7119
 4373TIP3   OH213075   0.921   0.580   1.563  0.3240  0.1676  0.4374
 4373TIP3    H113076   1.005   0.536   1.551  0.0773  0.0963 -1.3290
 4373TIP3    H213077   0.942   0.661   1.611  1.4003  0.1754 -0.0367
 4374TIP3   OH213078   2.048   3.000   2.213  0.0917 -0.7827  0.0552
 4374TIP3    H113079   2.133   3.025   2.175  0.3862 -0.0617  1.1362
 4374TIP3    H213080   2.063   2.912   2.248  0.8246 -0.1350  1.4443
 4375TIP3   OH213081   7.094   0.039   0.915  0.1845  0.2216  0.2247
 4375TIP3    H113082   7.058  -0.036   0.962 -0.0127  0.9106  1.1971
 4375TIP3    H213083   7.019   0.094   0.895  0.4256  0.5655  0.2547
 4376TIP3   OH213084   6.651   7.077   1.743  0.0199  0.2819 -0.2895
 4376TIP3    H113085   6.677   7.150   1.799 -0.8201  0.1496  0.2925
 4376TIP3    H213086   6.588   7.115   1.681  0.3286  0.2509 -0.6294
 4377TIP3   OH213087   7.799   3.132   0.222  0.0018 -0.3717 -0.0789
 4377TIP3    H113088   7.770   3.104   0.135 -2.1781 -0.8590  0.7437
 4377TIP3    H213089   7.798   3.227   0.219  1.0143 -0.3707 -0.8917
 4378TIP3   OH213090   7.280   6.876   2.066  0.4694 -0.6032 -0.4176
 4378TIP3    H113091   7.345   6.805   2.065  1.1288 -0.0158 -0.1757
 4378TIP3    H213092   7.299   6.925   2.146  0.1873 -0.0013 -0.7108
 4379TIP3   OH213093   2.146   3.093   0.093 -0.0816  0.6358 -0.5468
 4379TIP3    H113094   2.145   3.001   0.118 -0.5216  0.7026 -0.3036
 4379TIP3    H213095   2.210   3.133   0.153  0.3517  0.4321 -0.8707
 4380TIP3   OH213096   7.558   1.871   4.674 -0.3781 -0.0068 -0.3502
 4380TIP3    H113097   7.591   1.788   4.642 -1.8415 -0.1818 -1.5222
 4380TIP3    H213098   7.633   1.930   4.671  0.4076 -0.9933 -0.5737
 4381TIP3   OH213099   1.770   4.319   0.243  0.0999  0.0483  0.1369
 4381TIP3    H113100   1.743   4.333   0.152 -1.9760  0.3870  0.7570
 4381TIP3    H213101   1.814   4.400   0.268  0.3338  0.1033 -0.4413
 4382TIP3   OH213102   3.452   4.716   3.142  0.2074  0.9224 -0.0828
 4382TIP3    H113103   3.449   4.771   3.064  2.3500  0.9863 -0.2009
 4382TIP3    H213104   3.362   4.713   3.174 -0.6037  1.4468 -2.1605
 4383TIP3   OH213105   3.515   3.290   5.681 -0.4598 -0.0966 -0.4707
 4383TIP3    H113106   3.570   3.333   5.617 -2.3151  4.5546  0.6164
 4383TIP3    H213107   3.428   3.290   5.641 -0.7052 -2.2712 -0.0443
 4384TIP3   OH213108   3.597   5.687   1.755 -0.2481 -0.3019 -0.1031
 4384TIP3    H113109   3.555   5.704   1.670 -0.4131 -0.1514  0.0097
 4384TIP3    H213110   3.638   5.601   1.744 -0.7706 -0.5477 -0.1417
 4385TIP3   OH213111   7.571   2.429   3.713  0.2504  0.6341 -0.0477
 4385TIP3    H113112   7.603   2.472   3.633  3.2158 -0.1725  0.5933
 4385TIP3    H213113   7.627   2.464   3.783  0.5941 -1.8295  0.9894
 4386TIP3   OH213114   0.370   3.603   6.534 -0.3716 -0.1212  0.3626
 4386TIP3    H113115   0.417   3.535   6.487 -2.6191 -0.7492 -1.1220
 4386TIP3    H213116   0.432   3.632   6.602  1.9377 -1.1327 -1.1802
 4387TIP3   OH213117   6.134   5.967   3.574 -0.0680  0.2686  0.0850
 4387TIP3    H113118   6.123   6.060   3.553 -1.7950  0.2739  0.8961
 4387TIP3    H213119   6.164   5.966   3.665 -0.6782  0.0109  0.2822
 4388TIP3   OH213120   2.956   1.527   2.701 -0.2626  0.1052  0.3976
 4388TIP3    H113121   2.926   1.615   2.680  0.8993  0.7636  1.3589
 4388TIP3    H213122   3.012   1.538   2.777 -0.4404 -1.5387  0.8108
 4389TIP3   OH213123   3.250   0.520   5.518  0.5153 -0.0960  0.6278
 4389TIP3    H113124   3.330   0.474   5.543 -0.2007 -0.7946  1.7910
 4389TIP3    H213125   3.275   0.612   5.513  1.3875 -0.3066  0.9757
 4390TIP3   OH213126   1.769   7.201   1.598  0.2607  0.0004  0.6806
 4390TIP3    H113127   1.723   7.284   1.589  0.3214  0.0872  1.1801
 4390TIP3    H213128   1.725   7.156   1.670 -0.9488 -1.1892 -0.7214
 4391TIP3   OH213129   7.483   1.036   5.529 -0.4068  0.7764  0.1161
 4391TIP3    H113130   7.567   1.045   5.575  0.4514  2.1764 -1.6227
 4391TIP3    H213131   7.432   1.111   5.558 -0.9068  0.2084  0.7663
 4392TIP3   OH213132   5.852   7.144   3.119  0.3633  0.3557  0.2625
 4392TIP3    H113133   5.916   7.214   3.134  0.7325 -0.0599  0.6534
 4392TIP3    H213134   5.830   7.112   3.206 -1.1533  1.1630  0.2070
 4393TIP3   OH213135   3.793   6.715   4.938  0.2424  0.6606 -0.0525
 4393TIP3    H113136   3.885   6.740   4.929  0.1896  0.8333 -0.1253
 4393TIP3    H213137   3.795   6.622   4.960  0.4946  1.0781  1.8051
 4394TIP3   OH213138   2.709   4.064   2.079 -0.3487  0.0983 -0.4524
 4394TIP3    H113139   2.735   4.035   1.991 -1.4741 -2.7966  0.0838
 4394TIP3    H213140   2.790   4.096   2.118  0.8991 -1.7055 -1.4182
 4395TIP3   OH213141   8.235   0.168   4.653  0.3190  0.2233  0.1707
 4395TIP3    H113142   8.149   0.199   4.623  1.1083  0.0063 -2.5955
 4395TIP3    H213143   8.224   0.073   4.662  0.4257  0.1004 -0.8824
 4396TIP3   OH213144   0.056   5.573   1.902 -0.4171  0.6358  0.5263
 4396TIP3    H113145   0.062   5.599   1.993  2.1577 -0.0974  0.6419
 4396TIP3    H213146   0.124   5.623   1.858 -2.1950  1.6601 -1.2304
 4397TIP3   OH213147   1.321   7.434   0.950  0.4849 -0.4015  0.1427
 4397TIP3    H113148   1.409   7.467   0.966  0.0691 -0.4977  3.0121
 4397TIP3    H213149   1.327   7.340   0.966  0.3121 -0.8450 -2.0068
 4398TIP3   OH213150   4.623   6.194   5.412 -0.0267 -0.2429  0.4069
 4398TIP3    H113151   4.540   6.235   5.386 -0.1612 -0.7023  0.0917
 4398TIP3    H213152   4.596   6.115   5.459  0.2037 -1.3666 -1.2395
 4399TIP3   OH213153   6.095   5.801   5.141 -0.1005  0.2316 -0.0552
 4399TIP3    H113154   6.044   5.726   5.173  3.4698 -2.6424 -0.3375
 4399TIP3    H213155   6.143   5.832   5.218  1.0010 -0.0925 -0.5880
 4400TIP3   OH213156   7.820   5.833   4.298 -0.2656 -0.2576  0.2758
 4400TIP3    H113157   7.874   5.763   4.261 -0.3355 -0.1445 -0.0430
 4400TIP3    H213158   7.841   5.832   4.391  1.3905  0.7310 -0.0451
 4401TIP3   OH213159   8.183   5.775   5.710 -0.4234 -0.3130  0.5378
 4401TIP3    H113160   8.101   5.787   5.758 -0.6465  2.1950 -0.3178
 4401TIP3    H213161   8.158   5.782   5.618  0.7388  0.3975  0.2621
 4402TIP3   OH213162   0.584   7.465   5.004 -0.4174 -0.2542  0.2182
 4402TIP3    H113163   0.574   7.510   4.920  0.4354 -1.3852 -0.5130
 4402TIP3    H213164   0.664   7.412   4.994 -0.7367 -1.0135  1.4595
 4403TIP3   OH213165   1.624   5.720   4.019  0.0371 -0.3943  0.6841
 4403TIP3    H113166   1.653   5.708   4.110 -0.3114 -1.1805  0.7020
 4403TIP3    H213167   1.682   5.663   3.968 -0.5506 -0.8937  0.5610
 4404TIP3   OH213168   5.262   0.250   0.769  0.2446  0.1196  0.2334
 4404TIP3    H113169   5.182   0.210   0.734  0.5973 -0.0267 -0.4195
 4404TIP3    H213170   5.316   0.267   0.692  0.4187  1.1769  0.5730
 4405TIP3   OH213171   2.565   2.541   1.454 -0.0878 -0.1816  0.1083
 4405TIP3    H113172   2.623   2.549   1.378 -0.7616  1.1245 -0.2938
 4405TIP3    H213173   2.514   2.622   1.454 -0.9749 -0.7146  1.2366
 4406TIP3   OH213174   6.295   7.292   2.637  0.1577 -0.1289  0.2203
 4406TIP3    H113175   6.382   7.285   2.678 -0.5665  0.1878  1.9005
 4406TIP3    H213176   6.279   7.206   2.599  0.9369 -0.3853  0.4524
 4407TIP3   OH213177   2.127   5.123   3.708  0.9815 -0.0768 -0.4768
 4407TIP3    H113178   2.142   5.216   3.688 -2.6441  1.7911  3.7715
 4407TIP3    H213179   2.200   5.099   3.764  1.4703  0.5010 -0.8504
 4408TIP3   OH213180   4.435   7.247   3.430  0.2909 -0.1895  0.1982
 4408TIP3    H113181   4.491   7.212   3.499  2.5052 -0.2777 -1.5465
 4408TIP3    H213182   4.462   7.202   3.350  0.8689  2.8848 -1.5274
 4409TIP3   OH213183   7.136   2.037   3.974 -0.4923  0.0633  0.0824
 4409TIP3    H113184   7.171   2.049   4.062  0.5024  2.7355 -0.5866
 4409TIP3    H213185   7.080   2.112   3.960 -0.5880 -0.2822 -1.5854
 4410TIP3   OH213186   7.973   4.996   2.246  0.3061 -0.2027  0.0718
 4410TIP3    H113187   7.976   4.964   2.336 -2.9301 -0.7365  0.1208
 4410TIP3    H213188   7.949   5.088   2.253  1.3804  0.1238 -0.2641
 4411TIP3   OH213189   2.423   4.720   3.325  0.1915  0.2165 -0.0403
 4411TIP3    H113190   2.423   4.808   3.361  3.7118  0.9938 -1.5334
 4411TIP3    H213191   2.397   4.732   3.234 -1.6742 -0.7247  0.3155
 4412TIP3   OH213192   2.133   1.596   2.517  0.5567 -0.6162 -0.3417
 4412TIP3    H113193   2.212   1.566   2.562  0.6128 -0.9467 -0.6653
 4412TIP3    H213194   2.156   1.683   2.483  0.3999 -0.2021  0.5684
 4413TIP3   OH213195   6.882   6.266   3.493  0.3675 -0.0471 -0.0296
 4413TIP3    H113196   6.886   6.178   3.456  0.0458  0.0376 -0.2702
 4413TIP3    H213197   6.900   6.325   3.419 -3.1835  0.2861 -0.8387
 4414TIP3   OH213198   4.049   1.279   5.463  0.5923 -0.2207 -0.4523
 4414TIP3    H113199   4.099   1.296   5.383  0.5400  0.6420 -0.3065
 4414TIP3    H213200   3.973   1.337   5.457 -1.0386 -2.3061 -1.2193
 4415TIP3   OH213201   2.065   1.978   2.711  0.3884 -0.1314  0.1899
 4415TIP3    H113202   2.132   1.940   2.655  0.1802 -1.4847  0.8261
 4415TIP3    H213203   2.043   2.061   2.669 -0.1044 -1.2877 -1.9838
 4416TIP3   OH213204   4.580   5.161   1.397 -0.3798  0.5053 -0.5591
 4416TIP3    H113205   4.571   5.096   1.466  1.3140 -1.0514 -1.7176
 4416TIP3    H213206   4.594   5.244   1.444 -0.0044 -0.3792  0.9562
 4417TIP3   OH213207   5.212   7.268   0.251 -0.1198 -0.1327 -0.1602
 4417TIP3    H113208   5.135   7.216   0.274  0.3557 -1.8704 -2.1362
 4417TIP3    H213209   5.190   7.357   0.278 -1.5805 -1.0741  2.0246
 4418TIP3   OH213210   7.180   7.238   1.030  0.7757 -0.0057  0.3324
 4418TIP3    H113211   7.256   7.276   0.987  1.2760 -1.0466  0.2619
 4418TIP3    H213212   7.118   7.221   0.959  2.2598 -3.3132 -0.3679
 4419TIP3   OH213213   4.483   2.310   0.889  0.0027 -0.0339 -0.4172
 4419TIP3    H113214   4.443   2.314   0.976  1.6331  0.5840  0.3363
 4419TIP3    H213215   4.468   2.396   0.851  0.7300  0.2432 -0.0795
 4420TIP3   OH213216   8.268   2.781   3.360  0.1477 -0.3128 -0.0317
 4420TIP3    H113217   8.298   2.697   3.325  1.2574 -0.1047  0.3771
 4420TIP3    H213218   8.238   2.829   3.283  1.4548 -0.3071 -0.5611
 4421TIP3   OH213219   3.216   7.066   1.276 -0.1054 -0.6220  0.2913
 4421TIP3    H113220   3.207   7.028   1.189 -0.3071  0.8741 -0.3630
 4421TIP3    H213221   3.284   7.133   1.267 -1.9043  1.3625  0.6046
 4422TIP3   OH213222   0.610   2.462   3.612  0.0303  0.0685  0.5200
 4422TIP3    H113223   0.545   2.532   3.613  0.6613  0.7249 -0.9125
 4422TIP3    H213224   0.564   2.387   3.574  0.1274  0.5912 -0.6835
 4423TIP3   OH213225   1.081   5.726   0.390 -0.2253 -0.3742  0.1700
 4423TIP3    H113226   1.096   5.815   0.423 -1.9383 -0.2112  0.6117
 4423TIP3    H213227   1.118   5.726   0.302 -1.2942  1.1615 -0.3048
 4424TIP3   OH213228   0.221   4.781   4.212 -0.4750  0.0935  0.5626
 4424TIP3    H113229   0.159   4.825   4.154 -1.5072 -0.1936  1.4105
 4424TIP3    H213230   0.183   4.694   4.225  0.5901 -0.4115  0.3707
 4425TIP3   OH213231   7.998   6.425   0.411  0.0713  0.5069  0.5953
 4425TIP3    H113232   7.921   6.479   0.389  0.3665 -0.1253 -2.3439
 4425TIP3    H213233   8.070   6.466   0.364  0.9761 -0.5673  1.0052
 4426TIP3   OH213234   6.663   3.109   0.655  0.0971 -0.9626 -0.9701
 4426TIP3    H113235   6.724   3.178   0.630  1.0619 -2.2175 -2.2750
 4426TIP3    H213236   6.706   3.028   0.628 -1.7771 -1.9565 -1.1809
 4427TIP3   OH213237   6.637   3.792   0.709 -0.0387  0.1525  0.7806
 4427TIP3    H113238   6.640   3.875   0.661 -0.4461 -1.1106 -1.6092
 4427TIP3    H213239   6.728   3.771   0.728  0.0697  1.0987  1.3582
 4428TIP3   OH213240   3.955   2.222   5.549  0.3792  0.3872  0.3151
 4428TIP3    H113241   3.922   2.259   5.631 -0.8093  0.3980 -0.1493
 4428TIP3    H213242   3.929   2.285   5.482  0.7134  0.0240 -0.1645
 4429TIP3   OH213243   5.166   0.703   6.070 -0.7349  0.1612  0.3024
 4429TIP3    H113244   5.234   0.750   6.118  0.9109 -0.5107 -1.2537
 4429TIP3    H213245   5.206   0.683   5.985 -3.4983  1.3521 -1.4147
 4430TIP3   OH213246   6.536   0.730   1.091  0.3008  0.1631 -0.3029
 4430TIP3    H113247   6.598   0.772   1.031 -1.7834  2.2259 -1.1411
 4430TIP3    H213248   6.452   0.733   1.045 -0.9013 -0.4551  1.7194
 4431TIP3   OH213249   0.363   6.906   0.728 -0.0492  0.4799  0.3887
 4431TIP3    H113250   0.331   6.977   0.672  0.5430 -0.5362 -1.3022
 4431TIP3    H213251   0.457   6.920   0.733 -0.0041  0.1527  0.5014
 4432TIP3   OH213252   2.255   0.388   4.950 -0.0762 -0.7715 -0.6279
 4432TIP3    H113253   2.344   0.368   4.922 -0.0480  1.3541 -2.2994
 4432TIP3    H213254   2.201   0.372   4.873 -0.9139 -0.5400 -0.1055
 4433TIP3   OH213255   1.654   3.183   1.885 -0.5477 -0.3811  0.1926
 4433TIP3    H113256   1.647   3.245   1.958 -1.2725 -0.8410  0.5292
 4433TIP3    H213257   1.746   3.184   1.861 -0.9008  2.7244 -1.5097
 4434TIP3   OH213258   1.566   5.138   0.735 -0.6818  0.0063  0.0370
 4434TIP3    H113259   1.600   5.161   0.821  0.0852  0.7945 -0.4538
 4434TIP3    H213260   1.473   5.121   0.749 -0.3770 -0.7819  1.1712
 4435TIP3   OH213261   7.495   5.030   6.061  0.0109  0.1023 -0.2866
 4435TIP3    H113262   7.408   4.990   6.069 -0.4331  0.4970 -2.4170
 4435TIP3    H213263   7.485   5.115   6.104  0.0120 -0.6956  1.3750
 4436TIP3   OH213264   3.572   3.641   1.263  0.4447 -0.1173  0.2345
 4436TIP3    H113265   3.588   3.679   1.350  0.5242  1.9626 -0.6326
 4436TIP3    H213266   3.481   3.662   1.244  1.0220  1.4125 -1.0611
 4437TIP3   OH213267   3.859   5.797   4.493 -0.1848 -0.3610 -0.4082
 4437TIP3    H113268   3.829   5.833   4.577  0.9911 -0.1602 -0.0546
 4437TIP3    H213269   3.897   5.713   4.516  1.0662  0.1421 -0.5689
 4438TIP3   OH213270   5.533   3.142   1.556 -0.0317  0.2570 -0.1032
 4438TIP3    H113271   5.621   3.107   1.543 -0.6777 -1.3427 -0.4163
 4438TIP3    H213272   5.521   3.206   1.487 -0.0782 -1.4955 -1.7955
 4439TIP3   OH213273   6.483   0.305   2.071 -0.3610  0.2964 -0.5443
 4439TIP3    H113274   6.439   0.223   2.094 -0.7935  0.7954  0.4528
 4439TIP3    H213275   6.575   0.280   2.059 -0.6328 -0.4791 -1.1174
 4440TIP3   OH213276   6.216   1.798   5.709  0.7951 -0.0836  0.0509
 4440TIP3    H113277   6.303   1.781   5.672  1.9430  0.9837  2.0806
 4440TIP3    H213278   6.205   1.893   5.701 -1.7871 -0.4702 -3.3267
 4441TIP3   OH213279   2.252   5.266   5.871 -0.0638 -0.1182 -0.5463
 4441TIP3    H113280   2.340   5.228   5.872  0.7524  1.6759 -0.2960
 4441TIP3    H213281   2.214   5.239   5.954  0.0115 -1.4150 -0.9197
 4442TIP3   OH213282   2.058   3.334   1.997 -0.4808  0.7247 -0.2378
 4442TIP3    H113283   2.027   3.332   2.087  0.6296 -3.1012  0.2314
 4442TIP3    H213284   1.984   3.302   1.945 -0.4798  1.0725 -0.4615
 4443TIP3   OH213285   1.916   2.781   3.877 -0.1773  0.0496  0.4588
 4443TIP3    H113286   1.982   2.740   3.933 -0.0711  1.0327  1.0685
 4443TIP3    H213287   1.877   2.850   3.931 -0.4642  0.6477 -0.4822
 4444TIP3   OH213288   0.195   5.186   0.554  0.3063  0.3007  0.4930
 4444TIP3    H113289   0.120   5.220   0.602  0.2616  1.1631 -0.1616
 4444TIP3    H213290   0.168   5.099   0.526 -0.4560  0.6096  0.2488
 4445TIP3   OH213291   4.296   7.605   0.664  0.2780  0.0883  0.1248
 4445TIP3    H113292   4.350   7.672   0.707  0.6553  0.9042 -1.5324
 4445TIP3    H213293   4.359   7.553   0.614 -0.1052 -1.1036  0.8538
 4446TIP3   OH213294   1.176   7.670   4.466 -0.0894  0.2656 -0.4262
 4446TIP3    H113295   1.135   7.756   4.476 -2.7861 -0.6044 -2.7701
 4446TIP3    H213296   1.190   7.661   4.372 -1.1859 -2.3655 -0.4068
 4447TIP3   OH213297   1.250   1.948   4.704  0.3715 -0.0146 -0.4696
 4447TIP3    H113298   1.202   2.028   4.685 -0.2991 -0.7192 -1.9139
 4447TIP3    H213299   1.342   1.971   4.692  0.1992  0.5809 -0.6685
 4448TIP3   OH213300   6.039   5.954   1.761 -0.0999  0.2057 -0.2600
 4448TIP3    H113301   6.100   5.999   1.703  0.7114 -2.0806 -1.2864
 4448TIP3    H213302   6.071   5.864   1.765 -2.0766 -0.5165  1.0637
 4449TIP3   OH213303   4.900   1.665   1.888 -0.0223  0.1340  0.2605
 4449TIP3    H113304   4.834   1.733   1.899  0.5341  0.9114 -0.9396
 4449TIP3    H213305   4.871   1.593   1.944 -2.2899  0.1424 -0.8048
 4450TIP3   OH213306   7.387   7.651   4.821 -0.5626  0.1377 -0.2439
 4450TIP3    H113307   7.343   7.593   4.759 -0.7415 -0.7349  0.6774
 4450TIP3    H213308   7.337   7.642   4.902  0.0974  0.7123  0.2444
 4451TIP3   OH213309   7.581   3.652   1.752 -0.6411  0.0109  0.2827
 4451TIP3    H113310   7.493   3.623   1.729 -1.0444  0.5330  1.1275
 4451TIP3    H213311   7.574   3.748   1.753 -0.2205  0.0333  0.9753
 4452TIP3   OH213312   6.105   4.182   1.863 -0.3984 -0.1349 -0.2196
 4452TIP3    H113313   6.138   4.218   1.781 -0.4925  1.4825  0.4137
 4452TIP3    H213314   6.181   4.180   1.921 -0.1738 -1.9157 -0.4979
 4453TIP3   OH213315   3.692   7.755   3.111  0.4373 -0.1738 -0.4776
 4453TIP3    H113316   3.648   7.766   3.195  2.6168  1.8184  0.5212
 4453TIP3    H213317   3.635   7.697   3.062 -2.4881  0.9983  1.2378
 4454TIP3   OH213318   0.035   4.995   0.078 -0.0521  0.4013 -0.4617
 4454TIP3    H113319   0.126   4.967   0.091 -0.3543 -0.7340 -0.6613
 4454TIP3    H213320  -0.017   4.916   0.093 -1.1342  1.3435  0.9991
 4455TIP3   OH213321   1.611   4.750   1.071 -0.0588  0.4159 -0.1817
 4455TIP3    H113322   1.654   4.749   1.157 -1.9838  2.4705  0.8992
 4455TIP3    H213323   1.556   4.671   1.071  0.6701 -0.0988  0.0606
 4456TIP3   OH213324   4.223   6.287   4.814 -0.0645  0.1873  0.2186
 4456TIP3    H113325   4.309   6.317   4.842 -0.0722  0.7384 -0.3223
 4456TIP3    H213326   4.177   6.368   4.788  0.5365 -0.3704 -3.0658
 4457TIP3   OH213327   2.046   5.668   1.079  0.3783  0.0055 -0.3849
 4457TIP3    H113328   2.094   5.706   1.153 -1.1874  0.4374  0.4576
 4457TIP3    H213329   2.011   5.744   1.032  0.2724 -0.3019 -0.8021
 4458TIP3   OH213330   0.417   6.152   1.385  0.0938 -0.3940  0.0561
 4458TIP3    H113331   0.357   6.086   1.350 -0.9891  0.9305 -0.7228
 4458TIP3    H213332   0.361   6.207   1.441  0.7067  0.5378 -0.2300
 4459TIP3   OH213333   3.060   7.848   1.432 -0.3189 -0.4516 -0.6352
 4459TIP3    H113334   3.095   7.788   1.365  0.9079  0.2118 -0.6147
 4459TIP3    H213335   3.065   7.798   1.513 -0.5666 -0.7980 -0.8322
 4460TIP3   OH213336   4.239   5.961   2.875 -0.6610  0.1822  0.0494
 4460TIP3    H113337   4.202   5.960   2.964 -2.8930  2.1388 -0.7505
 4460TIP3    H213338   4.169   5.926   2.820 -0.3342  1.4463 -1.2279
 4461TIP3   OH213339   5.935   0.977   1.561  0.0830 -0.1852 -0.2166
 4461TIP3    H113340   5.846   0.972   1.595 -0.0892  1.1406 -0.4244
 4461TIP3    H213341   5.949   0.892   1.519 -1.3947 -0.1154 -0.9201
 4462TIP3   OH213342   1.496   2.832   6.203  0.1930 -0.0460 -0.4052
 4462TIP3    H113343   1.413   2.852   6.160 -0.6257 -0.7904  0.7849
 4462TIP3    H213344   1.554   2.806   6.131 -0.4862  0.7648 -1.2851
 4463TIP3   OH213345   4.054   6.333   5.229  0.2610 -0.4575 -0.2486
 4463TIP3    H113346   4.075   6.256   5.176  1.6446 -1.0992  1.1601
 4463TIP3    H213347   4.118   6.331   5.301 -1.4837  0.4428  1.3995
 4464TIP3   OH213348   4.305   3.247   1.685  0.2134  0.5759 -0.6004
 4464TIP3    H113349   4.250   3.323   1.704 -0.1736  0.6310 -1.8113
 4464TIP3    H213350   4.286   3.184   1.755 -1.7200  0.4297 -1.2095
 4465TIP3   OH213351   8.170   3.475   3.888 -0.0212 -0.1097 -0.0426
 4465TIP3    H113352   8.259   3.506   3.904  0.5757 -1.0466 -1.3365
 4465TIP3    H213353   8.181   3.386   3.854 -1.4434 -0.2044 -0.3362
 4466TIP3   OH213354   1.021   6.906   1.977 -0.0483 -0.3211 -0.6698
 4466TIP3    H113355   0.978   6.824   1.999 -0.6088 -0.1076 -0.9428
 4466TIP3    H213356   1.108   6.899   2.015 -1.0896  0.2107  2.0851
 4467TIP3   OH213357   3.826   4.661   0.700 -0.0227 -0.0119 -0.4353
 4467TIP3    H113358   3.840   4.635   0.791  0.0735 -0.3605 -0.5476
 4467TIP3    H213359   3.902   4.627   0.653  1.2605  2.3714 -0.2411
 4468TIP3   OH213360   6.384   0.987   2.645 -0.6085 -0.0048  0.1614
 4468TIP3    H113361   6.473   0.986   2.609 -0.4016 -1.8532  0.6451
 4468TIP3    H213362   6.371   0.899   2.681 -1.7404  0.9615  2.3077
 4469TIP3   OH213363   3.777   0.332   1.617 -0.3017 -0.1589  0.0724
 4469TIP3    H113364   3.804   0.422   1.598  0.9490 -0.4624  0.2723
 4469TIP3    H213365   3.813   0.281   1.544  0.2056 -0.6706  0.6721
 4470TIP3   OH213366   7.722   6.892   3.549  0.5888 -0.0184  0.5945
 4470TIP3    H113367   7.812   6.864   3.562  0.6000 -0.3431 -0.1386
 4470TIP3    H213368   7.727   6.963   3.486  0.3185 -0.1905  0.3725
 4471TIP3   OH213369   2.821   4.882   5.413 -0.1418 -0.1124 -0.2145
 4471TIP3    H113370   2.772   4.904   5.493  0.9863  1.9581 -0.0191
 4471TIP3    H213371   2.802   4.790   5.398 -1.8000 -0.1048  1.4463
 4472TIP3   OH213372   7.996   7.449   1.604  0.5138  0.0136 -0.0160
 4472TIP3    H113373   8.024   7.516   1.667  0.1080 -0.6527  0.9020
 4472TIP3    H213374   8.047   7.467   1.526 -0.8377  2.5105 -0.4436
 4473TIP3   OH213375   0.234   6.188   0.683  0.2214  0.6160  0.3957
 4473TIP3    H113376   0.202   6.098   0.686  0.1837  0.6050 -0.1602
 4473TIP3    H213377   0.161   6.238   0.646  0.6714  0.6610 -0.4696
 4474TIP3   OH213378   2.895   3.328   2.073 -0.0687 -0.0058 -0.1411
 4474TIP3    H113379   2.939   3.248   2.101  2.2311  1.3361  0.4035
 4474TIP3    H213380   2.903   3.327   1.977 -0.3359 -0.5951 -0.1541
 4475TIP3   OH213381   0.573   6.245   5.483  0.4684  0.3969  0.0703
 4475TIP3    H113382   0.642   6.180   5.470  0.1813  0.1666 -0.3381
 4475TIP3    H213383   0.603   6.322   5.434  0.1417  0.0755 -0.6577
 4476TIP3   OH213384   8.216   1.080   3.512  0.6254  0.1505 -0.0925
 4476TIP3    H113385   8.160   1.063   3.437  0.8575 -2.1570  0.1934
 4476TIP3    H213386   8.281   1.143   3.479 -1.4475  2.1345 -0.6824
 4477TIP3   OH213387   7.504   0.634   1.781 -0.1496 -0.6663 -0.2752
 4477TIP3    H113388   7.498   0.730   1.779  0.0034 -0.6562 -0.2366
 4477TIP3    H213389   7.485   0.611   1.872 -0.3973 -0.6872 -0.3307
 4478TIP3   OH213390   1.146   2.154   3.674 -0.1264  0.0634 -0.3292
 4478TIP3    H113391   1.236   2.165   3.705  0.5017 -0.1625 -1.9760
 4478TIP3    H213392   1.121   2.242   3.645 -0.0385 -0.0765 -0.8448
 4479TIP3   OH213393   1.238   7.773   1.554  0.2168  0.6572 -0.1716
 4479TIP3    H113394   1.187   7.716   1.612 -0.0810  0.3444 -0.7392
 4479TIP3    H213395   1.294   7.823   1.614 -2.0371  2.3675  0.6500
 4480TIP3   OH213396   4.861   7.675   0.602 -1.0872 -0.0443 -0.1811
 4480TIP3    H113397   4.857   7.643   0.512 -1.0984  0.5587 -0.4038
 4480TIP3    H213398   4.805   7.753   0.601  0.6832  1.2914 -0.2351
 4481TIP3   OH213399   5.689   4.973   6.455  0.4709  0.6376  0.2842
 4481TIP3    H113400   5.723   4.942   6.539  1.9478 -0.7171 -0.7613
 4481TIP3    H213401   5.595   4.987   6.471  0.5768 -0.3140  1.9453
 4482TIP3   OH213402   2.725   2.860   6.205 -0.3435  0.1987  0.1427
 4482TIP3    H113403   2.692   2.918   6.136 -0.1956  0.1523  0.0312
 4482TIP3    H213404   2.816   2.842   6.180 -0.5146 -0.4196 -0.0572
 4483TIP3   OH213405   6.136   3.780   4.157  0.5964 -0.4724  0.4869
 4483TIP3    H113406   6.163   3.787   4.065  1.1156 -0.7134  0.6162
 4483TIP3    H213407   6.097   3.865   4.177  1.6519  0.0411  0.4081
 4484TIP3   OH213408   7.822   7.527   5.840  0.7805  0.1822  0.6637
 4484TIP3    H113409   7.893   7.553   5.781  0.8787 -0.0706  0.6686
 4484TIP3    H213410   7.749   7.507   5.782  1.1595 -0.9604  0.5643
 4485TIP3   OH213411   1.277   5.752   0.636  0.0073 -0.0897  0.0656
 4485TIP3    H113412   1.253   5.699   0.560  2.2406 -1.2710  0.0819
 4485TIP3    H213413   1.213   5.728   0.703 -0.5371 -0.8805 -0.7145
 4486TIP3   OH213414   6.863   7.505   2.405 -0.1038 -0.6742  0.0294
 4486TIP3    H113415   6.814   7.423   2.399  1.7015 -1.7465 -0.9599
 4486TIP3    H213416   6.936   7.495   2.344  0.3020  1.6119  0.0233
 4487TIP3   OH213417   3.399   5.964   5.108 -0.0519 -0.0919 -0.0368
 4487TIP3    H113418   3.413   5.885   5.056  1.0285 -0.2484  0.4700
 4487TIP3    H213419   3.446   5.947   5.190  0.2586  1.1094  0.0486
 4488TIP3   OH213420   0.375   2.983   3.900  0.3782 -0.3193 -0.3750
 4488TIP3    H113421   0.396   2.893   3.925  0.3534 -0.2246 -0.0085
 4488TIP3    H213422   0.401   2.988   3.808  2.3277 -0.1012  0.1333
 4489TIP3   OH213423   6.882   5.697   5.880  0.2447 -0.0355  0.0006
 4489TIP3    H113424   6.944   5.720   5.949  1.4127 -0.0374 -1.0130
 4489TIP3    H213425   6.869   5.603   5.891 -1.0668  0.2620  1.3680
 4490TIP3   OH213426   5.132   1.954   1.024  0.3365  0.0226  0.5661
 4490TIP3    H113427   5.146   2.013   1.099 -3.2796  1.9052  0.0236
 4490TIP3    H213428   5.150   2.008   0.947 -0.5107 -0.3710  0.0741
 4491TIP3   OH213429   0.032   6.422   2.976 -0.1197 -0.0774  0.2095
 4491TIP3    H113430   0.036   6.517   2.966  0.7542 -0.1709 -0.4327
 4491TIP3    H213431  -0.042   6.395   2.921 -0.9798  0.3107  1.1447
 4492TIP3   OH213432   4.917   6.610   6.157  0.5476  0.3502  0.6341
 4492TIP3    H113433   4.898   6.581   6.068  0.0595 -0.4745  0.9962
 4492TIP3    H213434   5.012   6.620   6.159  0.6662 -0.5892  0.2927
 4493TIP3   OH213435   2.748   2.688   4.138  0.0476  0.1227 -0.0352
 4493TIP3    H113436   2.659   2.724   4.136 -0.2523 -0.6346 -0.6236
 4493TIP3    H213437   2.785   2.722   4.220 -0.2409  1.6922 -0.5278
 4494TIP3   OH213438   0.149   7.362   5.902 -0.0125 -0.4896 -0.2791
 4494TIP3    H113439   0.184   7.292   5.847 -0.1597 -2.9302  2.5438
 4494TIP3    H213440   0.216   7.431   5.897  1.6886 -2.0919 -0.6930
 4495TIP3   OH213441   5.541   0.526   3.675 -0.1319 -0.0092  0.4098
 4495TIP3    H113442   5.515   0.500   3.763 -1.9455  0.3472  0.0137
 4495TIP3    H213443   5.624   0.573   3.688  0.2614 -1.0081  1.7591
 4496TIP3   OH213444   7.529   5.395   5.653  0.0673  0.4439 -0.4120
 4496TIP3    H113445   7.520   5.370   5.745  0.2360  1.0875 -0.2145
 4496TIP3    H213446   7.485   5.480   5.647  0.3853  0.5796 -0.8440
 4497TIP3   OH213447   5.337   3.857   6.053 -0.3137  0.3304 -0.1277
 4497TIP3    H113448   5.325   3.821   5.965 -0.2727  0.1954 -0.0783
 4497TIP3    H213449   5.327   3.951   6.041  3.5072  0.7994 -0.9841
 4498TIP3   OH213450   4.454   4.044   5.341 -1.1119 -0.0815  0.1669
 4498TIP3    H113451   4.413   4.075   5.260  1.1822 -0.8687 -1.4175
 4498TIP3    H213452   4.456   4.121   5.398 -0.6086  1.1914 -1.4902
 4499TIP3   OH213453   1.937   3.645   1.049  0.4737  0.2250  0.2095
 4499TIP3    H113454   2.028   3.670   1.064  0.7882 -0.0958 -1.0138
 4499TIP3    H213455   1.937   3.550   1.055  0.0630  0.2629  0.9242
 4500TIP3   OH213456   4.403   5.721   5.159  0.3819 -0.1371  0.1466
 4500TIP3    H113457   4.425   5.813   5.144  1.0843 -0.4589 -0.9718
 4500TIP3    H213458   4.331   5.723   5.222  2.4152  1.0627  2.5840
 4501TIP3   OH213459   6.607   0.740   6.667 -0.3111 -0.2732  0.0476
 4501TIP3    H113460   6.552   0.811   6.634 -0.1727  0.1727  0.7581
 4501TIP3    H213461   6.567   0.714   6.750  0.4774 -0.0077  0.5292
 4502TIP3   OH213462   0.105   6.256   4.015  0.6385 -0.5783 -0.2126
 4502TIP3    H113463   0.032   6.195   4.005 -0.0449  0.3501 -1.1384
 4502TIP3    H213464   0.135   6.245   4.105 -2.1869  0.6977  0.9918
 4503TIP3   OH213465   7.039   4.280   2.926 -0.1818  0.1423 -0.1249
 4503TIP3    H113466   7.112   4.263   2.867 -0.7639 -0.8501 -0.5794
 4503TIP3    H213467   6.986   4.345   2.879 -1.3654 -1.6356 -1.3781
 4504TIP3   OH213468   1.761   4.638   4.278 -0.4074  0.0276  0.3312
 4504TIP3    H113469   1.850   4.611   4.300 -0.5039 -1.4308 -0.8652
 4504TIP3    H213470   1.762   4.648   4.183 -1.6290 -0.5032  0.2397
 4505TIP3   OH213471   7.157   3.980   6.438 -0.2142 -0.0637  0.5828
 4505TIP3    H113472   7.091   3.922   6.476 -0.4874  0.3325  0.7178
 4505TIP3    H213473   7.109   4.032   6.374 -0.3798  1.3341  1.7916
 4506TIP3   OH213474   4.489   0.553   3.696 -0.7214  0.3481  0.1572
 4506TIP3    H113475   4.556   0.524   3.633 -0.7433  0.6572 -0.0071
 4506TIP3    H213476   4.412   0.570   3.643 -1.1445 -0.6473  0.4233
 4507TIP3   OH213477   1.218   7.718   4.181 -0.2905 -0.0768  0.8738
 4507TIP3    H113478   1.227   7.769   4.101  0.2281 -2.0138 -0.3969
 4507TIP3    H213479   1.291   7.746   4.236  0.2417  0.2222  0.0312
 4508TIP3   OH213480   6.340   5.170   0.162  0.2538 -0.3519  0.4523
 4508TIP3    H113481   6.255   5.130   0.181  0.2979 -0.3475  0.6594
 4508TIP3    H213482   6.325   5.264   0.174 -0.1401 -0.1858 -1.1049
 4509TIP3   OH213483   2.135   5.699   5.355  0.2590 -0.6165 -0.2450
 4509TIP3    H113484   2.216   5.681   5.309  0.5300 -1.2516  0.4637
 4509TIP3    H213485   2.142   5.650   5.437 -0.0871  0.6922  0.5975
 4510TIP3   OH213486   5.198   2.631   3.381 -0.0599 -0.0868  0.7231
 4510TIP3    H113487   5.181   2.674   3.297 -0.6778 -0.8943  0.4162
 4510TIP3    H213488   5.253   2.692   3.429 -1.1207  1.1412  0.4152
 4511TIP3   OH213489   3.055   3.293   0.133 -0.6758 -0.3152  0.2582
 4511TIP3    H113490   3.132   3.344   0.159 -1.0201  0.4024 -0.0915
 4511TIP3    H213491   3.027   3.250   0.213  0.7036 -1.4338  0.1781
 4512TIP3   OH213492   5.528   3.572   4.860 -0.4071  0.4182 -0.0717
 4512TIP3    H113493   5.461   3.546   4.923 -0.0825 -0.6723 -0.1587
 4512TIP3    H213494   5.588   3.627   4.911 -1.2568  1.2899  0.0397
 4513TIP3   OH213495   7.599   1.791   5.717 -0.0297 -0.1158 -0.2320
 4513TIP3    H113496   7.583   1.720   5.655  1.1014 -0.3312 -0.2910
 4513TIP3    H213497   7.595   1.749   5.803 -0.4564 -0.0358 -0.2114
 4514TIP3   OH213498   6.868   3.858   0.553  0.7168 -0.1014 -0.1775
 4514TIP3    H113499   6.910   3.834   0.636 -0.4115 -0.4188  0.3198
 4514TIP3    H213500   6.870   3.953   0.552  2.2056 -0.1048 -0.5787
 4515TIP3   OH213501   3.517   5.950   1.462 -0.2928  0.1085  0.1126
 4515TIP3    H113502   3.498   5.861   1.490 -1.2903  0.9540  2.4378
 4515TIP3    H213503   3.580   5.982   1.527  0.7784  0.8252 -1.2304
 4516TIP3   OH213504   2.088   5.586   3.282  0.1221 -0.7555 -0.5782
 4516TIP3    H113505   2.041   5.668   3.297  0.3717 -0.6718 -0.2204
 4516TIP3    H213506   2.154   5.608   3.216  1.4089 -0.1656  0.8194
 4517TIP3   OH213507   2.778   7.791   1.596  0.1410 -0.5759 -0.1601
 4517TIP3    H113508   2.714   7.736   1.639 -0.3389  0.9267  1.1391
 4517TIP3    H213509   2.743   7.804   1.507 -0.3505 -1.3244 -0.0808
 4518TIP3   OH213510   1.356   6.632   4.842 -0.4236  0.7434  0.7129
 4518TIP3    H113511   1.265   6.609   4.823  0.2796 -1.3009 -0.5025
 4518TIP3    H213512   1.390   6.665   4.758  0.6267 -1.0217  0.3866
 4519TIP3   OH213513   7.762   7.704   3.496 -0.0912 -0.1980  0.3250
 4519TIP3    H113514   7.693   7.723   3.432 -1.2429  1.9210  2.0467
 4519TIP3    H213515   7.841   7.743   3.459 -0.4490 -0.1284 -0.3770
 4520TIP3   OH213516   0.168   0.651   5.404  0.4587 -0.2935 -0.1576
 4520TIP3    H113517   0.133   0.686   5.487  1.2198 -1.9696  0.9216
 4520TIP3    H213518   0.252   0.612   5.429  0.2956 -1.5953 -1.5681
 4521TIP3   OH213519   4.008   0.937   3.855  0.4138 -0.0383 -0.1946
 4521TIP3    H113520   4.011   0.882   3.777 -0.4262 -0.4430  0.0493
 4521TIP3    H213521   4.012   1.027   3.820  0.4499 -0.2206 -0.6705
 4522TIP3   OH213522   4.800   0.323   1.192 -0.2790 -0.4150  0.4448
 4522TIP3    H113523   4.831   0.315   1.282  0.5527  1.3394  0.3616
 4522TIP3    H213524   4.727   0.385   1.198  0.9573  1.2019 -0.2608
 4523TIP3   OH213525   8.113   3.740   6.757 -0.1614 -0.2632  0.8513
 4523TIP3    H113526   8.059   3.806   6.801 -1.0115 -0.5354  0.2436
 4523TIP3    H213527   8.196   3.784   6.741 -0.1617  0.1444  1.8649
 4524TIP3   OH213528   2.735   7.458   5.597 -0.3688 -0.0671  0.0309
 4524TIP3    H113529   2.740   7.538   5.544 -1.7770 -0.8011 -1.2966
 4524TIP3    H213530   2.741   7.387   5.533 -0.8107 -1.0074  0.9995
 4525TIP3   OH213531   8.118   4.902   2.811 -0.0416  0.5299 -0.4112
 4525TIP3    H113532   8.144   4.816   2.778  0.1304  0.3957  0.0696
 4525TIP3    H213533   8.143   4.963   2.741  1.4580  0.3934 -0.0192
 4526TIP3   OH213534   6.047   5.441   1.798  0.3765  0.6649 -0.4018
 4526TIP3    H113535   5.992   5.391   1.737  0.7597  1.9379 -1.8475
 4526TIP3    H213536   5.991   5.455   1.875 -0.5145 -0.0153 -0.9126
 4527TIP3   OH213537   3.848   4.654   6.765  0.9090  0.2817 -0.5432
 4527TIP3    H113538   3.771   4.610   6.730  1.4783 -0.3917 -0.9719
 4527TIP3    H213539   3.821   4.746   6.775 -0.0042  0.0129 -0.4884
 4528TIP3   OH213540   3.185   3.661   2.149  0.0985 -0.0161  0.2664
 4528TIP3    H113541   3.235   3.597   2.098  2.5709  2.1140 -0.1819
 4528TIP3    H213542   3.245   3.735   2.161 -2.8316  2.6284  0.0034
 4529TIP3   OH213543   5.657   7.849   3.986  0.2486  0.0667  0.0661
 4529TIP3    H113544   5.615   7.787   3.926 -0.6037  2.1408 -1.5898
 4529TIP3    H213545   5.715   7.795   4.039 -0.0145 -2.0717 -1.6833
 4530TIP3   OH213546   7.572   5.059   0.519  0.0697  0.2764  0.3193
 4530TIP3    H113547   7.659   5.048   0.558  0.1686 -1.9404 -0.4250
 4530TIP3    H213548   7.520   4.988   0.556 -0.8722  0.3881 -0.7589
 4531TIP3   OH213549   2.665   1.958   0.382  0.7352  0.2988 -0.3947
 4531TIP3    H113550   2.634   1.949   0.292 -0.6839  0.4574  0.0627
 4531TIP3    H213551   2.746   2.009   0.374  0.4660  0.5776 -1.5455
 4532TIP3   OH213552   7.410   2.930   5.666  0.1818  0.5226 -0.3398
 4532TIP3    H113553   7.416   2.862   5.733 -0.5683 -0.7331 -1.4974
 4532TIP3    H213554   7.318   2.954   5.665  0.4050  1.4161 -0.1008
 4533TIP3   OH213555   7.372   1.215   3.444  0.0977 -0.2535  0.3898
 4533TIP3    H113556   7.379   1.227   3.350 -0.6994 -0.0837  0.3440
 4533TIP3    H213557   7.372   1.304   3.480  0.9103 -0.3290  0.5970
 4534TIP3   OH213558   2.809   4.243   5.279  0.0126  0.0684 -0.4506
 4534TIP3    H113559   2.855   4.185   5.218 -1.3013 -0.8769 -0.5919
 4534TIP3    H213560   2.784   4.319   5.227  1.0732  0.4368 -0.4528
 4535TIP3   OH213561   3.150   5.025   0.304  0.0619  0.2089 -0.0620
 4535TIP3    H113562   3.065   5.047   0.269 -0.4680 -0.4342  0.7653
 4535TIP3    H213563   3.148   5.056   0.395 -0.6366 -2.8022  1.0810
 4536TIP3   OH213564   7.251   2.786   1.134  0.4509  0.0508  0.1086
 4536TIP3    H113565   7.314   2.732   1.182 -1.1387 -2.3611 -0.3492
 4536TIP3    H213566   7.176   2.729   1.121 -1.0891  2.2081 -1.0362
 4537TIP3   OH213567   3.206   4.666   2.713 -0.1449  0.5202 -0.2807
 4537TIP3    H113568   3.274   4.634   2.773  0.4665  0.6492 -0.8813
 4537TIP3    H213569   3.134   4.604   2.723  1.6987 -2.3056 -2.7807
 4538TIP3   OH213570   1.999   4.906   2.730  0.2248 -0.0989 -0.1979
 4538TIP3    H113571   1.945   4.982   2.751  1.6673  1.0396 -0.4765
 4538TIP3    H213572   2.080   4.919   2.779  1.1882 -0.5531 -1.6024
 4539TIP3   OH213573   4.082   1.497   5.677 -0.4467  0.3553  0.0895
 4539TIP3    H113574   4.087   1.440   5.601 -1.3983  1.2047 -0.6464
 4539TIP3    H213575   4.038   1.576   5.645  0.6771  1.4466  1.1036
 4540TIP3   OH213576   3.074   6.019   3.831 -0.0705  0.0163  0.2900
 4540TIP3    H113577   3.104   6.099   3.789 -0.1962 -0.7233 -1.2801
 4540TIP3    H213578   3.153   5.969   3.849 -0.0935 -0.2150 -0.2385
 4541TIP3   OH213579   6.789   5.354   4.005  0.3350 -0.3283  0.3393
 4541TIP3    H113580   6.836   5.436   4.016  1.4452 -0.7119 -1.1454
 4541TIP3    H213581   6.784   5.317   4.093  2.9596 -0.2937  0.5823
 4542TIP3   OH213582   6.956   5.797   6.436  0.2911 -0.1618 -0.0309
 4542TIP3    H113583   6.910   5.714   6.445 -0.3249  0.2586  0.7914
 4542TIP3    H213584   6.902   5.848   6.376  2.6905 -1.7434 -3.9238
 4543TIP3   OH213585   0.420   5.321   3.695  0.0650 -0.3413 -0.2985
 4543TIP3    H113586   0.435   5.405   3.738 -0.1713 -0.4820  0.0610
 4543TIP3    H213587   0.346   5.282   3.742 -0.1194 -0.5510 -0.7499
 4544TIP3   OH213588   5.146   6.161   2.093 -0.1344 -0.5039  0.2614
 4544TIP3    H113589   5.167   6.067   2.091 -3.3363 -1.3500  0.7532
 4544TIP3    H213590   5.219   6.201   2.140  1.3991 -2.7105 -0.0814
 4545TIP3   OH213591   4.716   1.697   1.358  0.5382 -0.1518  0.2899
 4545TIP3    H113592   4.737   1.681   1.450 -0.0521 -0.4623  0.3752
 4545TIP3    H213593   4.626   1.668   1.348  1.6490 -3.6982 -1.2347
 4546TIP3   OH213594   6.601   6.687   2.843  0.0075 -0.1506  0.0230
 4546TIP3    H113595   6.634   6.721   2.927  0.0803  2.2887 -0.9068
 4546TIP3    H213596   6.514   6.653   2.864  0.1100  0.2185  1.1427
 4547TIP3   OH213597   1.756   1.333   5.658 -0.5238 -0.2479  0.1661
 4547TIP3    H113598   1.763   1.364   5.749 -1.2563  0.4170  0.0093
 4547TIP3    H213599   1.674   1.372   5.626  0.1870  0.2771 -1.0716
 4548TIP3   OH213600   7.718   4.826   5.694  0.2333  0.2877  0.5320
 4548TIP3    H113601   7.774   4.897   5.723 -0.7759  1.2198  0.2623
 4548TIP3    H213602   7.652   4.818   5.763 -1.4983  1.7508 -0.8499
 4549TIP3   OH213603   8.028   7.474   3.923  0.0628 -0.3066  0.3374
 4549TIP3    H113604   8.041   7.567   3.908 -0.7308 -0.4154 -1.1909
 4549TIP3    H213605   7.966   7.470   3.997 -1.5024  0.4480 -0.8794
 4550TIP3   OH213606   7.375   4.278   2.989 -0.6566 -1.0741  0.3656
 4550TIP3    H113607   7.334   4.204   3.035 -1.2914 -1.1547 -0.3024
 4550TIP3    H213608   7.371   4.253   2.896  2.4780 -1.8751  0.3189
 4551TIP3   OH213609   8.050   1.973   1.583  0.1808 -0.2324 -0.3085
 4551TIP3    H113610   8.106   2.050   1.593  0.4559 -0.3975 -0.5682
 4551TIP3    H213611   8.014   1.958   1.671 -0.3892  0.5743 -0.3914
 4552TIP3   OH213612   3.561   1.365   3.582 -0.4186  0.0088 -0.4861
 4552TIP3    H113613   3.505   1.298   3.621  0.1367 -0.0678  0.2105
 4552TIP3    H213614   3.501   1.434   3.555 -0.9116 -0.3780 -0.3933
 4553TIP3   OH213615   2.042   0.928   4.471  0.4052 -0.8173  0.4124
 4553TIP3    H113616   2.075   0.919   4.560 -1.3842 -0.2568  1.1616
 4553TIP3    H213617   1.948   0.938   4.481  0.1830 -0.6277 -1.5481
 4554TIP3   OH213618   1.567   1.351   0.308  0.1961  0.5801 -0.3316
 4554TIP3    H113619   1.568   1.319   0.398  0.8152 -0.2709 -0.6231
 4554TIP3    H213620   1.651   1.395   0.297 -0.2924  1.5723 -0.2000
 4555TIP3   OH213621   5.161   1.162   3.907  0.0681 -1.0516 -0.4443
 4555TIP3    H113622   5.073   1.174   3.943  0.7525 -1.0330  1.3110
 4555TIP3    H213623   5.206   1.108   3.972  1.7865  0.1266 -0.6107
 4556TIP3   OH213624   4.665   3.231   4.626  0.5218 -0.2533 -0.1491
 4556TIP3    H113625   4.652   3.260   4.716 -0.8893 -0.7213 -0.1751
 4556TIP3    H213626   4.609   3.154   4.617  0.0268  0.2393 -1.6451
 4557TIP3   OH213627   4.820   0.785   5.997  0.0849 -0.5213 -0.3824
 4557TIP3    H113628   4.804   0.798   6.091  0.0837 -1.8911 -0.1744
 4557TIP3    H213629   4.828   0.874   5.962 -0.7633  0.0342  0.7628
 4558TIP3   OH213630   7.373   1.256   4.454 -0.5123 -0.1726  0.2026
 4558TIP3    H113631   7.334   1.301   4.379  0.0447  0.0374  0.0302
 4558TIP3    H213632   7.432   1.192   4.415  0.0107  0.1477  0.4561
 4559TIP3   OH213633   0.568   1.773   0.371  0.1210  0.2795  0.1238
 4559TIP3    H113634   0.636   1.764   0.304 -0.0045 -0.0009  0.0324
 4559TIP3    H213635   0.486   1.771   0.321  0.0428  0.5594  0.2387
 4560TIP3   OH213636   4.225   6.024   2.608 -0.3039 -0.4537  0.0907
 4560TIP3    H113637   4.242   6.037   2.702 -0.0344 -1.9684  0.2919
 4560TIP3    H213638   4.145   5.972   2.606 -0.8187  0.3427 -0.5731
 4561TIP3   OH213639   0.378   3.388   0.880 -0.0160 -0.3852  0.0667
 4561TIP3    H113640   0.453   3.356   0.930 -0.6397 -0.6233  0.8805
 4561TIP3    H213641   0.303   3.344   0.919 -0.7747  1.1378  0.3904
 4562TIP3   OH213642   2.077   4.276   0.400  0.5310  0.1727 -0.2962
 4562TIP3    H113643   2.008   4.273   0.466 -0.3011  0.1287 -1.1345
 4562TIP3    H213644   2.111   4.366   0.405  0.5525  0.1386  0.2516
 4563TIP3   OH213645   3.719   1.086   4.914  0.6289  0.0020  0.1073
 4563TIP3    H113646   3.677   1.004   4.937  0.0138  0.0305 -0.8404
 4563TIP3    H213647   3.794   1.061   4.859  0.6336  0.0525  0.0900
 4564TIP3   OH213648   2.270   3.665   1.943  0.8279 -0.5890  0.0090
 4564TIP3    H113649   2.279   3.586   1.890  2.3662  0.8876 -2.0809
 4564TIP3    H213650   2.181   3.695   1.925  0.6618 -1.1544 -0.1523
 4565TIP3   OH213651   4.117   6.342   1.569  0.4970  1.1111  0.1779
 4565TIP3    H113652   4.085   6.378   1.486  0.7663  1.3695  0.1837
 4565TIP3    H213653   4.081   6.400   1.636 -1.2865 -0.1869  0.3929
 4566TIP3   OH213654   4.234   7.509   5.837  0.5625 -0.4687 -0.2189
 4566TIP3    H113655   4.255   7.599   5.811 -0.8973 -0.3031 -0.8757
 4566TIP3    H213656   4.139   7.503   5.831  0.4017 -1.3571  2.1541
 4567TIP3   OH213657   2.011   1.358   2.035 -0.1944 -0.3977  0.6385
 4567TIP3    H113658   2.024   1.441   1.990  0.6422 -1.3832 -1.0521
 4567TIP3    H213659   2.094   1.311   2.023 -0.6837 -1.5276  1.4575
 4568TIP3   OH213660   3.395   1.722   2.368  0.1090  0.5981  0.3725
 4568TIP3    H113661   3.315   1.726   2.317 -0.2225 -0.8438  0.7289
 4568TIP3    H213662   3.367   1.739   2.458  0.5593  2.2516  0.2404
 4569TIP3   OH213663   4.356   7.315   3.011  0.2838 -0.2158  0.0192
 4569TIP3    H113664   4.345   7.389   3.071  0.5107  1.0524 -1.4403
 4569TIP3    H213665   4.273   7.268   3.017  0.2733 -0.0694  1.2565
 4570TIP3   OH213666   1.882   0.118   5.385 -0.0412  0.0900  0.1367
 4570TIP3    H113667   1.899   0.027   5.363 -0.7499  0.2688 -1.2484
 4570TIP3    H213668   1.790   0.132   5.362  0.6988  1.8257 -2.1740
 4571TIP3   OH213669   6.488   6.815   0.935 -0.2768 -0.1376 -0.2307
 4571TIP3    H113670   6.393   6.824   0.930 -0.4633 -1.4192  0.5098
 4571TIP3    H213671   6.521   6.854   0.855 -1.5532 -1.1478 -1.2823
 4572TIP3   OH213672   4.970   0.584   5.380  0.3168 -0.0161  0.1277
 4572TIP3    H113673   4.966   0.488   5.387  0.2922  0.0875  2.0995
 4572TIP3    H213674   4.881   0.613   5.400  0.3065  0.4277 -0.5382
 4573TIP3   OH213675   5.192   4.490   6.600  0.0995  0.2231 -0.3928
 4573TIP3    H113676   5.279   4.453   6.589 -0.4588 -1.2139 -0.2350
 4573TIP3    H213677   5.147   4.471   6.518 -0.6127 -0.6853  0.1785
 4574TIP3   OH213678   7.522   1.662   2.028 -0.3693 -0.2653 -0.0366
 4574TIP3    H113679   7.430   1.649   2.002 -0.6226  1.0219  0.1335
 4574TIP3    H213680   7.522   1.746   2.074  0.8942 -0.2732  0.0132
 4575TIP3   OH213681   0.674   4.361   5.226  0.5371  0.1812 -0.5599
 4575TIP3    H113682   0.711   4.380   5.140  0.2146 -1.0395 -0.9904
 4575TIP3    H213683   0.603   4.300   5.208  0.1362  0.3026  0.5361
 4576TIP3   OH213684   0.335   2.315   5.753  0.3896 -0.0447  0.1404
 4576TIP3    H113685   0.354   2.392   5.699  0.4317 -1.3016 -1.7184
 4576TIP3    H213686   0.329   2.349   5.842  1.7418  1.8941 -0.4548
 4577TIP3   OH213687   7.135   3.911   2.064 -0.2618  0.1879  0.3075
 4577TIP3    H113688   7.153   3.991   2.014  0.1078  0.5284  0.9807
 4577TIP3    H213689   7.105   3.942   2.149  1.0095 -0.3926  0.9845
 4578TIP3   OH213690   5.483   5.340   0.255  0.5007  0.1222  0.5349
 4578TIP3    H113691   5.404   5.377   0.216  0.1904 -1.4625 -0.4289
 4578TIP3    H213692   5.455   5.305   0.340  0.0195 -0.8754 -0.0167
 4579TIP3   OH213693   7.056   4.542   4.121 -0.2685 -0.7974  0.0905
 4579TIP3    H113694   7.062   4.633   4.149 -0.3465 -1.0132  0.8121
 4579TIP3    H213695   6.976   4.509   4.161 -1.2469 -0.6781 -1.6573
 4580TIP3   OH213696   3.890   6.449   4.990  0.0224 -0.2563 -0.2672
 4580TIP3    H113697   3.910   6.394   5.066 -1.9360 -1.1147 -0.3256
 4580TIP3    H213698   3.956   6.425   4.925  0.0453 -1.5058  0.2044
 4581TIP3   OH213699   7.385   2.542   2.082  0.0346 -0.2617  0.2790
 4581TIP3    H113700   7.356   2.591   2.159  1.3439 -0.1957  0.7492
 4581TIP3    H213701   7.358   2.596   2.008 -0.5661  0.0419  0.7052
 4582TIP3   OH213702   6.770   0.051   5.241 -0.1960  0.4540 -0.3152
 4582TIP3    H113703   6.864   0.036   5.249 -0.2106  0.0435 -0.8128
 4582TIP3    H213704   6.744  -0.004   5.167 -1.1382 -0.7855  0.8895
 4583TIP3   OH213705   4.300   7.396   2.121  0.4372  0.1821 -0.3994
 4583TIP3    H113706   4.386   7.367   2.153  0.5927  1.0035 -0.0562
 4583TIP3    H213707   4.259   7.439   2.196 -1.5501 -2.7836  0.3953
 4584TIP3   OH213708   4.492   5.880   3.957  0.1572 -0.3248  0.1523
 4584TIP3    H113709   4.554   5.900   4.028 -1.2734  1.5661  0.9597
 4584TIP3    H213710   4.504   5.787   3.941  2.3768 -0.2704  1.0670
 4585TIP3   OH213711   4.455   6.905   3.568 -0.6806  0.5651 -0.0947
 4585TIP3    H113712   4.376   6.948   3.535 -0.9777 -1.0157 -1.5632
 4585TIP3    H213713   4.497   6.869   3.490  0.5765 -0.1212  0.8653
 4586TIP3   OH213714   6.026   5.321   4.128  0.1760 -0.0603 -0.9440
 4586TIP3    H113715   6.118   5.342   4.141 -0.4693  2.5364  0.0648
 4586TIP3    H213716   6.010   5.246   4.186  2.0772 -2.0986 -2.8404
 4587TIP3   OH213717   6.355   4.755   5.038 -0.4117 -0.6435 -0.1422
 4587TIP3    H113718   6.304   4.704   5.102 -2.2886  1.3360  0.0492
 4587TIP3    H213719   6.439   4.771   5.081 -0.9027 -1.0389  1.0113
 4588TIP3   OH213720   4.607   1.273   2.665  0.8243 -0.3920 -0.0488
 4588TIP3    H113721   4.531   1.265   2.723  0.0181 -0.9586 -1.1480
 4588TIP3    H213722   4.667   1.205   2.694  0.4024 -0.7081  0.0957
 4589TIP3   OH213723   8.082   5.287   5.668  0.1122  0.1534  0.0402
 4589TIP3    H113724   8.045   5.361   5.717  1.3170  1.2061 -0.5817
 4589TIP3    H213725   8.006   5.242   5.632 -0.7043  0.4542  1.3032
 4590TIP3   OH213726   4.741   7.484   4.289 -0.6431  0.0076 -0.2916
 4590TIP3    H113727   4.779   7.477   4.202  0.4759 -1.3154  0.2683
 4590TIP3    H213728   4.705   7.397   4.307 -1.4723  0.4528  0.3164
 4591TIP3   OH213729   5.588   5.211   2.830  0.0175  0.0517 -0.0052
 4591TIP3    H113730   5.650   5.142   2.807 -0.4594  0.3115 -2.2511
 4591TIP3    H213731   5.540   5.228   2.749 -2.5243  0.3385  1.4651
 4592TIP3   OH213732   1.106   4.565   4.960 -0.0476  0.0726  0.1228
 4592TIP3    H113733   1.037   4.590   4.898 -0.6476 -0.1592  0.6821
 4592TIP3    H213734   1.116   4.642   5.016 -0.0930 -0.0144  0.2506
 4593TIP3   OH213735   7.302   3.156   1.365 -0.2547  0.4365 -0.2656
 4593TIP3    H113736   7.376   3.156   1.304 -0.3674 -0.6885 -0.4179
 4593TIP3    H213737   7.270   3.066   1.365 -1.9684  0.9933 -0.6237
 4594TIP3   OH213738   5.071   6.362   4.357 -0.1509  0.8317  0.2649
 4594TIP3    H113739   5.048   6.280   4.312  1.7027  1.6492 -2.4588
 4594TIP3    H213740   5.011   6.427   4.321  1.1586  1.4446 -0.8828
 4595TIP3   OH213741   7.419   7.212   3.582 -0.0937  0.2164 -0.4682
 4595TIP3    H113742   7.358   7.224   3.510 -1.7325 -1.6625  0.5258
 4595TIP3    H213743   7.503   7.191   3.540 -0.6982  0.4133 -1.8080
 4596TIP3   OH213744   1.904   1.879   3.108  0.8649  0.5457  0.9515
 4596TIP3    H113745   1.818   1.855   3.073  1.3144  0.2737 -0.0043
 4596TIP3    H213746   1.885   1.915   3.195 -0.1854  0.2425  0.8681
 4597TIP3   OH213747   2.967   5.022   4.788 -0.4766 -0.2783  0.0288
 4597TIP3    H113748   3.050   5.042   4.744 -0.7559 -0.1584 -0.4520
 4597TIP3    H213749   2.902   5.074   4.741 -0.7255  0.1842  0.8599
 4598TIP3   OH213750   7.537   1.024   2.035  0.0740  0.3054  0.4261
 4598TIP3    H113751   7.487   0.965   1.978  0.3298 -0.0575  0.5705
 4598TIP3    H213752   7.532   0.982   2.121  2.8243 -1.1560 -0.0366
 4599TIP3   OH213753   1.925   7.712   6.082 -0.3725  0.8146  0.0020
 4599TIP3    H113754   1.876   7.776   6.031  1.7491  1.3839 -1.4874
 4599TIP3    H213755   1.990   7.764   6.129 -0.1439 -0.0382  0.6521
 4600TIP3   OH213756   3.232   3.437   2.770  0.3963  0.1740  0.3416
 4600TIP3    H113757   3.241   3.514   2.826 -0.1636 -0.1161  0.8564
 4600TIP3    H213758   3.304   3.380   2.795  0.7100  0.4574  0.0827
 4601TIP3   OH213759   2.822   3.680   1.925 -0.0098  0.4957  0.2561
 4601TIP3    H113760   2.746   3.736   1.941 -1.1873 -1.5008  2.2760
 4601TIP3    H213761   2.893   3.720   1.976 -0.2306  1.2669 -0.0261
 4602TIP3   OH213762   5.037   7.576   5.291  0.3920 -0.3713  0.4313
 4602TIP3    H113763   4.976   7.558   5.363 -1.0796 -0.1044 -0.7095
 4602TIP3    H213764   5.094   7.498   5.288 -0.2555 -0.8878  1.1526
 4603TIP3   OH213765   6.985   3.031   4.317 -0.4223  0.6727  0.1369
 4603TIP3    H113766   6.968   3.077   4.399  0.0753  1.0680  0.0211
 4603TIP3    H213767   6.933   3.079   4.252 -1.8511 -0.4088  0.4130
 4604TIP3   OH213768   5.863   2.944   5.744 -0.0619  0.4448 -0.6060
 4604TIP3    H113769   5.958   2.930   5.734  0.0879  0.6726  0.3974
 4604TIP3    H213770   5.842   3.013   5.682  0.5227  0.7162 -0.5089
 4605TIP3   OH213771   5.448   3.975   3.435  0.1941  0.4698 -0.6515
 4605TIP3    H113772   5.484   4.007   3.352  0.4388  0.6244 -0.4872
 4605TIP3    H213773   5.367   3.930   3.410  1.5006 -1.7011 -1.2782
 4606TIP3   OH213774   4.549   6.871   3.822  0.0880  0.3499  0.0429
 4606TIP3    H113775   4.600   6.793   3.799  1.4266  1.3536 -0.5361
 4606TIP3    H213776   4.498   6.891   3.744 -0.7627 -0.2965  0.4135
 4607TIP3   OH213777   3.701   7.289   3.607 -0.0950  0.0899  0.3459
 4607TIP3    H113778   3.704   7.307   3.701  0.5705  2.0904 -0.0142
 4607TIP3    H213779   3.768   7.223   3.593  1.1003  1.1079  1.0512
 4608TIP3   OH213780   2.967   2.347   1.602  0.1430 -0.4534 -0.1324
 4608TIP3    H113781   2.976   2.304   1.687  0.9297  0.1266  0.0869
 4608TIP3    H213782   3.056   2.346   1.566  0.1824  0.9923 -0.1153
 4609TIP3   OH213783   5.799   4.784   0.959  0.3860  0.3776  0.3616
 4609TIP3    H113784   5.722   4.738   0.927 -0.4909  2.5942 -0.9303
 4609TIP3    H213785   5.771   4.875   0.968  2.7269  1.1851  0.2781
 4610TIP3   OH213786   8.109   5.953   0.077 -0.3753  0.5292 -0.6385
 4610TIP3    H113787   8.133   5.877   0.131 -2.3330 -0.4086 -0.9718
 4610TIP3    H213788   8.160   5.943  -0.003  0.7598  0.6013  0.0568
 4611TIP3   OH213789   4.248   5.425   5.554  0.2304 -0.1863  0.6631
 4611TIP3    H113790   4.318   5.380   5.506  0.6909 -0.1057  1.2643
 4611TIP3    H213791   4.213   5.488   5.491 -0.3128 -1.2487 -0.1433
 4612TIP3   OH213792   7.213   1.480   0.170  0.1887  0.0413 -0.4041
 4612TIP3    H113793   7.118   1.466   0.175  0.1052  0.8237  0.6392
 4612TIP3    H213794   7.231   1.545   0.239  1.5010 -0.1987 -0.4965
 4613TIP3   OH213795   6.748   5.485   1.257  0.0331  0.1209 -0.1777
 4613TIP3    H113796   6.712   5.542   1.189 -0.3625 -2.0342 -1.9145
 4613TIP3    H213797   6.768   5.403   1.211 -0.4884 -1.5501  2.3521
 4614TIP3   OH213798   0.702   7.365   2.052 -0.0054 -0.2281  0.7048
 4614TIP3    H113799   0.610   7.355   2.026 -0.4375  0.0600  2.0258
 4614TIP3    H213800   0.737   7.276   2.049  0.0166 -0.1846 -0.9595
 4615TIP3   OH213801   5.287   4.864   2.010  0.4366  0.5740 -0.1865
 4615TIP3    H113802   5.349   4.856   2.083  0.5275  1.1548 -0.1971
 4615TIP3    H213803   5.244   4.948   2.024 -1.7915 -0.6662  0.9416
 4616TIP3   OH213804   2.070   1.764   0.351  0.5756  0.0048 -0.8571
 4616TIP3    H113805   2.078   1.845   0.401  1.9023  0.6681 -2.0696
 4616TIP3    H213806   2.156   1.752   0.312  0.5051 -2.1783 -0.4586
 4617TIP3   OH213807   5.696   1.398   5.218  0.3303  0.3513 -0.9342
 4617TIP3    H113808   5.606   1.400   5.187 -0.2292 -0.2547  0.5461
 4617TIP3    H213809   5.705   1.476   5.272  0.0505 -0.5770  0.5131
 4618TIP3   OH213810   8.098   5.141   4.532  0.2052 -0.0915 -0.2886
 4618TIP3    H113811   8.170   5.161   4.592  0.3852 -1.0707 -0.1565
 4618TIP3    H213812   8.019   5.147   4.585  0.0869  1.7637 -0.6139
 4619TIP3   OH213813   7.418   5.480   3.682  0.0529  0.1712  0.3690
 4619TIP3    H113814   7.346   5.475   3.619  0.0792 -0.4984  0.3905
 4619TIP3    H213815   7.394   5.420   3.752  0.6016 -0.0119  0.4044
 4620TIP3   OH213816   7.882   2.756   1.982 -0.2381  0.3602 -0.5898
 4620TIP3    H113817   7.863   2.839   1.938  0.7631  0.7858 -0.2507
 4620TIP3    H213818   7.796   2.725   2.012 -0.4802  2.0288  0.5931
 4621TIP3   OH213819   0.229   4.881   1.932 -0.3458  0.2271 -0.3471
 4621TIP3    H113820   0.158   4.920   1.983 -0.6618  1.2927 -1.5630
 4621TIP3    H213821   0.199   4.792   1.914 -0.4543  0.0009  0.8621
 4622TIP3   OH213822   3.287   3.294   4.845 -0.8315 -0.2264  0.5220
 4622TIP3    H113823   3.314   3.338   4.764 -2.9092  0.5786  0.2079
 4622TIP3    H213824   3.203   3.253   4.823  0.3593 -3.3682  1.1703
 4623TIP3   OH213825   5.209   6.710   4.164 -0.5075 -0.0142 -0.2325
 4623TIP3    H113826   5.296   6.749   4.175 -0.2404 -0.2156 -1.4444
 4623TIP3    H213827   5.223   6.617   4.178 -0.5998 -0.0025 -0.0641
 4624TIP3   OH213828   5.655   1.123   5.217  0.4257  0.3279 -0.2790
 4624TIP3    H113829   5.562   1.145   5.223  0.7146  1.2925  1.0649
 4624TIP3    H213830   5.700   1.207   5.229  1.4854  0.1002 -2.1876
 4625TIP3   OH213831   8.086   3.389   1.648  0.3160 -0.0285 -0.4194
 4625TIP3    H113832   8.173   3.360   1.677  0.6836  0.8965 -0.5618
 4625TIP3    H213833   8.064   3.331   1.576 -0.1309 -1.6588  0.9582
 4626TIP3   OH213834  -0.003   4.414   4.735  0.0131  0.1804  0.4932
 4626TIP3    H113835   0.057   4.446   4.668 -0.6879 -2.8764 -1.8543
 4626TIP3    H213836   0.052   4.399   4.812  1.9053 -0.6024 -0.9205
 4627TIP3   OH213837   1.590   7.444   3.248 -0.5143  0.4978  0.2024
 4627TIP3    H113838   1.613   7.392   3.325  0.7814  0.6571 -0.0473
 4627TIP3    H213839   1.539   7.385   3.193 -2.4043  0.7067  1.6422
 4628TIP3   OH213840   5.136   5.895   1.823  0.0902 -0.1121  0.5429
 4628TIP3    H113841   5.217   5.849   1.845  1.2182  1.4057 -0.2082
 4628TIP3    H213842   5.124   5.878   1.729  0.1849  0.5886  0.3979
 4629TIP3   OH213843   7.175   1.661   0.379 -0.1361 -0.0585 -0.4124
 4629TIP3    H113844   7.198   1.754   0.377 -0.2876  0.0406  1.2822
 4629TIP3    H213845   7.080   1.660   0.392 -0.0162 -0.4227  0.5256
 4630TIP3   OH213846   6.859   7.218   1.000  0.1905  0.0422  0.4112
 4630TIP3    H113847   6.856   7.122   0.995 -3.2749  0.0727 -1.5236
 4630TIP3    H213848   6.908   7.245   0.922  1.1361 -0.1088  0.9376
 4631TIP3   OH213849   1.023   2.011   1.999 -0.6443 -0.4275 -0.4364
 4631TIP3    H113850   1.085   2.049   2.061 -0.9572 -1.6091  0.6431
 4631TIP3    H213851   1.077   1.978   1.928 -0.1097 -0.6094  0.0480
 4632TIP3   OH213852   8.204   6.330   1.366  0.4659 -0.0589 -0.5365
 4632TIP3    H113853   8.120   6.293   1.340 -1.4746  2.5675  1.4179
 4632TIP3    H213854   8.250   6.349   1.284 -2.2576  1.3341 -1.8532
 4633TIP3   OH213855   5.163   3.620   3.066  0.0414  0.0860  0.1304
 4633TIP3    H113856   5.216   3.584   3.138  0.6632  0.1841 -0.2636
 4633TIP3    H213857   5.225   3.673   3.016 -0.6398  0.9033  0.1366
 4634TIP3   OH213858   4.178   0.447   5.732 -0.6791  0.2081 -0.1072
 4634TIP3    H113859   4.165   0.372   5.674  1.4366 -0.1484 -0.1806
 4634TIP3    H213860   4.254   0.424   5.785  0.4359  2.5271 -0.5527
 4635TIP3   OH213861   6.199   3.198   0.481 -0.2053 -0.1679 -0.2417
 4635TIP3    H113862   6.168   3.135   0.416  0.4155 -0.7804  0.0366
 4635TIP3    H213863   6.247   3.263   0.430 -0.0358 -0.4435 -0.4370
 4636TIP3   OH213864   5.597   5.038   1.955 -0.5309 -0.3694 -0.5744
 4636TIP3    H113865   5.638   4.964   1.999  0.7770  0.6596 -0.0038
 4636TIP3    H213866   5.533   5.071   2.018  3.2016  2.8391  2.0794
 4637TIP3   OH213867   2.638   3.445   2.183 -0.0299 -0.6333 -0.0624
 4637TIP3    H113868   2.623   3.368   2.238  2.1499 -0.4968  0.8598
 4637TIP3    H213869   2.712   3.420   2.128  0.2374  0.5496 -0.2537
 4638TIP3   OH213870   3.338   4.752   1.916  0.6917  0.2136 -1.0339
 4638TIP3    H113871   3.378   4.730   1.831  0.7161  0.8051 -1.1775
 4638TIP3    H213872   3.321   4.846   1.911  0.1375  0.1435 -0.6135
 4639TIP3   OH213873   4.982   3.693   2.264 -0.1908 -0.1007  0.0077
 4639TIP3    H113874   4.957   3.762   2.202  1.7559  2.5166  1.9036
 4639TIP3    H213875   4.958   3.729   2.350  1.2558 -1.6101  1.1037
 4640TIP3   OH213876   4.189   2.078   1.634 -0.3539  0.1254  0.1183
 4640TIP3    H113877   4.143   2.151   1.593  0.5022  1.1691  0.9634
 4640TIP3    H213878   4.225   2.114   1.714  0.4091 -1.1375  0.3737
 4641TIP3   OH213879   5.771   3.685   0.572  0.1762  0.6244 -0.1785
 4641TIP3    H113880   5.831   3.651   0.505  0.4279  1.6552 -0.4950
 4641TIP3    H213881   5.824   3.695   0.650 -0.6095 -2.7825  0.9489
 4642TIP3   OH213882   5.029   1.162   4.417 -0.3412  0.1305  0.1683
 4642TIP3    H113883   5.094   1.228   4.442  0.1868  0.1090 -1.0995
 4642TIP3    H213884   5.075   1.104   4.357 -0.4880 -2.0243  2.0024
 4643TIP3   OH213885   4.100   7.639   4.463  0.0657 -1.0512 -0.6197
 4643TIP3    H113886   4.189   7.662   4.489 -0.1337 -1.2619  0.3102
 4643TIP3    H213887   4.046   7.712   4.493 -0.0522 -0.8223 -1.3729
 4644TIP3   OH213888   6.118   1.895   1.055  0.4163 -0.1819  0.6209
 4644TIP3    H113889   6.204   1.881   1.095  0.9761  1.7897  0.2390
 4644TIP3    H213890   6.082   1.971   1.100  0.5478  1.3890 -1.7188
 4645TIP3   OH213891   3.489   2.475   2.465  0.7873 -0.0405 -0.3476
 4645TIP3    H113892   3.508   2.559   2.506  0.5751  0.7948 -1.9364
 4645TIP3    H213893   3.531   2.479   2.379 -0.2458 -1.0773 -0.9293
 4646TIP3   OH213894   1.297   4.897   2.316  0.6888  0.4865  0.3258
 4646TIP3    H113895   1.298   4.982   2.361 -1.2826  1.0127 -0.5103
 4646TIP3    H213896   1.278   4.833   2.385 -1.0301  1.1429  0.5185
 4647TIP3   OH213897   4.917   0.736   4.199  0.5919 -0.2715 -0.0227
 4647TIP3    H113898   4.948   0.792   4.270  0.7513 -0.5269  0.1090
 4647TIP3    H213899   4.822   0.749   4.198  0.6190 -0.0607  0.0591
 4648TIP3   OH213900   1.365   3.873   1.172  0.6335 -0.1302  0.3925
 4648TIP3    H113901   1.397   3.783   1.171 -0.7951 -0.6694  0.1533
 4648TIP3    H213902   1.364   3.900   1.080 -1.2416 -0.7836  0.1654
 4649TIP3   OH213903   1.270   0.466   2.430  0.0919 -0.8515 -0.2430
 4649TIP3    H113904   1.232   0.382   2.454  0.3839 -0.8868  0.0988
 4649TIP3    H213905   1.199   0.512   2.384 -0.1152 -1.2207 -0.2995
 4650TIP3   OH213906   0.000   0.039   2.807  0.0057 -0.0538  0.1155
 4650TIP3    H113907   0.077   0.034   2.864 -0.8198 -2.5396  1.1706
 4650TIP3    H213908  -0.001  -0.046   2.762 -1.9526  0.0221 -0.0678
 4651TIP3   OH213909   0.542   3.817   0.689  0.3448 -0.5467 -0.1776
 4651TIP3    H113910   0.587   3.745   0.645  0.1850 -0.6766 -0.1314
 4651TIP3    H213911   0.468   3.775   0.733 -1.6567  0.0104 -2.7204
 4652TIP3   OH213912   2.201   7.391   6.020  0.1528  0.3847 -0.1827
 4652TIP3    H113913   2.225   7.475   5.981 -0.8140  0.2951 -1.0165
 4652TIP3    H213914   2.119   7.367   5.977 -1.5191  0.6974  2.5869
 4653TIP3   OH213915   0.857   3.203   4.568 -0.2082  0.3273 -0.3152
 4653TIP3    H113916   0.944   3.166   4.552  0.1483  1.0171 -0.0215
 4653TIP3    H213917   0.800   3.159   4.505  0.2437 -0.5395 -0.1365
 4654TIP3   OH213918   5.590   1.608   6.163 -0.5394 -0.5004  0.1312
 4654TIP3    H113919   5.596   1.692   6.207  0.3073 -1.6380  2.3505
 4654TIP3    H213920   5.659   1.609   6.098  0.3632  0.0251  1.0817
 4655TIP3   OH213921   2.606   4.983   3.016  0.4384 -0.0171  0.0394
 4655TIP3    H113922   2.646   5.038   2.949 -0.3354 -0.4366 -0.7731
 4655TIP3    H213923   2.598   4.897   2.976 -1.2212  0.0343  0.1877
 4656TIP3   OH213924   8.086   6.634   6.234  0.5294 -0.0506 -0.0809
 4656TIP3    H113925   8.167   6.585   6.250 -0.4271 -1.7048 -0.0528
 4656TIP3    H213926   8.037   6.581   6.171 -1.9273 -0.8113  2.2464
 4657TIP3   OH213927   0.849   2.946   2.123 -0.1429 -0.0042  0.1227
 4657TIP3    H113928   0.783   2.883   2.093 -1.2138  0.4388  1.4263
 4657TIP3    H213929   0.932   2.902   2.109 -0.7121 -0.7391 -1.2215
 4658TIP3   OH213930   7.862   6.256   2.278  0.5895  0.0455 -0.6627
 4658TIP3    H113931   7.869   6.166   2.310 -0.8833  0.1263 -0.0563
 4658TIP3    H213932   7.833   6.248   2.188 -1.4691 -0.0983 -0.0375
 4659TIP3   OH213933   3.905   1.835   3.641  0.2817  0.7087  0.0268
 4659TIP3    H113934   3.887   1.891   3.717 -1.0886  0.4761 -0.0948
 4659TIP3    H213935   3.995   1.807   3.652  0.4510  1.5794  0.9838
 4660TIP3   OH213936   1.445   4.977   6.024 -0.3495 -0.2384 -0.5019
 4660TIP3    H113937   1.430   5.060   5.979 -1.5098 -0.6016 -0.8323
 4660TIP3    H213938   1.362   4.959   6.069  0.7534  0.0968  1.7812
 4661TIP3   OH213939   2.391   3.534   0.337  0.6754  0.2544  0.2949
 4661TIP3    H113940   2.438   3.615   0.353  0.1733  0.5662  0.2182
 4661TIP3    H213941   2.344   3.549   0.255  0.4809 -0.0656  0.3429
 4662TIP3   OH213942   1.518   3.346   3.592 -0.7979 -0.6986  0.8150
 4662TIP3    H113943   1.436   3.393   3.603  0.0071  1.1593 -0.4937
 4662TIP3    H213944   1.495   3.270   3.537 -1.7324 -0.5684  1.0075
 4663TIP3   OH213945   4.611   5.515   3.637  0.2018  0.7121  0.1117
 4663TIP3    H113946   4.589   5.487   3.726  0.1963  1.1588  0.2558
 4663TIP3    H213947   4.658   5.441   3.599 -1.3102 -0.1670 -0.1189
 4664TIP3   OH213948   5.851   3.566   5.183  0.3877 -0.4102 -0.3866
 4664TIP3    H113949   5.811   3.479   5.186  0.4179 -0.4123  0.0658
 4664TIP3    H213950   5.783   3.622   5.146  0.3005 -0.5938 -0.5025
 4665TIP3   OH213951   0.939   7.770   1.880 -0.0678  0.8358  0.4024
 4665TIP3    H113952   0.846   7.762   1.901  0.0178  1.5282  1.0967
 4665TIP3    H213953   0.942   7.777   1.785 -0.5588 -1.2001  0.2088
 4666TIP3   OH213954   1.674   7.575   5.754 -0.7672 -0.0260 -0.5356
 4666TIP3    H113955   1.710   7.664   5.753  0.2126 -0.3613  1.1046
 4666TIP3    H213956   1.583   7.586   5.781 -0.7865  0.5023 -0.7891
 4667TIP3   OH213957   1.840   6.838   2.357  0.1622  0.3292 -0.0401
 4667TIP3    H113958   1.798   6.921   2.336 -0.8239 -0.1266  0.0492
 4667TIP3    H213959   1.871   6.848   2.447 -1.8244 -0.0765  0.7596
 4668TIP3   OH213960   0.914   5.507   6.690 -0.2253  0.4514 -0.5722
 4668TIP3    H113961   0.839   5.563   6.714  0.3707  1.8846 -1.8811
 4668TIP3    H213962   0.990   5.554   6.723  0.1446 -1.4545  1.5901
 4669TIP3   OH213963   5.805   7.045   2.869 -0.4316  0.1702  0.2733
 4669TIP3    H113964   5.766   7.126   2.838 -1.1290  0.2920  1.4127
 4669TIP3    H213965   5.826   7.062   2.961 -0.1104 -0.7728  0.3906
 4670TIP3   OH213966   5.910   5.583   5.214 -0.1367 -0.0571 -0.5646
 4670TIP3    H113967   5.917   5.554   5.123  0.2305 -0.3805 -0.4376
 4670TIP3    H213968   5.926   5.504   5.265 -1.4940 -0.1329 -0.2203
 4671TIP3   OH213969   4.631   2.232   6.359 -0.3388 -0.0568  0.0887
 4671TIP3    H113970   4.535   2.230   6.358 -0.3324 -0.9309  0.9127
 4671TIP3    H213971   4.654   2.261   6.447  0.1659 -0.2018  0.0091
 4672TIP3   OH213972   4.508   3.009   4.308 -0.1537  0.0677  0.4221
 4672TIP3    H113973   4.476   2.947   4.243  1.3688  0.5622 -0.8901
 4672TIP3    H213974   4.604   3.005   4.299  0.0083  2.7191  0.0975
 4673TIP3   OH213975   6.800   3.671   4.662  0.1497 -0.0762 -0.0371
 4673TIP3    H113976   6.818   3.754   4.616  2.9817 -0.0896  0.8600
 4673TIP3    H213977   6.768   3.613   4.593  0.0208  1.1892 -1.0974
 4674TIP3   OH213978   4.556   0.880   2.768 -0.7414  0.1924 -0.1438
 4674TIP3    H113979   4.465   0.855   2.782 -0.8782  0.0874 -1.1566
 4674TIP3    H213980   4.573   0.860   2.676  0.3194  0.1678  0.0385
 4675TIP3   OH213981   6.927   1.439   6.546 -0.2404 -0.3426 -0.1101
 4675TIP3    H113982   7.019   1.435   6.572 -0.3206  1.7678  0.6742
 4675TIP3    H213983   6.919   1.524   6.501 -1.6932 -0.7453 -0.6587
 4676TIP3   OH213984   3.165   7.449   4.572  0.1451  0.2891  0.2971
 4676TIP3    H113985   3.124   7.517   4.519  2.1532  1.0284 -0.4391
 4676TIP3    H213986   3.184   7.378   4.510 -1.5348 -0.7999  0.9727
 4677TIP3   OH213987   6.897   6.368   5.665  0.0175 -0.4413 -0.1228
 4677TIP3    H113988   6.907   6.313   5.588 -2.0194  0.8966 -1.4342
 4677TIP3    H213989   6.971   6.429   5.661  0.9586 -1.5493  0.0443
 4678TIP3   OH213990   1.468   5.047   3.511  0.0475  0.0294 -0.3570
 4678TIP3    H113991   1.402   5.004   3.567  0.5489  0.2345  0.4048
 4678TIP3    H213992   1.552   5.015   3.545  0.3457 -0.5035 -1.5465
 4679TIP3   OH213993   6.997   5.349   5.254  0.3128  0.0392  0.4371
 4679TIP3    H113994   7.090   5.341   5.232 -0.0132 -2.2554 -0.3579
 4679TIP3    H213995   6.991   5.430   5.305  2.5751  0.7488 -0.3241
 4680TIP3   OH213996   8.188   5.664   5.092 -0.1151  0.1891  0.2591
 4680TIP3    H113997   8.103   5.669   5.136  0.3244  0.2092  1.1271
 4680TIP3    H213998   8.219   5.576   5.111 -0.6905 -0.4228 -1.5051
 4681TIP3   OH213999   5.258   4.718   2.734 -0.1531 -0.1084 -0.3802
 4681TIP3    H114000   5.353   4.726   2.744 -0.3403  2.5631  0.1596
 4681TIP3    H214001   5.224   4.797   2.776 -2.7225 -1.5956  0.5267
 4682TIP3   OH214002   1.751   4.026   4.835  0.3333  0.2013  0.1554
 4682TIP3    H114003   1.756   3.936   4.866  2.0156 -0.0763 -0.8251
 4682TIP3    H214004   1.671   4.061   4.876 -2.1203 -2.6305 -1.8007
 4683TIP3   OH214005   2.759   1.481   4.206  0.1908  0.2151 -0.5829
 4683TIP3    H114006   2.828   1.434   4.254  0.4027  1.4668  0.3950
 4683TIP3    H214007   2.696   1.413   4.182  1.6432 -0.9358 -1.3200
 4684TIP3   OH214008   3.377   5.641   1.932  0.2819 -0.4396  0.0792
 4684TIP3    H114009   3.391   5.549   1.957 -0.9477 -0.2423  1.7642
 4684TIP3    H214010   3.456   5.666   1.884  0.9450 -2.1753  0.1847
 4685TIP3   OH214011   5.164   2.297   5.156 -0.4883 -0.1517 -0.0752
 4685TIP3    H114012   5.147   2.389   5.173  0.0049 -0.1996  0.7513
 4685TIP3    H214013   5.094   2.251   5.203 -0.5003 -0.2163 -0.1554
 4686TIP3   OH214014   0.833   5.091   5.250  0.0927  0.5088  0.1912
 4686TIP3    H114015   0.875   5.033   5.313  0.8606  1.7647  0.8775
 4686TIP3    H214016   0.743   5.101   5.282 -0.1280 -0.4517 -0.0706
 4687TIP3   OH214017   8.288   0.845   5.242 -0.0830 -0.3468  0.7322
 4687TIP3    H114018   8.334   0.849   5.325  2.7716  0.8125 -0.7493
 4687TIP3    H214019   8.217   0.909   5.250  0.7559  0.4670  1.9742
 4688TIP3   OH214020   1.464   6.818   4.994 -0.7741  0.4615 -0.1281
 4688TIP3    H114021   1.385   6.867   5.015 -1.1308 -0.3265  0.4480
 4688TIP3    H214022   1.434   6.749   4.935 -0.1926  1.2107 -1.3413
 4689TIP3   OH214023   7.028   6.900   4.223  0.5002  0.4610  0.0835
 4689TIP3    H114024   6.989   6.844   4.290 -0.9049 -0.3526 -1.3547
 4689TIP3    H214025   7.099   6.848   4.187  1.0757  0.7878  0.7246
 4690TIP3   OH214026   6.366   0.670   4.213  0.0164  0.0297  0.2421
 4690TIP3    H114027   6.367   0.578   4.186  0.6627 -0.5400  2.0459
 4690TIP3    H214028   6.324   0.716   4.141  0.6468 -1.5255 -1.1815
 4691TIP3   OH214029   6.864   7.330   0.074 -0.3686 -0.1847  0.3771
 4691TIP3    H114030   6.888   7.243   0.043 -0.3275 -0.1073  0.1931
 4691TIP3    H214031   6.832   7.315   0.163  0.7227 -0.2452  0.7844
 4692TIP3   OH214032   5.371   3.587   3.580  0.0027 -0.0673  0.1624
 4692TIP3    H114033   5.338   3.498   3.570 -0.1196  0.0027 -0.0474
 4692TIP3    H214034   5.299   3.634   3.622 -0.6541  0.3929 -1.4076
 4693TIP3   OH214035   4.588   0.025   4.999 -0.3972 -0.5304 -0.2586
 4693TIP3    H114036   4.659   0.074   4.959  0.4977 -1.7699 -0.2581
 4693TIP3    H214037   4.624  -0.063   5.011 -0.8432 -0.3987  2.6723
 4694TIP3   OH214038   2.872   2.701   2.826  0.2143 -0.6482  0.3450
 4694TIP3    H114039   2.899   2.792   2.816 -1.3046 -0.0122  1.6558
 4694TIP3    H214040   2.926   2.667   2.898 -0.5523 -0.1804  1.1595
 4695TIP3   OH214041   6.127   4.615   0.195 -0.0182 -0.1862 -0.3150
 4695TIP3    H114042   6.157   4.704   0.214 -0.6819 -0.2393  1.0845
 4695TIP3    H214043   6.158   4.598   0.106  0.0046  1.4796 -0.6498
 4696TIP3   OH214044   5.763   4.864   3.746 -0.6081  0.0439 -0.2826
 4696TIP3    H114045   5.756   4.817   3.829  0.5243  0.8418  0.2908
 4696TIP3    H214046   5.832   4.929   3.760 -0.8771  0.6726 -1.6269
 4697TIP3   OH214047   1.996   0.959   0.120  0.5527 -0.3598 -0.0568
 4697TIP3    H114048   2.063   1.018   0.154  1.7124 -1.5918 -0.1615
 4697TIP3    H214049   1.913   1.001   0.144  1.3506  0.8542  0.6494
 4698TIP3   OH214050   6.232   3.804   4.927  0.2188 -0.3197 -0.0227
 4698TIP3    H114051   6.162   3.778   4.987  0.4467  0.6158  0.6928
 4698TIP3    H214052   6.313   3.792   4.978  0.5282 -0.7430 -0.6013
 4699TIP3   OH214053   7.316   0.553   3.372  0.3295 -0.1551 -0.2245
 4699TIP3    H114054   7.371   0.477   3.393 -1.3685 -0.9036  1.8000
 4699TIP3    H214055   7.350   0.623   3.427 -1.6507 -1.0685  2.3464
 4700TIP3   OH214056   7.502   0.664   4.324  0.1514  0.4846 -0.0895
 4700TIP3    H114057   7.567   0.669   4.254  0.5573 -0.9166  0.1460
 4700TIP3    H214058   7.466   0.752   4.330  0.5138  0.7688 -1.6701
 4701TIP3   OH214059   7.714   2.517   2.336 -0.2770  0.0255 -0.5369
 4701TIP3    H114060   7.670   2.557   2.260  0.4142  2.6547  0.3283
 4701TIP3    H214061   7.773   2.585   2.367  1.5891 -2.0306  0.6724
 4702TIP3   OH214062   7.443   2.891   6.569  0.2145  0.0741  0.0474
 4702TIP3    H114063   7.412   2.873   6.481  1.0414 -1.0205 -0.0399
 4702TIP3    H214064   7.533   2.924   6.557 -0.1398  1.2154  0.4109
 4703TIP3   OH214065   3.911   6.283   3.451 -0.6509 -0.0531  0.0026
 4703TIP3    H114066   3.944   6.364   3.410 -0.5893 -0.5376 -0.9285
 4703TIP3    H214067   3.987   6.248   3.497 -0.5584  0.1974  0.0457
 4704TIP3   OH214068   7.580   7.018   2.041  0.3019  0.4900  0.0743
 4704TIP3    H114069   7.670   7.026   2.012  0.4492  1.3182  0.7050
 4704TIP3    H214070   7.555   7.107   2.067 -0.1665  0.0034  1.3912
 4705TIP3   OH214071   5.993   7.201   4.890 -0.0647 -0.5483  0.0491
 4705TIP3    H114072   5.982   7.295   4.899 -2.1590 -0.8676  1.5284
 4705TIP3    H214073   6.003   7.170   4.980  0.9322 -1.7207 -0.4365
 4706TIP3   OH214074   6.434   0.485   3.512  0.1824  0.4661  0.1326
 4706TIP3    H114075   6.342   0.459   3.513  0.3290 -0.1940 -1.4217
 4706TIP3    H214076   6.433   0.580   3.519 -0.5849  0.4270  0.6196
 4707TIP3   OH214077   2.655   6.712   2.474  0.1933 -0.2360  0.8957
 4707TIP3    H114078   2.612   6.718   2.559 -0.1886 -0.7848  0.7408
 4707TIP3    H214079   2.595   6.755   2.413 -0.0676 -0.8579  0.7084
 4708TIP3   OH214080   6.209   5.971   2.645 -0.0268  0.1336 -0.0981
 4708TIP3    H114081   6.156   5.899   2.610 -0.5487 -0.0819  1.0654
 4708TIP3    H214082   6.275   5.927   2.699  0.8712  0.4430 -0.9212
 4709TIP3   OH214083   1.340   1.013   6.485  0.1499 -0.4326 -0.3692
 4709TIP3    H114084   1.302   1.090   6.528 -0.3304 -1.3400  0.8759
 4709TIP3    H214085   1.264   0.964   6.453  0.4733 -0.2006 -1.5535
 4710TIP3   OH214086   6.500   3.167   3.679  0.3701 -0.0810  0.0297
 4710TIP3    H114087   6.553   3.235   3.721  0.2599 -0.5305  0.9326
 4710TIP3    H214088   6.419   3.166   3.730  0.1495 -0.5055 -0.3302
 4711TIP3   OH214089   8.042   7.145   2.105  0.3349  0.3535 -0.3572
 4711TIP3    H114090   7.976   7.150   2.036 -0.4266 -1.4325  0.1939
 4711TIP3    H214091   8.082   7.059   2.095 -0.1040 -0.1503  1.6735
 4712TIP3   OH214092   6.157   1.782   4.882 -0.5790  0.2832  0.1382
 4712TIP3    H114093   6.102   1.764   4.806 -0.9687  0.8465  0.2768
 4712TIP3    H214094   6.221   1.711   4.884  1.4783  1.8779 -2.5939
 4713TIP3   OH214095   3.336   2.480   1.810  0.1197 -0.3936 -0.0880
 4713TIP3    H114096   3.315   2.521   1.726 -2.0253 -1.1861  0.0128
 4713TIP3    H214097   3.253   2.477   1.857  0.4508 -3.3958  0.5180
 4714TIP3   OH214098   2.153   5.073   2.218  0.5525  0.0402  0.0894
 4714TIP3    H114099   2.058   5.065   2.209  0.1192  3.4074  0.5435
 4714TIP3    H214100   2.169   5.055   2.311  0.7049 -2.3610 -0.3270
 4715TIP3   OH214101   0.654   6.261   0.857 -0.1818  0.4438  0.6131
 4715TIP3    H114102   0.675   6.349   0.889 -1.2645  1.7796 -2.0602
 4715TIP3    H214103   0.701   6.253   0.774 -1.5698 -0.7392 -0.1232
 4716TIP3   OH214104   5.328   4.370   6.005  0.0514  0.3135 -1.0751
 4716TIP3    H114105   5.306   4.425   6.080 -0.9618 -1.3237 -0.0909
 4716TIP3    H214106   5.404   4.412   5.965  0.7037  1.1639  0.9439
 4717TIP3   OH214107   2.418   7.610   4.620 -0.2942  0.0689 -0.1675
 4717TIP3    H114108   2.438   7.535   4.564  0.0339  1.3501 -1.8532
 4717TIP3    H214109   2.445   7.583   4.708  1.1481 -1.2498 -0.9753
 4718TIP3   OH214110   3.961   7.513   3.562 -0.3878  1.1165  0.3999
 4718TIP3    H114111   3.869   7.491   3.549  0.1223 -0.5067 -0.8509
 4718TIP3    H214112   3.989   7.456   3.634  0.6712 -1.9307 -2.1593
 4719TIP3   OH214113   2.271   5.649   3.094 -0.0835  0.3760 -0.1568
 4719TIP3    H114114   2.288   5.625   3.003  0.9791 -0.3089  0.2109
 4719TIP3    H214115   2.355   5.683   3.126 -0.8538  2.1831  0.1119
 4720TIP3   OH214116   7.469   0.368   4.005 -0.0791  0.1340  0.2992
 4720TIP3    H114117   7.453   0.318   4.085 -1.8760 -0.7940 -0.5934
 4720TIP3    H214118   7.392   0.423   3.994  0.4033  0.6790 -0.4959
 4721TIP3   OH214119   1.438   7.614   5.323 -0.1584  0.0968  0.1068
 4721TIP3    H114120   1.488   7.546   5.278  1.4262  1.0406  0.3559
 4721TIP3    H214121   1.379   7.649   5.255  1.0952  0.4467 -0.8322
 4722TIP3   OH214122   7.946   1.538   5.886  0.0726 -0.1734 -0.2793
 4722TIP3    H114123   7.984   1.517   5.801  0.7494  0.0143 -0.0330
 4722TIP3    H214124   7.920   1.454   5.922  0.8426 -0.3851 -0.1900
 4723TIP3   OH214125   6.044   1.529   1.868 -0.7983 -0.3449  0.4009
 4723TIP3    H114126   5.975   1.491   1.814 -1.3737  0.8415  0.2766
 4723TIP3    H214127   6.001   1.601   1.915  0.5325  1.0374 -0.3936
 4724TIP3   OH214128   4.535   4.188   4.465 -0.0861  0.1800  0.4540
 4724TIP3    H114129   4.576   4.227   4.542  0.7466 -1.8848  1.1239
 4724TIP3    H214130   4.601   4.199   4.396  0.2214 -0.2013  0.6845
 4725TIP3   OH214131   8.095   0.232   4.359  0.3645  0.5695  0.2401
 4725TIP3    H114132   8.154   0.266   4.291 -1.4258  3.6966  0.0638
 4725TIP3    H214133   8.105   0.137   4.354  1.4148  0.7266 -3.3992
 4726TIP3   OH214134   8.004   7.589   4.829  0.2868  0.3443  0.0020
 4726TIP3    H114135   7.910   7.606   4.824  0.0149 -1.0787 -0.1077
 4726TIP3    H214136   8.013   7.522   4.897  1.0857 -0.3804 -0.7909
 4727TIP3   OH214137   5.864   0.957   6.055  0.1622 -0.6598  0.4512
 4727TIP3    H114138   5.858   0.929   6.146 -1.2078 -0.9040  0.2987
 4727TIP3    H214139   5.779   0.936   6.017  1.0751 -1.6146 -1.1977
 4728TIP3   OH214140   3.604   2.403   0.270  0.5632  0.2207 -0.5399
 4728TIP3    H114141   3.616   2.422   0.363 -1.1146  0.8003 -0.3937
 4728TIP3    H214142   3.587   2.489   0.230 -1.2863 -0.2560 -0.9002
 4729TIP3   OH214143   3.579   6.820   5.977 -0.0680  0.8543  0.0168
 4729TIP3    H114144   3.533   6.897   5.941  0.3693  1.4112  0.6314
 4729TIP3    H214145   3.621   6.852   6.056 -2.7647 -0.8330  2.3258
 4730TIP3   OH214146   5.530   1.667   4.380  0.1233 -0.1301 -0.1363
 4730TIP3    H114147   5.480   1.592   4.413  0.7465 -0.3570  0.3012
 4730TIP3    H214148   5.582   1.631   4.307 -0.2906  0.0915 -0.5469
 4731TIP3   OH214149   6.874   1.423   3.888  1.0919  0.2535  0.3680
 4731TIP3    H114150   6.965   1.435   3.861  1.1689 -1.1500 -0.0469
 4731TIP3    H214151   6.879   1.390   3.977  0.9924 -0.0920  0.2446
 4732TIP3   OH214152   5.570   1.092   1.272  0.5586  0.1340  0.2351
 4732TIP3    H114153   5.654   1.045   1.269 -0.3677 -1.5886 -0.1636
 4732TIP3    H214154   5.551   1.114   1.181 -0.0060 -0.6160  0.1613
 4733TIP3   OH214155   3.685   5.132   4.115 -0.1267  0.1978 -0.1850
 4733TIP3    H114156   3.756   5.101   4.170  0.1700 -2.0101 -1.6753
 4733TIP3    H214157   3.621   5.060   4.114 -0.6555  0.6364 -1.7432
 4734TIP3   OH214158   3.538   1.222   4.626  0.4135  0.0393 -0.0754
 4734TIP3    H114159   3.499   1.306   4.651 -0.1195 -0.6648  1.5750
 4734TIP3    H214160   3.628   1.227   4.658 -0.0869 -0.6163  1.5211
 4735TIP3   OH214161   7.530   3.741   0.019  0.1396 -0.5933  0.3329
 4735TIP3    H114162   7.562   3.690   0.093 -0.3351 -1.3920 -0.0003
 4735TIP3    H214163   7.475   3.809   0.059 -0.3484 -1.1949  0.7092
 4736TIP3   OH214164   6.627   2.891   3.661 -0.2494 -0.4795 -0.1835
 4736TIP3    H114165   6.596   2.980   3.643 -2.2557 -1.3858 -1.7036
 4736TIP3    H214166   6.592   2.871   3.747  1.6089  0.7254  0.9067
 4737TIP3   OH214167   0.144   3.100   3.969  0.4342 -0.9437 -0.0024
 4737TIP3    H114168   0.195   3.030   3.928 -0.8601 -1.5233 -0.6574
 4737TIP3    H214169   0.062   3.058   3.996  0.0317  0.1070  0.4602
 4738TIP3   OH214170   0.776   3.223   6.054 -0.2671 -0.0517 -0.1586
 4738TIP3    H114171   0.789   3.266   5.969 -0.1714 -0.0147 -0.1255
 4738TIP3    H214172   0.789   3.130   6.035  4.8228  0.2086  0.6772
 4739TIP3   OH214173   2.733   4.469   0.116  0.2353 -0.3388 -0.2313
 4739TIP3    H114174   2.774   4.525   0.182 -0.4738 -0.3262  0.2189
 4739TIP3    H214175   2.780   4.386   0.122  1.0554  0.0872 -0.6545
 4740TIP3   OH214176   5.850   7.235   4.617 -0.2309  0.4350 -0.0504
 4740TIP3    H114177   5.784   7.196   4.675  2.5601 -0.3948  2.8676
 4740TIP3    H214178   5.904   7.162   4.588  1.0881  1.3568 -0.0287
 4741TIP3   OH214179   6.758   2.579   0.360  0.3484 -1.0724 -0.4753
 4741TIP3    H114180   6.799   2.546   0.440  0.3712 -0.3199 -0.1645
 4741TIP3    H214181   6.682   2.629   0.391  1.3186  0.6792 -0.7814
 4742TIP3   OH214182   4.648   6.572   2.384 -0.6129  0.1106 -0.3589
 4742TIP3    H114183   4.629   6.503   2.447  1.4399 -0.9176 -0.7885
 4742TIP3    H214184   4.743   6.580   2.385 -0.6504  1.3430 -2.0277
 4743TIP3   OH214185   0.992   3.692   5.118  0.2334 -0.9879  0.1573
 4743TIP3    H114186   0.978   3.746   5.196 -0.4343  0.2985 -0.8029
 4743TIP3    H214187   0.904   3.670   5.088  0.4979 -2.7799  0.6092
 4744TIP3   OH214188   6.772   7.103   4.718 -0.0870 -0.0062 -0.5580
 4744TIP3    H114189   6.743   7.018   4.751 -0.6438  0.0125 -1.0000
 4744TIP3    H214190   6.824   7.139   4.790 -0.9253 -0.1607  0.1378
 4745TIP3   OH214191   1.404   4.383   2.966  0.1184 -0.0561  0.4810
 4745TIP3    H114192   1.395   4.357   2.875  2.4821 -1.6591  0.6254
 4745TIP3    H214193   1.364   4.311   3.016 -0.6295  0.5323  0.7605
 4746TIP3   OH214194   7.806   2.757   6.728  0.2400 -0.0718  0.0478
 4746TIP3    H114195   7.742   2.735   6.660  1.5895  1.3022 -1.7542
 4746TIP3    H214196   7.840   2.673   6.757 -0.0040 -0.6697 -1.3498
 4747TIP3   OH214197   6.018   5.817   0.619  0.4931 -0.0836 -0.0943
 4747TIP3    H114198   6.068   5.737   0.607  1.6768  0.6253 -0.0063
 4747TIP3    H214199   6.063   5.882   0.566 -1.9078 -0.0086 -2.2298
 4748TIP3   OH214200   7.481   2.428   6.745  0.6483 -0.2974  0.4600
 4748TIP3    H114201   7.441   2.377   6.815  0.7688 -0.8326  0.1430
 4748TIP3    H214202   7.474   2.373   6.667 -0.0684  0.5580 -0.1037
 4749TIP3   OH214203   2.937   0.112   3.405  0.3706 -0.4773  0.1059
 4749TIP3    H114204   2.984   0.195   3.407  1.3098 -0.9909  1.7271
 4749TIP3    H214205   2.957   0.074   3.320  3.1454 -0.7754  0.7926
 4750TIP3   OH214206   4.534   4.309   4.724 -0.0982 -0.4715 -0.4529
 4750TIP3    H114207   4.443   4.295   4.749  0.4293 -1.2370  1.1985
 4750TIP3    H214208   4.540   4.403   4.709 -1.0735 -0.3511 -0.1668
 4751TIP3   OH214209   3.410   0.905   5.824 -0.4172  0.4681  0.2274
 4751TIP3    H114210   3.402   0.875   5.734 -0.3762 -2.2695  1.0344
 4751TIP3    H214211   3.325   0.945   5.843 -1.2093 -0.8148 -0.4371
 4752TIP3   OH214212   6.433   7.410   4.394  1.0809 -0.6274  0.4156
 4752TIP3    H114213   6.368   7.462   4.441  0.9581 -1.9146  1.7129
 4752TIP3    H214214   6.431   7.445   4.304  0.1970  0.8169  0.9625
 4753TIP3   OH214215   2.628   2.583   2.900  0.0562  0.0719 -0.0177
 4753TIP3    H114216   2.652   2.490   2.906 -0.3521 -0.0349 -0.0059
 4753TIP3    H214217   2.710   2.628   2.879  0.5576 -0.1323  1.3922
 4754TIP3   OH214218   1.712   0.490   6.184 -0.3532 -0.9015  0.3398
 4754TIP3    H114219   1.774   0.434   6.231  1.2569  1.1124  0.7908
 4754TIP3    H214220   1.715   0.458   6.094  1.8384 -0.5490  0.2287
 4755TIP3   OH214221   6.185   7.083   2.462  0.1232  0.3188  0.0033
 4755TIP3    H114222   6.174   7.009   2.521  0.8742  0.5190  0.3927
 4755TIP3    H214223   6.215   7.044   2.380  0.1936  0.1604  0.1049
 4756TIP3   OH214224   1.327   6.479   3.078  0.2787  0.4705  0.6203
 4756TIP3    H114225   1.373   6.530   3.145 -0.7559  0.8287  1.0796
 4756TIP3    H214226   1.271   6.543   3.034  0.3615  0.0825 -0.0583
 4757TIP3   OH214227   0.549   0.434   0.402 -0.0538 -0.2789 -0.1501
 4757TIP3    H114228   0.632   0.482   0.399 -0.0211 -0.2576  0.7920
 4757TIP3    H214229   0.495   0.482   0.463 -0.1130 -1.2781  0.6142
 4758TIP3   OH214230   2.631   5.810   3.360  0.4304  0.0372 -0.4175
 4758TIP3    H114231   2.589   5.801   3.445  0.5003 -0.6600 -0.4484
 4758TIP3    H214232   2.572   5.765   3.299  0.9020 -0.4054 -0.5571
 4759TIP3   OH214233   2.952   1.148   6.087 -0.0930  0.1830  0.2484
 4759TIP3    H114234   2.971   1.240   6.067  1.2018 -0.1854 -0.3238
 4759TIP3    H214235   2.988   1.135   6.175 -0.5699  0.2989  0.4642
 4760TIP3   OH214236   2.329   1.209   1.416 -0.6549  0.4905  0.0262
 4760TIP3    H114237   2.346   1.246   1.330  1.9395  1.2316  0.7800
 4760TIP3    H214238   2.401   1.239   1.471 -1.4512 -1.1106  2.1311
 4761TIP3   OH214239   1.646   5.350   1.862 -0.1264  0.4380 -0.2227
 4761TIP3    H114240   1.659   5.411   1.935 -3.4303 -0.3318  1.1858
 4761TIP3    H214241   1.561   5.374   1.825 -0.1149 -1.4029 -1.6032
 4762TIP3   OH214242   1.690   2.315   4.772  0.2185  0.0008 -0.5529
 4762TIP3    H114243   1.761   2.348   4.828  0.9161  0.0003 -1.4200
 4762TIP3    H214244   1.612   2.358   4.806  0.9071  1.4839 -0.7587
 4763TIP3   OH214245   1.298   0.337   3.236 -0.2988  0.1110  0.4242
 4763TIP3    H114246   1.217   0.321   3.284 -1.5236  1.9229 -0.9062
 4763TIP3    H214247   1.275   0.403   3.170  2.3386  0.9936  0.2387
 4764TIP3   OH214248   0.859   3.136   1.932  0.2282  0.1701  0.4756
 4764TIP3    H114249   0.827   3.069   1.993 -0.2134  0.9168  1.0834
 4764TIP3    H214250   0.831   3.105   1.846 -1.3712  0.3444  0.8961
 4765TIP3   OH214251   3.747   5.458   1.812  0.6670  0.0393 -0.1493
 4765TIP3    H114252   3.770   5.387   1.872 -0.9187  0.3912  0.9296
 4765TIP3    H214253   3.825   5.513   1.811  1.3185 -0.8441  0.3063
 4766TIP3   OH214254   2.613   4.798   6.157  0.8527 -0.2789  0.3191
 4766TIP3    H114255   2.651   4.767   6.075  0.4594  0.9550 -0.3651
 4766TIP3    H214256   2.658   4.881   6.174 -0.6218  0.6009  0.1276
 4767TIP3   OH214257   0.838   1.088   6.509 -0.1801  0.1388 -0.1230
 4767TIP3    H114258   0.803   1.058   6.593 -1.2245  0.2120 -0.5209
 4767TIP3    H214259   0.786   1.165   6.487  0.1828  0.2042 -0.7694
 4768TIP3   OH214260   3.652   7.413   4.872  0.0692  0.2029  0.5491
 4768TIP3    H114261   3.603   7.400   4.791 -1.0257 -0.4435  1.2936
 4768TIP3    H214262   3.631   7.502   4.899 -0.2171  0.1386  0.5413
 4769TIP3   OH214263   2.502   0.416   0.500  0.0740  0.1646  0.2703
 4769TIP3    H114264   2.583   0.415   0.449  0.6796 -1.1152  1.1929
 4769TIP3    H214265   2.434   0.432   0.435  1.0281  1.0403 -0.5642
 4770TIP3   OH214266   1.354   2.601   5.318 -0.5171  0.5803  0.0334
 4770TIP3    H114267   1.333   2.665   5.386 -2.3380  1.2231 -1.0568
 4770TIP3    H214268   1.372   2.654   5.240  0.5199 -0.1762 -0.2624
 4771TIP3   OH214269   1.475   5.527   0.072  0.4311  0.1142 -0.0731
 4771TIP3    H114270   1.398   5.564   0.028  1.1379  1.4200 -0.2591
 4771TIP3    H214271   1.444   5.506   0.160 -0.0039  1.1561  0.0405
 4772TIP3   OH214272   3.372   7.794   5.340 -0.0297  0.2867  0.3016
 4772TIP3    H114273   3.456   7.840   5.340 -0.2876  0.7742  0.5606
 4772TIP3    H214274   3.390   7.711   5.383  0.5084  0.0178 -0.4222
 4773TIP3   OH214275   5.032   2.430   4.706 -0.6091  0.1552  0.3815
 4773TIP3    H114276   5.094   2.371   4.750 -2.7901 -1.9424  0.8542
 4773TIP3    H214277   5.035   2.404   4.614  0.3885  1.2053  0.0992
 4774TIP3   OH214278   5.332   1.541   2.004 -0.2964  0.2277 -0.1014
 4774TIP3    H114279   5.391   1.613   2.030 -1.9682  1.7098 -0.2059
 4774TIP3    H214280   5.252   1.557   2.054 -1.7317  0.1283 -2.2385
 4775TIP3   OH214281   6.131   0.436   2.865 -0.3308  0.5088 -0.1358
 4775TIP3    H114282   6.218   0.449   2.904 -0.3026  0.0003 -0.0212
 4775TIP3    H214283   6.085   0.519   2.881  0.2989  0.9712 -0.6390
 4776TIP3   OH214284   0.046   0.773   6.417 -0.0034  0.7973  0.1238
 4776TIP3    H114285   0.116   0.708   6.417  0.2303  1.0458  0.8822
 4776TIP3    H214286   0.006   0.765   6.503 -0.4890  1.1145 -0.0689
 4777TIP3   OH214287   2.484   2.682   6.221  0.1318 -0.1185  0.0664
 4777TIP3    H114288   2.564   2.709   6.176 -1.0146  0.9108 -1.4980
 4777TIP3    H214289   2.433   2.763   6.230 -0.6243 -0.6901  1.2988
 4778TIP3   OH214290   1.850   7.414   0.808 -0.4945 -0.3165  0.1370
 4778TIP3    H114291   1.938   7.441   0.783  0.0224 -1.8530  0.2096
 4778TIP3    H214292   1.821   7.356   0.737 -0.4264 -1.8462  1.3046
 4779TIP3   OH214293   6.511   7.541   1.608 -0.2835  0.0642 -0.1819
 4779TIP3    H114294   6.539   7.556   1.518 -2.7067  1.6034 -0.7556
 4779TIP3    H214295   6.538   7.620   1.655 -0.9685  0.2361 -0.0716
 4780TIP3   OH214296   7.388   4.001   0.349 -0.0081  0.6478 -0.5294
 4780TIP3    H114297   7.299   4.031   0.370  0.6990  1.4880  1.4866
 4780TIP3    H214298   7.375   3.915   0.308 -1.8325  1.5733 -2.0124
 4781TIP3   OH214299   2.336   7.633   2.498  0.3795 -0.4212  0.0081
 4781TIP3    H114300   2.338   7.538   2.511 -0.5742 -0.2403  1.9881
 4781TIP3    H214301   2.421   7.664   2.531  1.1463 -0.6394 -1.6628
 4782TIP3   OH214302   2.467   0.369   2.333 -0.5134  0.1678  0.4412
 4782TIP3    H114303   2.374   0.363   2.315 -0.1964 -0.9429 -1.0758
 4782TIP3    H214304   2.499   0.434   2.271  0.1861 -1.7980 -1.3849
 4783TIP3   OH214305   1.614   0.211   5.309 -0.6751 -0.1958  0.1844
 4783TIP3    H114306   1.577   0.204   5.221 -0.0352  0.4620 -0.1542
 4783TIP3    H214307   1.553   0.163   5.365 -0.5559 -1.5050 -0.7658
 4784TIP3   OH214308   5.273   2.232   6.397 -0.0924 -0.2826  0.7373
 4784TIP3    H114309   5.366   2.209   6.398  0.4007  1.2981 -1.5652
 4784TIP3    H214310   5.229   2.152   6.368  0.7852 -0.4362 -0.2160
 4785TIP3   OH214311   5.347   4.571   3.965  0.2264 -0.2655 -0.2665
 4785TIP3    H114312   5.403   4.539   3.894 -0.9045  2.1025 -2.3511
 4785TIP3    H214313   5.406   4.621   4.021  0.7304 -0.2795 -0.7735
 4786TIP3   OH214314   5.266   0.092   2.318  0.4267  0.3133 -0.3533
 4786TIP3    H114315   5.297   0.057   2.402  1.1846 -1.4333 -1.3023
 4786TIP3    H214316   5.279   0.186   2.326  1.8245  0.0651  0.9826
 4787TIP3   OH214317   0.047   0.771   5.638  0.1609 -0.0495 -0.4749
 4787TIP3    H114318  -0.016   0.700   5.648  1.2058 -0.8860  0.3547
 4787TIP3    H214319   0.039   0.822   5.719  0.1412  0.1849 -0.6232
 4788TIP3   OH214320   2.580   1.688   1.377 -0.1135  0.6472  0.1721
 4788TIP3    H114321   2.517   1.649   1.317 -0.9896  0.5506  1.1161
 4788TIP3    H214322   2.553   1.780   1.384  0.2382  0.7576  0.0969
 4789TIP3   OH214323   0.222   4.248   5.370  0.2287 -0.3133 -0.5870
 4789TIP3    H114324   0.175   4.332   5.374 -0.6467 -0.8468  0.9086
 4789TIP3    H214325   0.240   4.226   5.461  0.9604 -1.5000 -0.9947
 4790TIP3   OH214326   4.830   5.341   5.137 -0.6533 -0.1583 -0.1553
 4790TIP3    H114327   4.804   5.425   5.098 -1.8213 -0.0719  0.7432
 4790TIP3    H214328   4.755   5.316   5.191 -0.3307 -1.8037 -0.4281
 4791TIP3   OH214329   2.369   4.608   4.889 -0.0315 -0.3948  0.4664
 4791TIP3    H114330   2.458   4.635   4.912 -0.0360  0.3218 -0.2957
 4791TIP3    H214331   2.314   4.683   4.912 -0.4012 -0.7340  0.6925
 4792TIP3   OH214332   5.728   3.370   4.309  0.2041  0.1589  0.3497
 4792TIP3    H114333   5.663   3.419   4.259 -1.7281 -2.3582  0.2174
 4792TIP3    H214334   5.804   3.363   4.250 -0.3306  1.0439 -0.4642
 4793TIP3   OH214335   6.257   3.779   6.591  0.5762 -0.4017 -1.0144
 4793TIP3    H114336   6.260   3.692   6.631 -0.4140  0.1595  0.3440
 4793TIP3    H214337   6.164   3.799   6.583  0.7951  0.6116 -1.1507
 4794TIP3   OH214338   1.021   2.138   5.590 -0.1011 -0.2022  0.2300
 4794TIP3    H114339   0.942   2.174   5.550 -1.1339 -1.9820  0.5662
 4794TIP3    H214340   1.054   2.074   5.527  1.1414  0.5610  0.0628
 4795TIP3   OH214341   4.533   3.867   0.632 -0.5843 -0.6649  0.3063
 4795TIP3    H114342   4.622   3.831   0.622  0.3211  1.0246  1.6764
 4795TIP3    H214343   4.530   3.940   0.570 -1.3350 -1.2176 -0.3256
 4796TIP3   OH214344   5.778   7.294   2.204 -0.1163 -0.0400  0.1105
 4796TIP3    H114345   5.739   7.381   2.209 -3.1099 -1.2872  0.9163
 4796TIP3    H214346   5.751   7.261   2.118 -0.3875 -0.7102  0.4447
 4797TIP3   OH214347   0.192   4.574   1.326 -0.4687 -0.5997  0.0798
 4797TIP3    H114348   0.258   4.573   1.396  0.4954  1.7108 -0.6888
 4797TIP3    H214349   0.239   4.544   1.249 -0.8747 -0.8507 -0.0713
 4798TIP3   OH214350   5.542   4.526   4.674  0.1098  0.1240 -0.1068
 4798TIP3    H114351   5.567   4.433   4.665  0.5077 -0.0961  2.5108
 4798TIP3    H214352   5.624   4.574   4.664 -0.0353  0.1760 -1.0924
 4799TIP3   OH214353   3.332   3.808   1.262 -0.0286 -0.3049  0.1631
 4799TIP3    H114354   3.246   3.824   1.301  0.0204 -0.0794  0.1801
 4799TIP3    H214355   3.356   3.891   1.221 -0.4249 -0.7538 -1.0227
 4800TIP3   OH214356   0.895   4.586   5.223  0.7969  0.0725 -0.1291
 4800TIP3    H114357   0.818   4.531   5.238 -0.1044  1.3648  0.1170
 4800TIP3    H214358   0.940   4.545   5.149  0.7968 -1.6492  0.7738
 4801TIP3   OH214359   6.205   6.562   4.448  0.1861  0.2623  0.2349
 4801TIP3    H114360   6.128   6.596   4.493 -1.0067 -1.8198 -0.0803
 4801TIP3    H214361   6.255   6.518   4.518 -0.4463 -0.9172 -0.0359
 4802TIP3   OH214362   6.551   1.104   5.050 -0.0620  0.0537  0.5390
 4802TIP3    H114363   6.616   1.088   4.982  1.3165  0.7890  1.6362
 4802TIP3    H214364   6.477   1.049   5.025  0.1993  0.6663 -1.7928
 4803TIP3   OH214365   3.886   0.153   5.573  0.1044  0.7890 -0.6096
 4803TIP3    H114366   3.953   0.212   5.539  0.7013  0.4070 -0.1325
 4803TIP3    H214367   3.885   0.171   5.667 -1.2590  1.5793 -0.7666
 4804TIP3   OH214368   4.547   0.884   5.543 -0.1616  0.2331  0.6281
 4804TIP3    H114369   4.531   0.877   5.449  1.3918  0.7603  0.3052
 4804TIP3    H214370   4.516   0.971   5.567  0.1881  0.4056  0.4486
 4805TIP3   OH214371   3.222   2.328   2.921 -0.0314  0.0531  0.3163
 4805TIP3    H114372   3.153   2.340   2.856 -0.1510 -1.9681  0.0149
 4805TIP3    H214373   3.281   2.403   2.908 -2.3050  2.0631  0.8526
 4806TIP3   OH214374   1.117   4.073   5.789  0.6679  0.1990 -0.0553
 4806TIP3    H114375   1.023   4.062   5.774  0.1727  1.0900  1.9925
 4806TIP3    H214376   1.145   4.135   5.722 -0.3934  0.5532 -0.1976
 4807TIP3   OH214377   5.204   2.773   4.680  0.7659  0.6282 -0.4300
 4807TIP3    H114378   5.231   2.852   4.633 -1.6351  1.0072 -1.3552
 4807TIP3    H214379   5.232   2.701   4.624 -0.2843  1.0099 -1.5050
 4808TIP3   OH214380   2.079   2.416   2.476 -0.0491  0.4710 -0.4424
 4808TIP3    H114381   2.063   2.390   2.567  0.2987  0.8966 -0.2564
 4808TIP3    H214382   2.103   2.335   2.432  0.8863  0.4438  0.1010
 4809TIP3   OH214383   2.043   2.164   3.255  0.4255 -0.5480  0.2535
 4809TIP3    H114384   2.119   2.123   3.216  0.4681 -0.3412  0.1199
 4809TIP3    H214385   2.055   2.152   3.350  2.0822  1.9499  0.4617
 4810TIP3   OH214386   1.203   0.539   5.677 -0.8600 -0.0412  0.2026
 4810TIP3    H114387   1.161   0.453   5.678 -0.2519 -0.3479  0.0581
 4810TIP3    H214388   1.179   0.576   5.592  0.5045 -0.9130 -0.6082
 4811TIP3   OH214389   6.831   0.409   6.646  0.0648  0.4143  0.3360
 4811TIP3    H114390   6.854   0.444   6.560  0.8019 -0.3414  0.2210
 4811TIP3    H214391   6.801   0.320   6.628  3.0639 -0.8577  1.1285
 4812TIP3   OH214392   3.693   5.091   6.294  0.4889 -0.5623 -0.4105
 4812TIP3    H114393   3.715   5.156   6.228 -1.7321  1.0716  0.3115
 4812TIP3    H214394   3.603   5.067   6.274 -0.2276 -0.0789  1.8783
 4813TIP3   OH214395   7.747   7.732   5.999 -0.5764 -0.3867 -0.1881
 4813TIP3    H114396   7.722   7.649   5.957 -0.9031 -0.4106  0.0474
 4813TIP3    H214397   7.786   7.784   5.929 -1.1449 -0.4169 -0.5309
 4814TIP3   OH214398   4.105   7.137   5.447 -0.0949  0.7953 -0.1469
 4814TIP3    H114399   4.110   7.232   5.455  2.1058  0.7846 -0.6993
 4814TIP3    H214400   4.179   7.114   5.391  0.2601 -1.3587  1.0902
 4815TIP3   OH214401   5.125   2.337   5.514 -0.1268 -0.4753  0.1724
 4815TIP3    H114402   5.056   2.372   5.459  0.4417 -0.0599 -0.2880
 4815TIP3    H214403   5.187   2.409   5.524  0.6615 -1.0943 -0.1302
 4816TIP3   OH214404   5.004   7.620   4.996  0.1251 -0.3334  0.4943
 4816TIP3    H114405   5.076   7.617   5.058  0.8843 -0.3720 -0.3644
 4816TIP3    H214406   5.043   7.592   4.913 -1.1338 -1.4972  0.2484
 4817TIP3   OH214407   5.253   4.412   2.305 -0.3733 -0.2033  0.0053
 4817TIP3    H114408   5.302   4.348   2.254 -0.8036  0.0244 -0.7027
 4817TIP3    H214409   5.243   4.487   2.247 -0.1582  0.3846  0.7173
 4818TIP3   OH214410   5.709   0.942   4.064 -0.5116 -0.0277  0.0347
 4818TIP3    H114411   5.738   0.884   4.134 -0.4974  0.6044  0.5714
 4818TIP3    H214412   5.652   0.889   4.010 -1.0834 -0.3459  0.9321
 4819TIP3   OH214413   1.563   6.693   2.668  0.0971  0.2009 -0.1131
 4819TIP3    H114414   1.596   6.743   2.743  4.0200 -0.1429 -1.3809
 4819TIP3    H214415   1.557   6.757   2.597 -0.7698 -0.0191 -0.2465
 4820TIP3   OH214416   0.393   7.313   5.732 -0.1354  0.5665  0.2918
 4820TIP3    H114417   0.424   7.397   5.766 -0.5594  0.5527  0.7254
 4820TIP3    H214418   0.465   7.282   5.676  0.4157  0.7792  0.8602
 4821TIP3   OH214419   6.615   2.545   2.733 -0.4107 -0.1908  0.3615
 4821TIP3    H114420   6.525   2.533   2.760 -0.4203 -0.2010  0.3251
 4821TIP3    H214421   6.652   2.605   2.798 -0.9150  1.1806 -0.5595
 4822TIP3   OH214422   7.991   0.960   4.846 -0.2612 -0.1667  0.0191
 4822TIP3    H114423   8.025   0.981   4.759 -1.3720 -0.6469 -0.5508
 4822TIP3    H214424   7.933   1.033   4.867 -0.7964 -0.5473 -0.1058
 4823TIP3   OH214425   2.497   2.582   2.005  0.6161  0.5172 -0.4012
 4823TIP3    H114426   2.503   2.551   2.095  0.2419  0.3154 -0.4408
 4823TIP3    H214427   2.587   2.584   1.973  0.6068 -1.4865 -0.7093
 4824TIP3   OH214428   1.721   6.204   3.418  0.2612 -0.1571  0.0158
 4824TIP3    H114429   1.676   6.287   3.436 -1.2845 -0.5155 -1.8564
 4824TIP3    H214430   1.675   6.140   3.471  1.6338  0.1495  1.6795
 4825TIP3   OH214431   5.595   3.129   5.846 -0.0327 -0.1467 -0.0671
 4825TIP3    H114432   5.532   3.196   5.819 -0.0281  0.5047  1.3874
 4825TIP3    H214433   5.678   3.159   5.810 -0.1895  0.1416 -0.1993
 4826TIP3   OH214434   1.043   2.784   1.976 -0.1719  0.2286 -0.1875
 4826TIP3    H114435   1.091   2.717   1.928  0.3273  0.4339  0.0215
 4826TIP3    H214436   0.970   2.808   1.918 -1.4219 -1.7510  0.4548
 4827TIP3   OH214437   7.716   4.189   4.511  0.3584 -0.8331 -0.3480
 4827TIP3    H114438   7.800   4.176   4.466 -0.0112 -2.4023 -0.6728
 4827TIP3    H214439   7.732   4.158   4.600  0.5837  0.5266  0.0988
 4828TIP3   OH214440   6.909   6.442   4.563  0.0763  0.0387 -0.1369
 4828TIP3    H114441   6.844   6.490   4.510 -0.7092 -0.5390  0.2831
 4828TIP3    H214442   6.988   6.443   4.509  0.4370  2.7213  0.2886
 4829TIP3   OH214443   3.240   6.520   5.157 -0.5763  0.3307 -0.3805
 4829TIP3    H114444   3.186   6.558   5.087 -0.3125 -0.0317 -0.7888
 4829TIP3    H214445   3.179   6.507   5.229 -1.2064 -0.6679 -1.0520
 4830TIP3   OH214446   2.737   6.195   5.351  0.1128  0.1322  0.1506
 4830TIP3    H114447   2.831   6.194   5.330 -0.0590  2.5691 -1.0796
 4830TIP3    H214448   2.725   6.272   5.406 -0.9846 -0.9443  1.4679
 4831TIP3   OH214449   2.198   5.731   2.434  0.1167 -0.7613  0.1306
 4831TIP3    H114450   2.164   5.665   2.373  1.6100 -1.2628 -0.2105
 4831TIP3    H214451   2.283   5.756   2.397  0.4872 -0.1400  1.3500
 4832TIP3   OH214452   4.208   5.168   4.761  0.2888 -0.5452  0.3907
 4832TIP3    H114453   4.168   5.081   4.757 -0.6162 -0.1731  0.9063
 4832TIP3    H214454   4.148   5.224   4.712  1.0375 -0.2617 -0.2236
 4833TIP3   OH214455   3.792   7.263   2.143  0.2704 -0.5648  0.2532
 4833TIP3    H114456   3.873   7.295   2.103 -0.1567 -0.2310 -0.3689
 4833TIP3    H214457   3.744   7.342   2.168  0.0128 -0.7524  0.3605
 4834TIP3   OH214458   1.884   7.460   5.985 -0.2576  0.0852  0.1700
 4834TIP3    H114459   1.933   7.518   6.044  0.6769 -1.7548  1.2958
 4834TIP3    H214460   1.795   7.460   6.020 -0.6229  1.7957 -0.6251
 4835TIP3   OH214461   2.991   2.589   5.138  0.3675 -0.0728  0.3403
 4835TIP3    H114462   2.924   2.647   5.174 -1.4055 -1.5401 -0.4218
 4835TIP3    H214463   3.060   2.588   5.204 -0.2898  1.5862  1.1075
 4836TIP3   OH214464   1.655   7.320   4.225  0.1423 -0.9864 -0.3297
 4836TIP3    H114465   1.627   7.291   4.138 -1.6999 -0.9059  0.1961
 4836TIP3    H214466   1.734   7.373   4.209 -0.2192 -0.8942 -1.9418
 4837TIP3   OH214467   1.119   5.069   2.167  0.2910 -0.0133 -0.1373
 4837TIP3    H114468   1.115   5.124   2.246 -1.5202 -1.0140  0.5251
 4837TIP3    H214469   1.050   5.104   2.110 -0.2195 -0.9645 -0.1208
 4838TIP3   OH214470   1.247   0.277   5.486 -0.6095 -0.2086 -0.4377
 4838TIP3    H114471   1.200   0.237   5.559 -1.7308 -1.5054 -1.8296
 4838TIP3    H214472   1.179   0.318   5.433  0.2425  1.1504 -0.5284
 4839TIP3   OH214473   3.983   6.527   5.643 -0.1011 -0.3789 -0.1571
 4839TIP3    H114474   3.916   6.494   5.583  0.0265  0.8797 -1.0339
 4839TIP3    H214475   4.066   6.510   5.598  0.0541 -0.3697  0.1259
 4840TIP3   OH214476   0.909   0.532   4.960 -0.2277  0.7942 -0.0121
 4840TIP3    H114477   0.975   0.546   4.892  0.4064  0.1755  0.4668
 4840TIP3    H214478   0.853   0.463   4.926  0.7949 -0.3640  0.5679
 4841TIP3   OH214479   0.524   7.721   5.340  0.3503  0.1277  0.7364
 4841TIP3    H114480   0.602   7.718   5.395 -0.4346 -0.6141  1.8649
 4841TIP3    H214481   0.517   7.812   5.313  1.8974  0.0990  0.1528
 4842TIP3   OH214482   1.441   1.422   4.800 -0.3269  0.0758  0.2790
 4842TIP3    H114483   1.462   1.350   4.741 -1.2721  0.1714 -0.1926
 4842TIP3    H214484   1.511   1.486   4.785 -1.1259  0.6048 -1.6152
 4843TIP3   OH214485   6.596   2.063   3.662 -0.0757  0.2776  0.3332
 4843TIP3    H114486   6.617   1.984   3.712 -0.2706  0.5546  0.8674
 4843TIP3    H214487   6.500   2.068   3.663 -0.0745  0.3819  0.0793
 4844TIP3   OH214488   0.530   2.249   4.114 -0.1730 -0.4930  0.1223
 4844TIP3    H114489   0.621   2.237   4.140  0.5696  1.1026 -1.5199
 4844TIP3    H214490   0.482   2.259   4.196  1.7413  2.3429  1.0279
 4845TIP3   OH214491   0.486   5.581   1.205 -0.0390 -0.2212  0.5259
 4845TIP3    H114492   0.529   5.501   1.175  0.0477 -0.3372  0.9484
 4845TIP3    H214493   0.486   5.574   1.300 -2.1131 -0.8211  0.5405
 4846TIP3   OH214494   1.091   0.197   0.984 -0.2904 -0.0798  0.0742
 4846TIP3    H114495   1.178   0.173   0.951 -0.5608 -0.5205 -0.3415
 4846TIP3    H214496   1.032   0.175   0.912 -0.5626  1.9304 -0.3820
 4847TIP3   OH214497   3.796   2.396   1.938  0.0270 -0.2693  0.1246
 4847TIP3    H114498   3.712   2.424   1.902  0.8160  2.7196  0.3010
 4847TIP3    H214499   3.861   2.440   1.884  1.4469 -1.2152  0.9947
 4848TIP3   OH214500   5.122   4.174   0.451 -0.3681 -1.1654  0.0174
 4848TIP3    H114501   5.161   4.147   0.368 -0.2444 -3.3341  0.7103
 4848TIP3    H214502   5.192   4.160   0.515 -0.4804  0.4148  0.5172
 4849TIP3   OH214503   7.247   3.386   0.133 -0.1529 -0.2019  0.4776
 4849TIP3    H114504   7.224   3.293   0.123 -0.7692 -0.0542  0.4873
 4849TIP3    H214505   7.196   3.431   0.065  1.6879 -0.0859 -0.8934
 4850TIP3   OH214506   7.821   0.073   6.547 -0.0454  0.3398 -0.8244
 4850TIP3    H114507   7.879   0.087   6.622 -0.6299 -0.7606 -0.1242
 4850TIP3    H214508   7.809  -0.022   6.545 -0.7730  0.4429 -1.7586
 4851TIP3   OH214509   0.692   0.395   2.303  0.1679 -0.0192  0.3982
 4851TIP3    H114510   0.603   0.361   2.308 -0.3871  1.3192 -0.0809
 4851TIP3    H214511   0.717   0.409   2.395 -0.3857  0.2708  0.5109
 4852TIP3   OH214512   6.883   0.926   0.336 -0.0715 -0.0958  0.3747
 4852TIP3    H114513   6.946   0.967   0.396  1.3921 -0.9462 -0.5239
 4852TIP3    H214514   6.870   0.991   0.267  1.4272 -0.6833 -0.4961
 4853TIP3   OH214515   1.012   6.269   5.455 -0.1861  0.5502 -0.3209
 4853TIP3    H114516   1.027   6.340   5.393  2.0959 -0.0914 -0.6264
 4853TIP3    H214517   1.009   6.312   5.540 -0.1943  1.1435 -0.6124
 4854TIP3   OH214518   3.719   7.165   5.399  0.8007  0.6868 -0.5917
 4854TIP3    H114519   3.772   7.191   5.323  2.3655  0.0824  0.2464
 4854TIP3    H214520   3.742   7.229   5.467  0.1285  0.6514 -0.3185
 4855TIP3   OH214521   6.382   3.524   6.099  0.2731 -0.0219 -0.2734
 4855TIP3    H114522   6.353   3.436   6.123  2.0725 -0.5327  0.1874
 4855TIP3    H214523   6.388   3.522   6.004 -0.3453 -0.1623 -0.3148
 4856TIP3   OH214524   4.227   6.855   0.206 -0.3601  0.1643  0.7301
 4856TIP3    H114525   4.208   6.769   0.242  0.1259  0.4563  1.7010
 4856TIP3    H214526   4.314   6.876   0.238  0.0590  0.4740 -0.5532
 4857TIP3   OH214527   4.365   3.614   5.879  0.3255  0.5721 -0.7097
 4857TIP3    H114528   4.418   3.670   5.823 -0.0347 -0.5296 -2.2131
 4857TIP3    H214529   4.282   3.660   5.887  1.0596  1.7557  0.7301
 4858TIP3   OH214530   3.583   6.636   5.786 -0.0214 -0.6112 -0.4767
 4858TIP3    H114531   3.577   6.708   5.848  0.2227 -0.3193 -0.7916
 4858TIP3    H214532   3.675   6.633   5.761 -0.1375 -0.6686 -0.9002
 4859TIP3   OH214533   4.861   2.789   3.289  0.3054 -0.4248 -0.1622
 4859TIP3    H114534   4.882   2.701   3.258 -0.7879 -0.7848  0.0859
 4859TIP3    H214535   4.833   2.776   3.380  0.1876  0.1875 -0.1071
 4860TIP3   OH214536   2.207   6.303   4.890 -0.3747 -0.2436  0.0988
 4860TIP3    H114537   2.296   6.290   4.923 -0.5937  0.8168  1.2031
 4860TIP3    H214538   2.207   6.263   4.803  1.3445  0.2066 -0.1482
 4861TIP3   OH214539   6.573   3.436   4.949 -0.8068 -0.0199 -0.5888
 4861TIP3    H114540   6.529   3.362   4.906  0.9800 -2.0192  0.7831
 4861TIP3    H214541   6.506   3.473   5.007 -1.7210 -0.6450 -1.2214
 4862TIP3   OH214542   6.470   4.505   4.040 -0.1442  0.3147 -0.9151
 4862TIP3    H114543   6.415   4.426   4.040  0.0651  0.0654  2.3040
 4862TIP3    H214544   6.415   4.571   4.082  0.3602  1.3991 -1.9325
 4863TIP3   OH214545   6.500   1.519   3.049 -0.4628  0.6005 -0.5000
 4863TIP3    H114546   6.485   1.596   3.105  2.3633  1.4512 -0.7387
 4863TIP3    H214547   6.532   1.452   3.109 -1.7624 -0.0418 -0.4851
 4864TIP3   OH214548   1.984   2.499   1.748 -0.2897  0.5974 -0.0053
 4864TIP3    H114549   1.991   2.552   1.828  0.5105  2.5563 -1.2831
 4864TIP3    H214550   1.935   2.554   1.688  1.1924  0.2191 -1.6438
 4865TIP3   OH214551   1.551   5.819   5.290 -0.2342 -0.2425  0.3196
 4865TIP3    H114552   1.466   5.786   5.259 -0.4367  0.1034  0.4995
 4865TIP3    H214553   1.529   5.870   5.368  0.2151 -0.7212  0.7735
 4866TIP3   OH214554   8.063   1.896   0.775  0.1419  0.1050  0.6558
 4866TIP3    H114555   8.088   1.910   0.684  0.9760 -0.2886  0.8190
 4866TIP3    H214556   8.111   1.817   0.802 -0.5152 -0.0958  1.2733
 4867TIP3   OH214557   5.308   2.371   6.713 -0.3364 -0.7765  0.2663
 4867TIP3    H114558   5.292   2.443   6.653 -2.5459 -1.7108 -0.3613
 4867TIP3    H214559   5.401   2.350   6.700  0.6232  2.4058  1.0954
 4868TIP3   OH214560   2.516   5.536   2.624  0.6505  0.3676  0.1699
 4868TIP3    H114561   2.462   5.501   2.553  0.9182  0.0615  0.1127
 4868TIP3    H214562   2.533   5.626   2.599  0.6109  0.3088 -0.0773
 4869TIP3   OH214563   2.312   0.837   2.306 -0.2765 -0.1879 -0.3107
 4869TIP3    H114564   2.354   0.779   2.242 -0.8798 -1.4958  0.4397
 4869TIP3    H214565   2.378   0.849   2.374  0.3451  1.1580 -1.1079
 4870TIP3   OH214566   0.704   1.037   5.213 -0.4288  0.0219  0.2670
 4870TIP3    H114567   0.681   1.129   5.204 -1.2982 -0.3650 -2.0163
 4870TIP3    H214568   0.627   0.990   5.181  0.5042 -1.4723  0.1228
 4871TIP3   OH214569   8.245   6.717   3.481  0.2033 -0.6027  0.1908
 4871TIP3    H114570   8.265   6.686   3.570 -0.0420  0.0496  0.4888
 4871TIP3    H214571   8.292   6.801   3.475 -0.1648 -0.4160 -0.1207
 4872TIP3   OH214572   5.325   7.438   4.408 -0.0131  0.5116 -0.2283
 4872TIP3    H114573   5.314   7.503   4.477 -1.4124 -1.3952  1.4676
 4872TIP3    H214574   5.295   7.482   4.329  1.3319  2.6710  0.3706
 4873TIP3   OH214575   7.187   1.349   6.631  0.2562  0.0041  0.1744
 4873TIP3    H114576   7.261   1.403   6.603  0.8264 -0.1629  1.2937
 4873TIP3    H214577   7.224   1.288   6.695 -0.8666  0.0451  0.9028
 4874TIP3   OH214578   0.950   2.831   4.412 -0.1596  0.4651  0.2702
 4874TIP3    H114579   0.885   2.867   4.351 -2.3593 -0.7785  1.7385
 4874TIP3    H214580   0.970   2.744   4.377  0.9872  0.9560 -0.3357
 4875TIP3   OH214581   6.344   4.636   0.446 -0.3403  0.1546  0.1082
 4875TIP3    H114582   6.347   4.721   0.402  2.2158 -0.9786 -2.1493
 4875TIP3    H214583   6.366   4.573   0.378  0.6127 -2.0600  2.3322
 4876TIP3   OH214584   2.174   3.833   5.936 -1.0931  0.2959  0.2490
 4876TIP3    H114585   2.197   3.908   5.880 -2.5624  0.1279 -0.6491
 4876TIP3    H214586   2.108   3.868   5.996 -0.0180  0.3011  1.4517
 4877TIP3   OH214587   4.224   7.688   5.320  0.1900 -0.7384 -0.1027
 4877TIP3    H114588   4.280   7.720   5.390  1.2732  3.5483 -2.5971
 4877TIP3    H214589   4.249   7.596   5.310  3.1839 -0.3233  2.1975
 4878TIP3   OH214590   7.040   7.017   0.465  0.4108 -0.2385 -0.5345
 4878TIP3    H114591   7.032   6.940   0.521 -0.3417  0.6790  0.6786
 4878TIP3    H214592   7.097   6.989   0.393  1.4563 -1.4496  0.7120
 4879TIP3   OH214593   2.899   1.350   5.612  0.6631 -0.1979  0.8683
 4879TIP3    H114594   2.910   1.314   5.524  0.0954 -1.2953  1.2280
 4879TIP3    H214595   2.934   1.439   5.606 -0.6199  0.2614 -0.8294
 4880TIP3   OH214596   7.119   7.786   3.160 -0.4697  0.3210  0.3769
 4880TIP3    H114597   7.161   7.815   3.078  0.1628 -1.1774  0.1184
 4880TIP3    H214598   7.039   7.837   3.166 -0.8714 -0.0121 -1.5523
 4881TIP3   OH214599   1.822   6.071   6.403  0.5120 -0.1396 -0.5504
 4881TIP3    H114600   1.882   6.004   6.370 -1.4557 -0.7135 -3.2725
 4881TIP3    H214601   1.855   6.153   6.367 -0.9920 -0.6308 -3.3508
 4882TIP3   OH214602   7.663   3.004   1.497 -0.1972  0.0181 -0.1277
 4882TIP3    H114603   7.575   2.983   1.464 -0.2237 -0.6238  0.3309
 4882TIP3    H214604   7.650   3.022   1.590  0.3661 -1.6922  0.3265
 4883TIP3   OH214605   4.354   7.352   5.649  0.4309 -0.4427  0.6495
 4883TIP3    H114606   4.440   7.395   5.642 -0.2288  0.8735  0.1873
 4883TIP3    H214607   4.314   7.391   5.726 -0.8061  1.0199 -0.6518
 4884TIP3   OH214608   4.673   7.354   0.699 -0.1918  0.4974 -0.1552
 4884TIP3    H114609   4.625   7.271   0.707 -0.8775  1.0152  1.4542
 4884TIP3    H214610   4.758   7.329   0.663 -1.9839 -0.3238 -4.4814
 4885TIP3   OH214611   7.171   7.231   6.131 -0.0106  0.1025 -0.1660
 4885TIP3    H114612   7.147   7.268   6.216 -0.1157  0.5843 -0.4014
 4885TIP3    H214613   7.096   7.178   6.105 -0.2811  0.5495 -0.2982
 4886TIP3   OH214614   0.294   2.886   2.346 -0.7697 -0.1392 -0.1376
 4886TIP3    H114615   0.271   2.938   2.422  0.3221  1.5537 -0.9073
 4886TIP3    H214616   0.365   2.935   2.304 -0.7484 -1.4710 -1.7588
 4887TIP3   OH214617   0.299   6.890   1.550  0.5256 -0.4134 -0.0620
 4887TIP3    H114618   0.297   6.794   1.549 -0.6697 -0.4080 -0.6642
 4887TIP3    H214619   0.271   6.913   1.639 -0.9719 -0.6396 -0.4459
 4888TIP3   OH214620   4.070   1.524   4.051 -0.1648 -0.1548 -0.2233
 4888TIP3    H114621   4.036   1.538   4.140  1.3389  0.7053  0.2502
 4888TIP3    H214622   4.024   1.588   3.997 -0.0980  0.2464  0.1935
 4889TIP3   OH214623   5.748   4.584   5.373 -0.1106 -0.0000  0.0611
 4889TIP3    H114624   5.710   4.660   5.328 -0.8886 -0.5775 -0.2754
 4889TIP3    H214625   5.736   4.511   5.312  0.2950 -0.4719  0.5388
 4890TIP3   OH214626   3.249   2.723   0.920  0.2877 -0.0590 -0.3208
 4890TIP3    H114627   3.245   2.818   0.906 -1.1928  0.3109  2.0916
 4890TIP3    H214628   3.177   2.705   0.981  0.4392 -2.7801 -0.8501
 4891TIP3   OH214629   4.904   5.983   0.175  0.0323  0.0436  0.2912
 4891TIP3    H114630   4.887   6.072   0.143 -0.3308 -0.1799 -0.1566
 4891TIP3    H214631   4.829   5.962   0.230  0.6487  0.4209  1.2993
 4892TIP3   OH214632   4.261   2.935   3.844  0.0225 -0.6252  0.1092
 4892TIP3    H114633   4.250   3.019   3.889 -2.2342 -1.0040  0.3835
 4892TIP3    H214634   4.341   2.899   3.880  1.7471  1.8977 -0.8733
 4893TIP3   OH214635   7.998   7.357   1.084  0.6952  0.6062  0.1416
 4893TIP3    H114636   7.986   7.381   0.992  0.9807 -0.7546 -0.2659
 4893TIP3    H214637   8.053   7.279   1.082  0.0374  0.0746  1.4317
 4894TIP3   OH214638   0.813   2.451   4.711 -0.5796  0.2850 -0.0571
 4894TIP3    H114639   0.729   2.480   4.674 -1.4404 -1.2227  0.5977
 4894TIP3    H214640   0.803   2.463   4.805 -0.7621 -1.4654  0.1892
 4895TIP3   OH214641   4.401   6.420   4.986  0.1360 -0.3034  0.0253
 4895TIP3    H114642   4.370   6.509   5.002  0.4359 -0.1830 -0.0395
 4895TIP3    H214643   4.402   6.378   5.072 -0.6303 -0.4535 -0.0377
 4896TIP3   OH214644   4.289   4.608   4.340  0.9697 -0.1365  0.0595
 4896TIP3    H114645   4.301   4.538   4.404 -3.3194 -1.5412 -0.3259
 4896TIP3    H214646   4.331   4.576   4.260  1.3386 -1.0596  0.6102
 4897TIP3   OH214647   5.561   4.562   2.722  0.3934 -0.6947 -0.0030
 4897TIP3    H114648   5.502   4.533   2.653  1.2946  0.2632 -1.2096
 4897TIP3    H214649   5.529   4.648   2.748 -0.5496 -1.4524  1.5470
 4898TIP3   OH214650   2.126   7.287   2.609 -0.2741  0.0370 -0.3148
 4898TIP3    H114651   2.186   7.334   2.666 -0.4399  0.4867 -0.5069
 4898TIP3    H214652   2.183   7.239   2.548 -0.1115  0.5860 -0.5965
 4899TIP3   OH214653   4.143   1.084   0.064  0.1308 -0.1397 -0.0125
 4899TIP3    H114654   4.104   1.112  -0.019 -0.2711  0.6965  0.4514
 4899TIP3    H214655   4.100   1.138   0.130  0.1174 -1.1162  0.7949
 4900TIP3   OH214656   6.328   6.743   1.704  0.3973  0.1168  0.3143
 4900TIP3    H114657   6.422   6.762   1.703  0.1884  1.2602 -0.4679
 4900TIP3    H214658   6.321   6.652   1.675  1.2442  0.1352  0.0267
 4901TIP3   OH214659   4.109   3.259   1.412  0.1280 -0.3271  0.2768
 4901TIP3    H114660   4.114   3.167   1.384 -0.6826 -0.2360 -0.1919
 4901TIP3    H214661   4.186   3.300   1.372  0.3765 -0.7475  0.3114
 4902TIP3   OH214662   7.257   7.545   3.881  0.4466 -0.4911 -0.5512
 4902TIP3    H114663   7.272   7.542   3.786  1.0742 -6.0370 -0.6333
 4902TIP3    H214664   7.339   7.511   3.919  0.3085  1.8239  2.1304
 4903TIP3   OH214665   6.614   6.801   1.752 -0.3033  0.4523  0.3159
 4903TIP3    H114666   6.687   6.740   1.764 -0.0536  0.9654  1.4471
 4903TIP3    H214667   6.656   6.884   1.728 -0.1262  1.7981  4.5014
 4904TIP3   OH214668   1.175   2.885   0.983  0.2371 -0.4964 -0.0698
 4904TIP3    H114669   1.248   2.928   1.027 -1.2929  1.9468  0.3218
 4904TIP3    H214670   1.139   2.825   1.049 -0.9869  1.8639  1.5588
 4905TIP3   OH214671   4.277   0.921   2.352  0.4761  0.1800 -0.4402
 4905TIP3    H114672   4.206   0.969   2.310 -0.3634  0.0478  0.7948
 4905TIP3    H214673   4.350   0.928   2.290 -1.1010 -1.2504 -2.6235
 4906TIP3   OH214674   4.685   0.009   0.540  0.3477 -0.3653 -0.0022
 4906TIP3    H114675   4.673   0.013   0.445  0.7679 -1.1921 -0.1037
 4906TIP3    H214676   4.670   0.098   0.570  1.9972  0.3062 -1.0573
 4907TIP3   OH214677   7.440   1.893   4.112 -0.2201  0.4295  0.3077
 4907TIP3    H114678   7.364   1.949   4.125  0.1458  0.8734  0.5608
 4907TIP3    H214679   7.474   1.917   4.026 -1.0841 -0.6435 -0.3594
 4908TIP3   OH214680   3.767   1.728   6.707 -0.5207  0.4262 -0.4208
 4908TIP3    H114681   3.695   1.708   6.647 -1.6422 -1.1736  1.3325
 4908TIP3    H214682   3.815   1.799   6.664 -0.9631 -0.9104 -3.3925
 4909TIP3   OH214683   4.912   3.325   0.528  0.3452 -0.4457 -0.2090
 4909TIP3    H114684   4.981   3.350   0.467 -0.6890  1.3118 -0.7474
 4909TIP3    H214685   4.832   3.327   0.475 -0.7251  2.1324  1.3487
 4910TIP3   OH214686   3.961   3.721   3.759  0.2093 -0.3439  0.1280
 4910TIP3    H114687   3.948   3.630   3.783  1.2538 -0.5699 -0.1069
 4910TIP3    H214688   4.045   3.745   3.799 -0.7251  0.9671  1.4271
 4911TIP3   OH214689   5.488   5.603   3.675  0.4991  0.4618  0.6042
 4911TIP3    H114690   5.519   5.676   3.729  2.8493 -0.1830  0.2376
 4911TIP3    H214691   5.431   5.643   3.610  0.4992  1.7364  1.3543
 4912TIP3   OH214692   2.922   2.551   6.633 -0.3721 -0.1465  0.4030
 4912TIP3    H114693   2.923   2.581   6.724 -2.1344  1.8064 -0.1436
 4912TIP3    H214694   2.923   2.631   6.581  2.0852 -1.2124 -1.4069
 4913TIP3   OH214695   3.459   3.645   3.068 -0.1198  0.2912 -0.0691
 4913TIP3    H114696   3.378   3.665   3.115  0.9171  1.2179  1.4106
 4913TIP3    H214697   3.455   3.700   2.990 -1.8154 -1.1773 -1.0973
 4914TIP3   OH214698   1.415   0.455   3.659  0.0907  0.4988  0.1297
 4914TIP3    H114699   1.432   0.546   3.636 -3.3677  1.1480 -0.3366
 4914TIP3    H214700   1.326   0.438   3.629  1.1895 -3.6644 -1.4870
 4915TIP3   OH214701   4.043   6.109   2.091 -0.2671 -0.1714  0.2994
 4915TIP3    H114702   4.129   6.079   2.120 -0.0254  0.1425 -0.0854
 4915TIP3    H214703   4.050   6.205   2.092  0.1660 -0.1244 -1.9585
 4916TIP3   OH214704   3.833   4.051   0.580 -0.0343 -0.1233 -0.4215
 4916TIP3    H114705   3.888   4.065   0.657  0.3736 -0.6541 -0.6124
 4916TIP3    H214706   3.895   4.044   0.507 -0.4530  1.2855 -0.9531
 4917TIP3   OH214707   5.111   5.309   3.655  0.1959 -0.4066  0.2913
 4917TIP3    H114708   5.194   5.350   3.633 -1.1719  2.2256 -0.5025
 4917TIP3    H214709   5.100   5.239   3.591  1.2187  0.0514 -0.3988
 4918TIP3   OH214710   6.091   0.822   4.712 -0.0170 -0.3456  0.7555
 4918TIP3    H114711   6.185   0.838   4.722 -0.2673  0.7331  1.4813
 4918TIP3    H214712   6.054   0.838   4.799 -0.8989 -0.6474  0.4477
 4919TIP3   OH214713   0.725   3.683   4.983  0.6383  0.9010 -0.8133
 4919TIP3    H114714   0.810   3.705   4.946  0.4488  2.8973 -0.1882
 4919TIP3    H214715   0.676   3.765   4.982 -0.1766  0.5488  1.7075
 4920TIP3   OH214716   3.121   3.449   6.632  0.6657 -0.1231  0.1401
 4920TIP3    H114717   3.171   3.439   6.713 -0.3947  2.5614  1.2573
 4920TIP3    H214718   3.065   3.371   6.629  3.2137 -2.0646  0.0088
 4921TIP3   OH214719   5.814   6.570   2.627  0.2296  0.2179  0.1816
 4921TIP3    H114720   5.835   6.629   2.700  1.0592  1.8688 -1.3214
 4921TIP3    H214721   5.825   6.624   2.549 -3.4509 -0.5945 -1.1141
 4922TIP3   OH214722   1.592   6.494   6.365  0.1918 -0.2144  0.1034
 4922TIP3    H114723   1.658   6.555   6.333  1.0461 -1.5185 -0.7135
 4922TIP3    H214724   1.558   6.452   6.287 -0.0373 -1.1190  0.6730
 4923TIP3   OH214725   3.388   4.423   1.063 -0.4063 -0.5918  0.4773
 4923TIP3    H114726   3.344   4.377   0.991 -0.9999  1.2507 -0.3928
 4923TIP3    H214727   3.481   4.410   1.046 -0.5361 -2.3294  0.8663
 4924TIP3   OH214728   7.426   6.227   2.462  0.3363 -0.6732 -0.3085
 4924TIP3    H114729   7.489   6.287   2.502 -0.1549 -0.4723  0.1726
 4924TIP3    H214730   7.465   6.204   2.378  0.4672  0.4503 -0.5736
 4925TIP3   OH214731   7.107   5.881   1.664 -0.1274 -0.4254  0.6330
 4925TIP3    H114732   7.020   5.893   1.626  1.7709  1.5740 -3.7501
 4925TIP3    H214733   7.145   5.809   1.614  1.6252  0.5451  0.4960
 4926TIP3   OH214734   3.778   5.472   1.172  0.0572  0.1634  1.0387
 4926TIP3    H114735   3.747   5.459   1.082  0.3444 -1.0160  1.0947
 4926TIP3    H214736   3.851   5.534   1.163  0.7236 -0.6864  0.3129
 4927TIP3   OH214737   6.739   1.087   4.837 -0.1307  0.3788  0.2390
 4927TIP3    H114738   6.674   1.093   4.768 -0.6861  0.2401  0.7384
 4927TIP3    H214739   6.795   1.013   4.812  1.3585  1.9856 -1.4436
 4928TIP3   OH214740   8.065   3.171   0.313  0.6495  0.1188  0.0243
 4928TIP3    H114741   8.120   3.241   0.278  1.3318 -0.4101  0.0093
 4928TIP3    H214742   7.988   3.170   0.256  2.3259 -1.6127 -2.4238
 4929TIP3   OH214743   8.024   2.333   4.207 -0.5157  0.0925  0.3849
 4929TIP3    H114744   7.964   2.404   4.228 -2.2443 -1.7891  2.0979
 4929TIP3    H214745   8.008   2.316   4.114 -0.5859  1.4236  0.1250
 4930TIP3   OH214746   7.711   0.681   5.330 -0.1830 -0.2658  0.5147
 4930TIP3    H114747   7.684   0.600   5.374 -2.5380  0.3828  0.3875
 4930TIP3    H214748   7.766   0.651   5.257 -1.8072 -1.8790 -0.1407
 4931TIP3   OH214749   6.137   0.216   2.663  0.0208 -0.3456 -0.3500
 4931TIP3    H114750   6.187   0.259   2.593  0.9726  0.5809  0.8628
 4931TIP3    H214751   6.130   0.282   2.732  1.0912 -1.9335  1.3723
 4932TIP3   OH214752   1.896   7.130   1.979  0.7377  0.8878 -0.3839
 4932TIP3    H114753   1.896   7.226   1.973 -0.9048  1.1434  2.2429
 4932TIP3    H214754   1.811   7.104   1.944  1.5434  0.2463 -1.9631
 4933TIP3   OH214755   3.427   2.374   6.011 -0.2340 -0.3237 -0.3359
 4933TIP3    H114756   3.381   2.292   5.994 -0.0084 -0.2402 -1.4345
 4933TIP3    H214757   3.427   2.420   5.926 -0.3960  0.8278  0.2649
 4934TIP3   OH214758   0.408   4.673   5.020  0.3924 -0.0132  0.4878
 4934TIP3    H114759   0.442   4.684   4.932 -0.3174  2.6631  0.4647
 4934TIP3    H214760   0.433   4.583   5.045 -2.4146 -2.2569 -3.6905
 4935TIP3   OH214761   5.538   7.481   4.715 -0.6666 -0.1535 -0.2795
 4935TIP3    H114762   5.463   7.540   4.712 -1.0458 -0.6385 -0.7284
 4935TIP3    H214763   5.499   7.394   4.722 -0.1843 -0.4788 -1.3577
 4936TIP3   OH214764   0.551   4.596   6.713 -0.9383  0.4092  0.1188
 4936TIP3    H114765   0.514   4.606   6.625 -0.2012  1.1613 -0.1233
 4936TIP3    H214766   0.626   4.538   6.702 -2.5380 -1.9224  0.7725
 4937TIP3   OH214767   7.095   3.655   2.534  0.0834 -0.9163 -0.3524
 4937TIP3    H114768   7.056   3.640   2.621 -0.9769 -3.4307 -1.1788
 4937TIP3    H214769   7.039   3.722   2.495  0.3297 -0.0466  0.7136
 4938TIP3   OH214770   2.138   7.097   4.197  0.3236  0.2512 -0.2263
 4938TIP3    H114771   2.220   7.111   4.148  1.3262 -2.4211  0.5155
 4938TIP3    H214772   2.070   7.103   4.131  1.4571 -1.0428 -1.5897
 4939TIP3   OH214773   0.142   1.648   0.365 -0.3148  0.0004  0.1918
 4939TIP3    H114774   0.165   1.731   0.406  1.2002 -0.1878 -0.2230
 4939TIP3    H214775   0.159   1.582   0.432  0.7181 -0.1681 -0.2162
 4940TIP3   OH214776   7.582   6.203   6.628  0.2387 -0.6029  0.3380
 4940TIP3    H114777   7.652   6.263   6.653  0.5094 -1.1554  0.9413
 4940TIP3    H214778   7.501   6.253   6.639  0.4817 -0.2549  0.5368
 4941TIP3   OH214779   6.729   2.284   1.450 -0.1811 -0.0245  0.2537
 4941TIP3    H114780   6.721   2.193   1.480  0.0092 -0.5293 -1.1318
 4941TIP3    H214781   6.821   2.292   1.424 -0.5476  0.0966 -1.0390
 4942TIP3   OH214782   0.917   3.827   0.446  0.0289 -0.5838 -0.3163
 4942TIP3    H114783   0.884   3.915   0.463 -1.5253 -1.1140 -0.4405
 4942TIP3    H214784   1.011   3.839   0.432  0.3260  0.7228  2.2350
 4943TIP3   OH214785   6.799   4.375   5.649  0.2498  0.2389 -0.0167
 4943TIP3    H114786   6.762   4.460   5.622 -0.2657 -0.0559 -0.2716
 4943TIP3    H214787   6.738   4.310   5.612  0.3013 -0.2257  0.6868
 4944TIP3   OH214788   7.879   3.184   1.519  0.0487  0.1722 -0.0032
 4944TIP3    H114789   7.795   3.139   1.521 -0.2363  0.6591 -0.6109
 4944TIP3    H214790   7.857   3.277   1.521  0.5757  0.3013 -0.0173
 4945TIP3   OH214791   1.960   5.554   1.810  0.2168  0.3125 -0.1931
 4945TIP3    H114792   1.969   5.540   1.715  1.9834  2.4779 -0.4236
 4945TIP3    H214793   1.885   5.613   1.817 -0.9431 -1.1235 -0.0545
 4946TIP3   OH214794   1.526   2.138   0.160  0.5078 -0.2463  0.0971
 4946TIP3    H114795   1.519   2.108   0.069 -0.2975  1.7218 -0.5433
 4946TIP3    H214796   1.448   2.104   0.203  0.0458  0.1784 -0.3912
 4947TIP3   OH214797   2.695   6.046   0.367  0.3294 -0.6526  0.0062
 4947TIP3    H114798   2.757   6.086   0.428  0.3967 -0.9828  0.1551
 4947TIP3    H214799   2.736   6.058   0.281  1.0613 -1.6818  0.1817
 4948TIP3   OH214800   4.415   5.404   6.514  0.2500  0.4620 -0.0075
 4948TIP3    H114801   4.448   5.315   6.520 -0.2245  0.0843 -2.2307
 4948TIP3    H214802   4.418   5.425   6.421 -3.0930  1.4258 -0.0326
 4949TIP3   OH214803   1.982   7.254   5.838 -0.1058  0.0559  0.6367
 4949TIP3    H114804   1.928   7.332   5.850 -0.6381 -0.2521  0.2973
 4949TIP3    H214805   1.925   7.182   5.866 -0.0936 -0.3299 -0.3091
 4950TIP3   OH214806   7.597   7.010   6.088 -0.7278  0.3049 -0.4471
 4950TIP3    H114807   7.638   7.069   6.024 -0.8552  0.6398 -0.2167
 4950TIP3    H214808   7.535   7.065   6.136 -0.4775  0.1052  0.1126
 4951TIP3   OH214809   4.378   3.416   4.957 -1.0138  0.1273 -0.3271
 4951TIP3    H114810   4.308   3.459   5.006 -0.1861  1.6048 -0.3850
 4951TIP3    H214811   4.379   3.326   4.990 -0.7832  0.9406  2.0758
 4952TIP3   OH214812   6.160   6.334   2.888  0.1336 -0.1936  0.2888
 4952TIP3    H114813   6.213   6.266   2.931 -0.5636 -1.3485 -0.6072
 4952TIP3    H214814   6.118   6.380   2.961  0.1300 -1.1539  0.9281
 4953TIP3   OH214815   0.162   3.459   4.218  0.5858 -0.1547  0.4737
 4953TIP3    H114816   0.069   3.437   4.225  0.6663 -1.3805 -1.5416
 4953TIP3    H214817   0.185   3.493   4.304 -1.4575 -0.8980  1.3799
 4954TIP3   OH214818   3.457   7.001   5.818 -0.6391 -0.0512 -0.5539
 4954TIP3    H114819   3.418   6.933   5.764  0.6077 -0.2825 -1.1873
 4954TIP3    H214820   3.476   7.073   5.758 -2.9655  1.3821  0.2779
 4955TIP3   OH214821   6.184   5.669   1.137  0.3166  0.4407 -0.2911
 4955TIP3    H114822   6.151   5.696   1.051 -0.5382  1.8935  0.4460
 4955TIP3    H214823   6.115   5.694   1.198  0.5476 -1.3313  0.7572
 4956TIP3   OH214824   5.806   0.374   3.124  0.0914 -0.4079 -0.3257
 4956TIP3    H114825   5.745   0.322   3.175 -2.1889  1.5015 -0.9326
 4956TIP3    H214826   5.862   0.416   3.189 -1.8231  0.8478  0.6076
 4957TIP3   OH214827   7.129   2.377   5.631  0.0888  0.4048 -0.1222
 4957TIP3    H114828   7.191   2.346   5.564  1.1188  1.0484  0.5128
 4957TIP3    H214829   7.044   2.350   5.597  0.8246 -2.6207  0.0649
 4958TIP3   OH214830   0.206   4.650   6.642 -0.1050  0.5653  0.0855
 4958TIP3    H114831   0.201   4.590   6.567 -0.9920 -0.3656  0.8611
 4958TIP3    H214832   0.284   4.703   6.625  0.9594 -1.0885 -0.4217
 4959TIP3   OH214833   3.227   5.347   3.161  0.2278  0.7667  0.1724
 4959TIP3    H114834   3.221   5.280   3.229 -1.2815 -0.1598 -0.8225
 4959TIP3    H214835   3.297   5.316   3.103  1.0602  1.2232  0.9028
 4960TIP3   OH214836   5.361   5.890   0.877  0.3245 -0.0473  0.5720
 4960TIP3    H114837   5.307   5.832   0.823 -0.5876  0.6114  0.7598
 4960TIP3    H214838   5.423   5.929   0.815 -0.7907  0.7903 -0.0553
 4961TIP3   OH214839   2.159   5.090   3.246 -0.3403 -0.2573 -0.7947
 4961TIP3    H114840   2.215   5.038   3.189  0.9170  0.0526  0.1241
 4961TIP3    H214841   2.179   5.181   3.224  1.1570 -0.0912  0.9925
 4962TIP3   OH214842   3.733   7.448   3.215  0.1222  0.6571  1.0110
 4962TIP3    H114843   3.639   7.466   3.215  0.1673  0.9140  0.0836
 4962TIP3    H214844   3.746   7.388   3.142  0.7329  0.8859  0.9251
 4963TIP3   OH214845   1.711   3.208   3.795  0.2502 -0.1959  0.2856
 4963TIP3    H114846   1.674   3.124   3.822 -1.2725  0.1659 -0.5457
 4963TIP3    H214847   1.641   3.249   3.745  0.7041  1.8783  1.2646
 4964TIP3   OH214848   6.198   0.513   3.689  0.1345 -0.5161  0.1259
 4964TIP3    H114849   6.115   0.527   3.735 -0.1367  0.8040 -0.7194
 4964TIP3    H214850   6.221   0.599   3.655  1.6558 -0.9507 -0.0083
 4965TIP3   OH214851   1.028   4.723   2.946  0.2252 -0.0147  0.2473
 4965TIP3    H114852   0.958   4.669   2.984  0.8357  0.5149  2.2463
 4965TIP3    H214853   1.096   4.661   2.921  1.0934 -0.2243  2.9045
 4966TIP3   OH214854   7.115   2.559   1.081 -0.1248 -0.1903  0.1455
 4966TIP3    H114855   7.020   2.548   1.091 -0.0749  0.4166  1.5951
 4966TIP3    H214856   7.151   2.475   1.110 -0.2437 -1.0460 -2.0098
 4967TIP3   OH214857   2.588   3.987   2.713  0.2112 -0.3742 -0.4527
 4967TIP3    H114858   2.537   4.061   2.747 -2.4198 -1.8310 -0.9801
 4967TIP3    H214859   2.630   3.950   2.791  0.0795  0.5750  0.0893
 4968TIP3   OH214860   4.651   2.703   5.300 -0.1857  0.0795  0.8023
 4968TIP3    H114861   4.643   2.652   5.219  0.3751 -0.6365  1.1851
 4968TIP3    H214862   4.682   2.789   5.272  2.2414 -0.8505  0.4307
 4969TIP3   OH214863   0.253   5.025   6.168 -0.5280 -0.0833  0.0073
 4969TIP3    H114864   0.342   5.052   6.141  0.1112 -0.4755  1.6363
 4969TIP3    H214865   0.204   5.107   6.171  0.0082  0.2487 -0.0949
 4970TIP3   OH214866   4.747   2.795   3.529 -0.3722  0.1285 -0.6084
 4970TIP3    H114867   4.681   2.864   3.531 -0.3778  0.1112  1.4599
 4970TIP3    H214868   4.712   2.726   3.584  1.2839  0.0467  0.4165
 4971TIP3   OH214869   7.624   6.070   1.433 -0.0306  0.1352 -0.1596
 4971TIP3    H114870   7.566   6.018   1.377 -0.7298  2.0686 -1.3049
 4971TIP3    H214871   7.610   6.160   1.405  1.4213  0.9317  1.5159
 4972TIP3   OH214872   1.511   3.309   0.489 -0.4518 -0.0618  0.0002
 4972TIP3    H114873   1.494   3.246   0.420  2.4936 -2.6528  1.4081
 4972TIP3    H214874   1.475   3.269   0.568 -0.8480  1.3011  0.5434
 4973TIP3   OH214875   5.055   1.550   0.221  0.4305  0.4618 -0.1368
 4973TIP3    H114876   5.055   1.503   0.137 -0.6472 -0.9157  0.5935
 4973TIP3    H214877   5.142   1.590   0.226  1.3677 -1.3525 -0.8884
 4974TIP3   OH214878   4.598   2.022   6.131  0.0353 -0.0138  0.1223
 4974TIP3    H114879   4.687   1.995   6.108  0.2965 -1.4828  2.5953
 4974TIP3    H214880   4.602   2.042   6.224 -2.0224  0.9131  0.0639
 4975TIP3   OH214881   5.635   4.678   0.610 -0.1934  0.3006 -0.2484
 4975TIP3    H114882   5.682   4.606   0.652 -0.9523 -0.2301 -0.2927
 4975TIP3    H214883   5.547   4.644   0.596 -0.0509  0.5543 -1.9959
 4976TIP3   OH214884   6.920   0.641   3.791 -0.1851 -0.6144 -0.3751
 4976TIP3    H114885   6.968   0.562   3.815 -1.4134 -1.1200  0.5677
 4976TIP3    H214886   6.832   0.626   3.824 -0.6921  0.7674 -1.0158
 4977TIP3   OH214887   4.854   1.740   3.232 -0.1705 -0.3606  0.3247
 4977TIP3    H114888   4.850   1.704   3.143 -0.5883  0.5627 -0.0463
 4977TIP3    H214889   4.792   1.688   3.282 -0.0817 -0.7576  0.0232
 4978TIP3   OH214890   5.862   6.317   5.388 -0.2299  0.1047  0.5757
 4978TIP3    H114891   5.916   6.368   5.449 -0.6820  0.3587  0.7679
 4978TIP3    H214892   5.916   6.241   5.368  0.6507  0.8630 -0.0608
 4979TIP3   OH214893   7.224   6.383   1.782  0.6671  0.0912  0.1366
 4979TIP3    H114894   7.215   6.315   1.715 -2.1702 -0.8835  1.3482
 4979TIP3    H214895   7.174   6.457   1.748  3.1839  1.4642 -0.8665
 4980TIP3   OH214896   3.905   0.476   5.134 -0.5008 -0.0390 -0.5337
 4980TIP3    H114897   3.994   0.469   5.099 -0.5842  1.2351 -1.0299
 4980TIP3    H214898   3.888   0.389   5.171  0.4012 -0.7800 -1.7397
 4981TIP3   OH214899   3.912   4.585   2.755  0.0990 -0.2016  0.6836
 4981TIP3    H114900   3.913   4.676   2.785 -1.1922  0.2399 -0.5194
 4981TIP3    H214901   3.884   4.535   2.832  1.1137  0.3562  1.4467
 4982TIP3   OH214902   4.606   1.980   2.269  0.8249 -0.1319  0.1042
 4982TIP3    H114903   4.684   1.993   2.323  0.3676 -0.2553  0.7954
 4982TIP3    H214904   4.601   1.885   2.256  0.9765 -0.0977 -0.2301
 4983TIP3   OH214905   2.271   5.566   2.842 -0.2444 -0.2371  0.7000
 4983TIP3    H114906   2.220   5.485   2.835 -1.7776  0.8345 -2.4367
 4983TIP3    H214907   2.351   5.547   2.792 -1.5289  0.7010 -1.8842
 4984TIP3   OH214908   6.964   2.180   6.155 -0.1699  0.3231  0.3606
 4984TIP3    H114909   6.891   2.141   6.203 -1.8269  0.8270 -1.5903
 4984TIP3    H214910   7.010   2.106   6.115  0.8655 -0.0501  2.1190
 4985TIP3   OH214911   1.673   7.740   4.794 -0.2081  0.4235 -0.4136
 4985TIP3    H114912   1.720   7.779   4.868  0.5230 -1.7429  0.3534
 4985TIP3    H214913   1.671   7.646   4.814  1.0340 -0.4401 -3.6512
 4986TIP3   OH214914   1.331   5.994   1.163 -1.1880 -0.4838  0.5456
 4986TIP3    H114915   1.423   6.011   1.183 -1.0786 -2.2161  1.7632
 4986TIP3    H214916   1.309   6.055   1.093  0.7803  0.2229  0.5055
 4987TIP3   OH214917   5.053   0.315   3.813  1.0685  0.1071  0.2096
 4987TIP3    H114918   5.097   0.398   3.792 -0.6006  0.7774 -0.8314
 4987TIP3    H214919   5.029   0.278   3.728  0.8264 -0.9199  0.7127
 4988TIP3   OH214920   6.799   3.756   1.285 -0.2905 -0.4535  0.1571
 4988TIP3    H114921   6.812   3.844   1.320  1.1792 -0.9632  0.9845
 4988TIP3    H214922   6.721   3.724   1.329 -1.0758  0.5489 -0.4457
 4989TIP3   OH214923   1.059   4.266   4.885 -0.0064 -0.9330 -0.0580
 4989TIP3    H114924   0.965   4.262   4.867 -0.0321  1.3783 -0.6969
 4989TIP3    H214925   1.070   4.346   4.937  1.8019 -0.2686 -1.3774
 4990TIP3   OH214926   3.330   5.413   5.014 -0.0283  0.0923 -0.3228
 4990TIP3    H114927   3.389   5.423   5.090 -0.4118  1.3577 -0.1749
 4990TIP3    H214928   3.389   5.410   4.939  0.3054 -0.2151 -0.0558
 4991TIP3   OH214929   0.153   2.508   3.114 -0.3751  0.1397 -0.4277
 4991TIP3    H114930   0.176   2.418   3.090  0.4703 -0.1443  1.3224
 4991TIP3    H214931   0.112   2.501   3.199  1.4516  1.5583  0.6651
 4992TIP3   OH214932   6.239   0.142   0.932 -0.2185 -0.2638  0.0103
 4992TIP3    H114933   6.311   0.169   0.989 -2.6818 -0.0235  3.3145
 4992TIP3    H214934   6.275   0.069   0.881  2.3262 -0.2067  1.5440
 4993TIP3   OH214935   3.120   1.170   0.124  0.2849  0.2286  0.1557
 4993TIP3    H114936   3.147   1.079   0.117 -0.2431  0.1454 -1.0667
 4993TIP3    H214937   3.195   1.221   0.094  0.5036  0.2002  0.6380
 4994TIP3   OH214938   1.409   4.954   5.005 -0.6401 -0.2682  0.3494
 4994TIP3    H114939   1.454   4.870   5.010  0.2025  0.1599  0.1189
 4994TIP3    H214940   1.479   5.018   4.994 -1.0839  0.7346  2.8661
 4995TIP3   OH214941   1.753   0.198   0.539 -0.9900 -0.1677  0.9726
 4995TIP3    H114942   1.847   0.186   0.533 -1.0584 -0.4303  0.4301
 4995TIP3    H214943   1.731   0.167   0.627 -0.1680  2.6818  2.3091
 4996TIP3   OH214944   0.658   7.659   6.099 -0.5369  0.1238 -0.1162
 4996TIP3    H114945   0.615   7.745   6.091 -1.6878 -0.5647 -1.8449
 4996TIP3    H214946   0.735   7.665   6.043 -0.7137 -0.0271 -0.3753
 4997TIP3   OH214947   4.732   5.066   4.877  0.1848 -0.1314 -0.5625
 4997TIP3    H114948   4.639   5.085   4.864 -0.1097  0.1508  1.5851
 4997TIP3    H214949   4.777   5.126   4.817 -0.9675  1.8850  0.4693
 4998TIP3   OH214950   6.557   3.987   2.791  0.1387 -0.2459  0.1961
 4998TIP3    H114951   6.596   4.060   2.840 -1.0096  0.1077  0.6267
 4998TIP3    H214952   6.463   4.007   2.789  0.1896  0.2419 -2.9624
 4999TIP3   OH214953   6.090   3.281   5.254  0.0967  0.2246  0.1232
 4999TIP3    H114954   6.049   3.276   5.168  1.0534  1.3890 -0.4383
 4999TIP3    H214955   6.027   3.241   5.313 -1.0266  0.3101 -0.9693
 5000TIP3   OH214956   1.528   2.166   6.158  0.0265 -0.2117 -0.0974
 5000TIP3    H114957   1.507   2.221   6.083 -0.5176 -1.0150 -0.5453
 5000TIP3    H214958   1.623   2.171   6.166 -0.0808  1.5756  0.4886
 5001TIP3   OH214959   0.374   3.099   5.762 -0.1022 -0.0225  0.3504
 5001TIP3    H114960   0.397   3.017   5.806  0.3050 -0.3051 -0.3755
 5001TIP3    H214961   0.378   3.078   5.669 -1.0356  0.5437  0.1680
 5002TIP3   OH214962   6.698   6.154   4.158  0.4385 -0.1420 -0.1614
 5002TIP3    H114963   6.644   6.112   4.091 -1.3407 -1.2771  1.8672
 5002TIP3    H214964   6.736   6.230   4.114 -0.8129 -0.7019 -2.3756
 5003TIP3   OH214965   3.769   3.636   5.018  0.0881  0.0665  0.2958
 5003TIP3    H114966   3.820   3.646   4.938  1.1227 -0.9925  0.7850
 5003TIP3    H214967   3.680   3.615   4.989  0.4160 -0.1369 -0.5643
 5004TIP3   OH214968   3.672   1.100   1.978  0.5316  0.0505 -0.2224
 5004TIP3    H114969   3.695   1.048   2.054  0.9153  2.2696  1.2750
 5004TIP3    H214970   3.610   1.165   2.010 -1.1409 -0.3713 -2.3408
 5005TIP3   OH214971   4.774   7.597   5.131 -0.7859  0.1789 -0.1093
 5005TIP3    H114972   4.853   7.610   5.078 -0.5464 -0.0870  0.1784
 5005TIP3    H214973   4.767   7.502   5.140 -0.8517  0.2211  0.2938
 5006TIP3   OH214974   6.424   6.522   6.199  0.1073  0.5839 -0.5648
 5006TIP3    H114975   6.493   6.586   6.216  0.1337  1.0780 -2.3488
 5006TIP3    H214976   6.378   6.557   6.122 -0.4749 -1.0767 -1.0017
 5007TIP3   OH214977   6.959   6.207   1.843 -0.3775 -0.3408  0.3901
 5007TIP3    H114978   6.993   6.147   1.910 -1.7337 -1.4329  0.1500
 5007TIP3    H214979   6.939   6.287   1.891  1.2153 -0.1363  0.7699
 5008TIP3   OH214980   4.613   6.625   1.177  0.5865 -0.4446  0.4286
 5008TIP3    H114981   4.553   6.596   1.247  0.8880  1.3061  1.4917
 5008TIP3    H214982   4.556   6.645   1.103 -0.0899  0.4453  1.1672
 5009TIP3   OH214983   4.659   6.636   6.258 -0.0056  0.1384  0.5278
 5009TIP3    H114984   4.609   6.713   6.230 -0.7920 -0.8144 -0.7643
 5009TIP3    H214985   4.734   6.633   6.198 -0.2787 -0.4243  0.2152
 5010TIP3   OH214986   2.092   7.073   1.407 -0.1760 -0.0290  0.7491
 5010TIP3    H114987   2.069   7.164   1.429  1.8409  1.0915 -1.3113
 5010TIP3    H214988   2.182   7.079   1.374 -0.5899 -2.4960 -1.0886
 5011TIP3   OH214989   5.987   1.451   2.246  0.1485  0.8197  0.9514
 5011TIP3    H114990   6.054   1.383   2.243 -0.3184  0.3139  1.6684
 5011TIP3    H214991   5.917   1.419   2.190  0.4927  1.3505  0.1975
 5012TIP3   OH214992   2.752   1.050   6.472  0.6901 -0.3837  0.1968
 5012TIP3    H114993   2.663   1.084   6.462  0.4170 -1.3575 -0.9239
 5012TIP3    H214994   2.787   1.096   6.548 -0.3370  0.9220 -0.0844
 5013TIP3   OH214995   7.998   0.965   4.469 -0.0935 -0.1266  0.1991
 5013TIP3    H114996   7.948   0.988   4.391  3.3719  1.0948 -1.9086
 5013TIP3    H214997   8.019   1.050   4.510  0.8239 -0.5394  0.6146
 5014TIP3   OH214998   2.941   7.307   2.052  0.2975 -0.2404 -0.2094
 5014TIP3    H114999   2.969   7.221   2.083 -1.6615 -0.3138  1.5719
 5014TIP3    H215000   2.989   7.369   2.106 -0.5554 -0.3065  0.6493
 5015TIP3   OH215001   2.444   2.887   5.263 -0.6564 -0.3030 -0.1270
 5015TIP3    H115002   2.475   2.977   5.252  0.4573 -0.6919 -0.2905
 5015TIP3    H215003   2.522   2.833   5.251 -1.5997 -1.3952 -1.8210
 5016TIP3   OH215004   1.172   6.154   3.155 -0.4331  0.1489  0.3731
 5016TIP3    H115005   1.158   6.243   3.188 -3.5175  0.3494 -1.0985
 5016TIP3    H215006   1.151   6.159   3.062 -0.0722 -1.9860  0.1227
 5017TIP3   OH215007   4.339   5.635   4.700 -0.4203  0.3085  0.1376
 5017TIP3    H115008   4.392   5.713   4.714 -2.5102  1.5079  2.1364
 5017TIP3    H215009   4.363   5.576   4.772 -0.7632  0.2496  0.2056
 5018TIP3   OH215010   8.148   3.454   3.443  0.0954 -0.0424 -0.0588
 5018TIP3    H115011   8.152   3.446   3.347  0.8228 -0.0004 -0.0403
 5018TIP3    H215012   8.137   3.364   3.474 -0.7937  0.0111 -0.2030
 5019TIP3   OH215013   5.310   2.876   4.920 -0.3236 -0.1713 -0.1665
 5019TIP3    H115014   5.268   2.823   4.852  0.9368  0.3876 -1.4182
 5019TIP3    H215015   5.252   2.951   4.931 -0.3529 -0.0838 -0.8949
 5020TIP3   OH215016   6.656   7.319   0.853 -0.0331 -0.5443 -0.6588
 5020TIP3    H115017   6.706   7.269   0.918  0.1562  0.1163 -0.2887
 5020TIP3    H215018   6.600   7.377   0.905 -0.1378 -0.2600 -1.0802
 5021TIP3   OH215019   7.749   5.477   1.820  0.2072  0.3513  0.6919
 5021TIP3    H115020   7.818   5.476   1.753 -0.0336  3.0691  0.2635
 5021TIP3    H215021   7.783   5.536   1.887 -0.9431  0.2827  1.3581
 5022TIP3   OH215022   3.674   5.358   3.497  0.5196  0.5989  0.1820
 5022TIP3    H115023   3.706   5.447   3.515  0.9744  0.3962  0.4016
 5022TIP3    H215024   3.748   5.301   3.519 -0.0639  0.0980  0.9039
 5023TIP3   OH215025   6.390   6.697   4.061  0.4985 -0.4825 -0.0430
 5023TIP3    H115026   6.404   6.700   4.156  0.5411 -0.6612 -0.0430
 5023TIP3    H215027   6.376   6.605   4.042  0.5949 -0.4598 -0.2257
 5024TIP3   OH215028   7.444   0.075   0.606 -0.3638  0.9442 -0.4412
 5024TIP3    H115029   7.392   0.057   0.684  0.4521  1.0626  0.1407
 5024TIP3    H215030   7.384   0.060   0.533 -0.6917 -0.7870  0.1358
 5025TIP3   OH215031   8.201   3.695   3.071  0.2884 -0.0223  0.5403
 5025TIP3    H115032   8.179   3.720   2.981  1.4893  1.8780  0.7281
 5025TIP3    H215033   8.174   3.603   3.077  0.9649 -0.4697 -2.0159
 5026TIP3   OH215034   2.181   3.447   4.808 -0.3975 -0.1557  0.0247
 5026TIP3    H115035   2.164   3.358   4.840 -0.4947 -0.3937 -0.6681
 5026TIP3    H215036   2.201   3.497   4.886 -2.2127 -0.3476  0.6623
 5027TIP3   OH215037   1.843   7.547   1.572 -0.0070 -0.1439  0.7106
 5027TIP3    H115038   1.906   7.613   1.544  0.9300 -1.1739  0.2815
 5027TIP3    H215039   1.851   7.545   1.667  0.9133 -0.5137  0.6403
 5028TIP3   OH215040   3.785   0.766   1.585 -0.4175 -0.0691 -0.2666
 5028TIP3    H115041   3.743   0.825   1.647  0.1832  0.7077 -0.5772
 5028TIP3    H215042   3.819   0.824   1.516  1.3625 -0.6250  0.0973
 5029TIP3   OH215043   1.252   5.910   3.580 -0.0128  0.0697  0.4162
 5029TIP3    H115044   1.290   5.839   3.632  0.9122  0.3577  0.1644
 5029TIP3    H215045   1.252   5.985   3.639  0.6918  0.3034  0.1297
 5030TIP3   OH215046   0.574   3.776   1.978 -0.6197 -0.3141 -0.5323
 5030TIP3    H115047   0.554   3.765   2.071  0.9595 -3.3361 -0.4236
 5030TIP3    H215048   0.667   3.800   1.976 -0.9447  1.0019 -1.3477
 5031TIP3   OH215049   2.793   5.763   0.382  0.1277 -0.8569  0.0851
 5031TIP3    H115050   2.699   5.765   0.401 -0.1414  0.7823 -1.2261
 5031TIP3    H215051   2.807   5.836   0.322  2.5480  0.0500  1.5799
 5032TIP3   OH215052   6.646   5.683   3.808 -0.4995 -0.0123 -0.1233
 5032TIP3    H115053   6.649   5.603   3.860 -0.2449 -0.1642 -0.3620
 5032TIP3    H215054   6.591   5.743   3.858  0.8445  0.3371  1.0212
 5033TIP3   OH215055   7.560   4.640   1.949 -0.3358  0.8090 -0.6804
 5033TIP3    H115056   7.516   4.632   2.034 -0.1216  2.0753 -0.4273
 5033TIP3    H215057   7.647   4.676   1.971  0.6760 -1.1972 -1.2065
 5034TIP3   OH215058   0.894   7.773   3.380 -0.2988  0.6724 -0.2083
 5034TIP3    H115059   0.851   7.692   3.353 -1.0927  0.5821  1.2038
 5034TIP3    H215060   0.826   7.839   3.374  0.1425  1.0920 -0.6320
 5035TIP3   OH215061   5.276   7.756   4.890  0.2974  0.1681  0.0674
 5035TIP3    H115062   5.191   7.797   4.876 -0.0958 -0.9475 -0.9423
 5035TIP3    H215063   5.271   7.719   4.978  0.2585  1.2788  0.5528
 5036TIP3   OH215064   3.302   1.924   0.725  0.3494  0.3922 -0.6390
 5036TIP3    H115065   3.252   1.974   0.790  1.3867 -0.9464  1.3012
 5036TIP3    H215066   3.348   1.990   0.674 -0.7240  1.5068 -0.2195
 5037TIP3   OH215067   0.196   2.873   1.786 -0.3796  0.4103 -0.5180
 5037TIP3    H115068   0.228   2.956   1.753 -0.8910  0.5050 -0.7779
 5037TIP3    H215069   0.124   2.849   1.728  0.1139 -0.4850 -0.7895
 5038TIP3   OH215070   7.605   5.579   6.198  0.0100 -0.2201 -0.3947
 5038TIP3    H115071   7.530   5.631   6.227  0.9474  0.6163  0.6085
 5038TIP3    H215072   7.577   5.540   6.115 -1.3324  0.4991 -0.2997
 5039TIP3   OH215073   1.256   5.597   4.930 -0.2858 -0.2477  0.1031
 5039TIP3    H115074   1.210   5.523   4.970 -2.3113 -0.3349 -2.1462
 5039TIP3    H215075   1.214   5.608   4.845  0.8516  2.6782 -0.1898
 5040TIP3   OH215076   4.852   4.293   5.185 -0.0615 -0.3379 -0.3018
 5040TIP3    H115077   4.807   4.208   5.191  0.1979 -0.3904  1.2017
 5040TIP3    H215078   4.904   4.286   5.105 -2.5983 -0.3119 -2.1055
 5041TIP3   OH215079   7.601   3.690   3.598  0.4495 -0.3749  0.1252
 5041TIP3    H115080   7.598   3.595   3.588  3.2016 -0.6077  0.6323
 5041TIP3    H215081   7.600   3.704   3.693  2.1698 -0.1030  0.1391
 5042TIP3   OH215082   6.770   0.253   0.215  0.9876 -0.4066  0.0609
 5042TIP3    H115083   6.792   0.172   0.261  0.0558 -0.3511  0.6236
 5042TIP3    H215084   6.694   0.231   0.162  0.9799 -0.0050 -0.0982
 5043TIP3   OH215085   3.315   1.606   6.099  0.0906 -0.4259 -0.0144
 5043TIP3    H115086   3.228   1.644   6.103 -0.0875 -0.9105  2.0728
 5043TIP3    H215087   3.304   1.522   6.053 -0.2464  0.1715 -1.0425
 5044TIP3   OH215088   7.565   3.163   1.271  0.7923  0.0198  0.1442
 5044TIP3    H115089   7.621   3.235   1.239  0.7175  0.1878  0.3826
 5044TIP3    H215090   7.599   3.145   1.359  1.7345 -1.2106 -0.4491
 5045TIP3   OH215091   5.500   2.715   2.779 -0.0241  0.0768 -0.3300
 5045TIP3    H115092   5.565   2.738   2.845  0.8334  0.7023 -1.3638
 5045TIP3    H215093   5.542   2.736   2.695 -0.5954 -1.8422 -1.1575
 5046TIP3   OH215094   1.223   3.580   5.603 -0.1296  0.6051  0.0303
 5046TIP3    H115095   1.174   3.661   5.615 -0.1243  0.3652  2.0453
 5046TIP3    H215096   1.314   3.605   5.618 -0.0415  0.3542 -0.0777
 5047TIP3   OH215097   7.348   7.716   1.794  0.4636 -0.5902 -0.2762
 5047TIP3    H115098   7.333   7.809   1.811 -0.0276 -0.4309 -1.4965
 5047TIP3    H215099   7.261   7.680   1.778  0.4127 -1.7021  2.0762
 5048TIP3   OH215100   2.108   5.131   1.643 -0.2870 -0.1508  0.1131
 5048TIP3    H115101   2.132   5.198   1.579  0.5752  0.9991  1.5825
 5048TIP3    H215102   2.028   5.165   1.684 -3.1729 -2.6551 -2.8303
 5049TIP3   OH215103   5.411   4.165   2.302 -0.4128 -0.7790  0.1379
 5049TIP3    H115104   5.490   4.180   2.251  0.0709  0.1109  1.1026
 5049TIP3    H215105   5.352   4.118   2.243  0.1822  0.0568 -1.1580
 5050TIP3   OH215106   7.844   2.566   1.323  0.4718  0.3226 -0.2286
 5050TIP3    H115107   7.871   2.554   1.232 -0.7394  1.5559 -0.7861
 5050TIP3    H215108   7.903   2.510   1.373  0.4615 -1.2120 -1.8559
 5051TIP3   OH215109   7.185   3.953   4.099  0.0361 -0.0980 -0.3347
 5051TIP3    H115110   7.256   4.017   4.094 -0.2256  0.2174 -0.0133
 5051TIP3    H215111   7.222   3.873   4.060 -0.5473  1.0468 -3.5529
 5052TIP3   OH215112   8.121   1.652   3.914  0.7977 -0.3184  0.2321
 5052TIP3    H115113   8.038   1.608   3.896  0.1034  0.4589  1.3695
 5052TIP3    H215114   8.119   1.729   3.857  1.1272 -0.7338 -0.3471
 5053TIP3   OH215115   2.958   0.717   5.961  0.3054  0.8103  0.1927
 5053TIP3    H115116   3.007   0.640   5.991  0.1630  1.0888  1.1763
 5053TIP3    H215117   2.871   0.707   5.999 -0.0511  0.9233 -0.5689
 5054TIP3   OH215118   4.020   4.108   0.787  0.4086 -0.1932  0.1012
 5054TIP3    H115119   4.095   4.058   0.754  0.1500 -0.7871  0.4153
 5054TIP3    H215120   4.048   4.200   0.780  2.4078 -0.4487  3.0281
 5055TIP3   OH215121   2.944   5.340   1.881  0.0368 -0.3010 -0.3584
 5055TIP3    H115122   2.849   5.334   1.871 -0.0775 -0.3843  0.6421
 5055TIP3    H215123   2.968   5.257   1.924  0.4210  0.1513  0.3132
 5056TIP3   OH215124   0.043   7.610   3.727 -0.1050 -0.0258  0.2119
 5056TIP3    H115125  -0.033   7.639   3.677 -0.9027 -1.1855  0.6999
 5056TIP3    H215126   0.110   7.675   3.709 -1.3809  1.3389  0.2072
 5057TIP3   OH215127   5.009   4.056   5.642  0.3426  0.1393 -1.1378
 5057TIP3    H115128   5.002   4.117   5.715 -0.1288 -1.5423  0.2702
 5057TIP3    H215129   4.922   4.018   5.634  0.3032  0.4744 -2.7898
 5058TIP3   OH215130   6.258   2.824   3.025 -0.1929 -0.1372  0.1724
 5058TIP3    H115131   6.282   2.735   2.999  0.5292  0.1634 -0.2372
 5058TIP3    H215132   6.302   2.838   3.108 -0.2306 -0.1315  0.1913
 5059TIP3   OH215133   4.559   0.183   4.155  0.0078  0.1887 -0.5206
 5059TIP3    H115134   4.512   0.101   4.167 -0.4895  0.4575 -0.5712
 5059TIP3    H215135   4.569   0.192   4.060 -4.3354  2.5097 -1.0554
 5060TIP3   OH215136   4.851   5.396   1.744  0.2195  0.0060  0.5243
 5060TIP3    H115137   4.761   5.430   1.739  0.7546  1.4222 -0.2139
 5060TIP3    H215138   4.876   5.382   1.652  1.0162  0.3645  0.6793
 5061TIP3   OH215139   5.416   0.297   0.551 -0.1430  0.0261 -0.2018
 5061TIP3    H115140   5.491   0.240   0.539  1.3061  1.0893  2.6460
 5061TIP3    H215141   5.412   0.349   0.471  3.3408  1.1466  0.1838
 5062TIP3   OH215142   1.832   5.579   3.882 -0.2227  0.1004 -0.0436
 5062TIP3    H115143   1.824   5.488   3.854  2.0463 -0.0974 -0.2075
 5062TIP3    H215144   1.906   5.614   3.832  0.6359  1.2528  1.8994
 5063TIP3   OH215145   4.786   3.857   5.941  0.2646  0.3885 -0.4169
 5063TIP3    H115146   4.881   3.857   5.929  0.0603 -0.4153 -2.3582
 5063TIP3    H215147   4.761   3.949   5.937  0.6891  0.4561 -2.7096
 5064TIP3   OH215148   2.028   5.889   4.680  0.2653  0.0489  0.0033
 5064TIP3    H115149   2.089   5.931   4.619  0.7297 -0.1048  0.3502
 5064TIP3    H215150   1.969   5.959   4.707  1.0384  0.4985  0.5866
 5065TIP3   OH215151   4.392   1.212   0.008 -0.2210 -0.0643  0.1238
 5065TIP3    H115152   4.459   1.146   0.027  1.2716  1.6028  0.8849
 5065TIP3    H215153   4.311   1.173   0.040  0.8459 -0.9692  1.8892
 5066TIP3   OH215154   3.955   1.519   4.776  0.0240 -0.1031  0.2592
 5066TIP3    H115155   3.941   1.606   4.815 -0.2785 -1.3933  3.3798
 5066TIP3    H215156   4.050   1.508   4.777  0.1890  0.7907 -1.7579
 5067TIP3   OH215157   3.235   4.699   3.345  0.1320 -0.1641  0.2750
 5067TIP3    H115158   3.205   4.789   3.358 -0.1740  0.0527 -1.6328
 5067TIP3    H215159   3.207   4.652   3.424 -1.7344  0.9095  0.3049
 5068TIP3   OH215160   6.208   0.740   0.418 -0.6366  0.4161 -0.2416
 5068TIP3    H115161   6.133   0.737   0.360 -1.0575 -0.8708  0.3302
 5068TIP3    H215162   6.187   0.677   0.488  1.7888 -1.5217 -1.0982
 5069TIP3   OH215163   6.366   0.835   4.699 -0.1446 -0.6809  0.1685
 5069TIP3    H115164   6.446   0.783   4.692  0.5136  0.4305 -1.0539
 5069TIP3    H215165   6.391   0.922   4.667 -1.4314  0.1559  1.3103
 5070TIP3   OH215166   0.046   4.462   5.442  0.0686  0.5973 -1.1289
 5070TIP3    H115167   0.067   4.480   5.533 -0.5219 -2.4930 -0.2922
 5070TIP3    H215168  -0.049   4.466   5.437 -0.0326 -1.0453 -1.1132
 5071TIP3   OH215169   1.240   3.589   2.557  0.8007  0.3584 -0.2617
 5071TIP3    H115170   1.313   3.548   2.603  1.5669  0.6425 -1.1774
 5071TIP3    H215171   1.193   3.517   2.516 -0.7240 -0.0457  2.0513
 5072TIP3   OH215172   0.532   5.081   6.033 -0.0876  0.5984  0.2273
 5072TIP3    H115173   0.607   5.027   6.055  0.7835  2.2127  1.4661
 5072TIP3    H215174   0.490   5.036   5.960  2.7414  0.2495 -1.3030
 5073TIP3   OH215175   5.510   0.319   2.358  0.0472 -0.2335  0.2141
 5073TIP3    H115176   5.479   0.340   2.446  0.1314 -0.4764  0.3011
 5073TIP3    H215177   5.470   0.387   2.303  1.2999  0.9157  0.6556
 5074TIP3   OH215178   1.855   2.986   1.363 -0.6758 -0.2665  0.0509
 5074TIP3    H115179   1.939   2.966   1.405 -0.1636  0.1721 -0.7328
 5074TIP3    H215180   1.846   2.919   1.295  0.6857  1.5732 -2.0906
 5075TIP3   OH215181   0.590   5.329   1.143 -0.0174 -0.2469  0.5831
 5075TIP3    H115182   0.668   5.330   1.089 -0.1609  2.2901  0.2884
 5075TIP3    H215183   0.518   5.311   1.082  0.2036 -1.3060  0.6314
 5076TIP3   OH215184   2.587   3.794   3.770  0.0656 -0.0966  0.1679
 5076TIP3    H115185   2.625   3.846   3.699  0.1182  1.1654  1.0799
 5076TIP3    H215186   2.493   3.796   3.754  0.1848 -1.3303 -0.8387
 5077TIP3   OH215187   1.585   1.244   6.162 -0.0645 -0.5018 -0.0545
 5077TIP3    H115188   1.494   1.262   6.188  0.3105  0.4443  0.6177
 5077TIP3    H215189   1.586   1.261   6.068 -0.4737 -0.0633  0.0167
 5078TIP3   OH215190   3.039   7.522   0.581  0.3501 -0.2224 -0.5084
 5078TIP3    H115191   3.033   7.562   0.494  1.3782 -0.6882 -0.7971
 5078TIP3    H215192   3.039   7.597   0.641  0.9703  0.1680 -0.9824
 5079TIP3   OH215193   4.202   3.336   5.677  0.5628  0.1736  0.2028
 5079TIP3    H115194   4.170   3.425   5.663  1.4260  0.7120  1.5305
 5079TIP3    H215195   4.222   3.305   5.588  0.4776  1.3829 -0.2677
 5080TIP3   OH215196   5.433   6.415   6.318  0.4130 -0.6678  0.1243
 5080TIP3    H115197   5.467   6.369   6.242 -0.7493 -0.1410 -0.7384
 5080TIP3    H215198   5.509   6.462   6.354  0.8293 -0.3654 -1.1162
 5081TIP3   OH215199   4.258   3.615   5.104  0.0986  0.0670 -0.4350
 5081TIP3    H115200   4.171   3.637   5.139 -0.5540  0.4066 -2.1540
 5081TIP3    H215201   4.289   3.697   5.065  1.5069  0.1232  0.7214
 5082TIP3   OH215202   6.061   1.308   6.688 -0.0624 -0.6758  0.0155
 5082TIP3    H115203   6.065   1.398   6.721  0.5140 -0.8334  0.3848
 5082TIP3    H215204   5.984   1.307   6.631 -0.4777 -0.1305  0.5525
 5083TIP3   OH215205  -0.001   4.431   3.046 -0.0406 -0.2031  0.1191
 5083TIP3    H115206  -0.036   4.493   3.110  0.4619 -1.6813  1.8978
 5083TIP3    H215207   0.054   4.372   3.098 -1.2231 -2.7155 -1.3344
 5084TIP3   OH215208   2.350   3.914   0.198  0.5591  0.1305 -0.3429
 5084TIP3    H115209   2.263   3.876   0.211  0.0380  1.3795  0.0549
 5084TIP3    H215210   2.411   3.849   0.233 -0.3230 -0.1228  0.7970
 5085TIP3   OH215211   7.169   5.165   1.819  0.2304 -0.2143 -0.5357
 5085TIP3    H115212   7.089   5.171   1.767  0.2687 -0.4362 -0.6218
 5085TIP3    H215213   7.153   5.094   1.881 -0.2659  0.8150  0.5592
 5086TIP3   OH215214   1.477   4.526   5.807  0.1713  0.4223 -0.3158
 5086TIP3    H115215   1.408   4.534   5.873  1.0547  1.5291  0.5251
 5086TIP3    H215216   1.545   4.587   5.837  1.1801 -0.0737 -1.5284
 5087TIP3   OH215217   5.338   5.096   5.288 -0.1442  0.3254  0.3599
 5087TIP3    H115218   5.243   5.092   5.294 -0.5793 -0.2713 -3.6884
 5087TIP3    H215219   5.356   5.174   5.235  1.4070 -0.5825 -0.5469
 5088TIP3   OH215220   3.572   1.921   0.310  0.7576  0.1892  0.0339
 5088TIP3    H115221   3.596   1.878   0.393 -0.4370  2.5086  1.6802
 5088TIP3    H215222   3.486   1.884   0.289 -0.7470  2.3357  1.9976
 5089TIP3   OH215223   2.988   2.087   5.541  0.5784  0.3701  0.4963
 5089TIP3    H115224   2.974   2.176   5.510  1.1390 -0.3103 -1.9058
 5089TIP3    H215225   3.083   2.081   5.553  0.4958  0.2303  1.0975
 5090TIP3   OH215226   3.009   5.058   5.069  0.1092  0.7505 -0.8363
 5090TIP3    H115227   2.985   5.081   4.979 -0.0609 -3.5997 -2.1419
 5090TIP3    H215228   3.076   4.991   5.060 -1.6824 -1.7360  2.1018
 5091TIP3   OH215229   2.036   2.489   0.408  0.1044  0.3754 -0.0273
 5091TIP3    H115230   2.045   2.473   0.502 -1.1983  1.7956  0.3760
 5091TIP3    H215231   2.112   2.542   0.385 -0.1215  0.9270  0.4657
 5092TIP3   OH215232   7.024   3.819   3.799 -0.3632  0.4832 -0.4087
 5092TIP3    H115233   7.071   3.747   3.758  1.0339  0.2527  1.4716
 5092TIP3    H215234   7.086   3.892   3.799 -0.7324  0.8072  0.2751
 5093TIP3   OH215235   3.541   1.100   0.472  0.2063 -0.4431  0.1339
 5093TIP3    H115236   3.612   1.038   0.457  0.1723 -0.0739 -1.9956
 5093TIP3    H215237   3.524   1.137   0.385 -1.6135  0.5391  0.8571
 5094TIP3   OH215238   7.413   1.013   4.994  0.0701  0.2432  0.9316
 5094TIP3    H115239   7.344   1.080   4.988 -0.6676 -0.5123  0.6776
 5094TIP3    H215240   7.406   0.980   5.084 -0.7009 -0.6252  0.5820
 5095TIP3   OH215241   6.721   3.686   5.528 -0.4179  0.4162  0.4052
 5095TIP3    H115242   6.790   3.654   5.586  0.3937  0.1880 -0.6617
 5095TIP3    H215243   6.665   3.610   5.512 -1.0672  0.6509  1.4355
 5096TIP3   OH215244   7.851   0.092   0.279  0.3237 -0.0061  0.2647
 5096TIP3    H115245   7.910   0.040   0.224 -0.0578 -1.7175  1.3890
 5096TIP3    H215246   7.909   0.154   0.324  0.9477 -0.1526 -0.3120
 5097TIP3   OH215247   1.538   7.531   1.125  0.6161 -0.2457 -0.6768
 5097TIP3    H115248   1.496   7.560   1.206  2.0867 -0.0053  0.0387
 5097TIP3    H215249   1.540   7.435   1.132 -0.8790 -0.3621 -1.3106
 5098TIP3   OH215250   7.289   5.442   2.544 -0.7150  0.3966  0.3776
 5098TIP3    H115251   7.344   5.514   2.572 -1.0116  1.4684 -1.6391
 5098TIP3    H215252   7.252   5.471   2.461 -0.4125 -2.3028 -0.7895
 5099TIP3   OH215253   5.026   6.003   3.656  0.2820 -0.0831  0.1303
 5099TIP3    H115254   5.112   6.005   3.615  0.0888  1.5356 -0.2678
 5099TIP3    H215255   4.969   5.960   3.591  0.0620  2.1040 -1.2266
 5100TIP3   OH215256   4.977   5.376   4.885  0.3842  0.0965 -0.2441
 5100TIP3    H115257   4.916   5.449   4.885  1.1896  0.7850 -0.8341
 5100TIP3    H215258   4.982   5.349   4.977 -0.6108  0.1803 -0.1553
 5101TIP3   OH215259   3.710   1.332   3.053 -0.0650  0.1673 -0.2153
 5101TIP3    H115260   3.732   1.271   2.982 -0.9206  0.3900 -0.6820
 5101TIP3    H215261   3.704   1.417   3.010 -0.8435  0.2622  0.0668
 5102TIP3   OH215262   1.495   2.133   4.133 -0.3664 -0.1896 -0.7243
 5102TIP3    H115263   1.524   2.078   4.207 -1.1673 -0.2258 -0.4318
 5102TIP3    H215264   1.512   2.079   4.056 -0.9915 -0.7979 -0.4524
 5103TIP3   OH215265   6.925   7.077   6.418  0.1582  0.3532 -0.1093
 5103TIP3    H115266   6.889   6.989   6.417  0.3635  0.2683 -0.7593
 5103TIP3    H215267   6.883   7.120   6.492  0.8185 -0.5997  0.8515
 5104TIP3   OH215268   3.887   7.308   1.240 -0.0415  0.4997  0.2745
 5104TIP3    H115269   3.939   7.234   1.208 -1.6944 -0.6448  0.1020
 5104TIP3    H215270   3.950   7.363   1.287  1.0507 -1.7174  1.5995
 5105TIP3   OH215271   7.246   4.100   3.412  0.1355  0.1453 -0.1070
 5105TIP3    H115272   7.236   4.187   3.450 -0.8401  0.0601 -0.1380
 5105TIP3    H215273   7.296   4.050   3.477 -3.0389 -0.5521  2.0334
 5106TIP3   OH215274   6.502   3.479   1.982 -0.5721 -0.3211 -0.8386
 5106TIP3    H115275   6.459   3.558   1.950 -2.7363 -0.7888  0.6449
 5106TIP3    H215276   6.573   3.463   1.920 -1.4980  1.4955 -2.4703
 5107TIP3   OH215277   2.344   4.950   3.088  0.2871  0.1321  0.3581
 5107TIP3    H115278   2.319   4.986   3.003  0.6777 -0.0282  0.1719
 5107TIP3    H215279   2.438   4.965   3.093  0.2836  0.0422  0.7183
 5108TIP3   OH215280   0.599   2.234   0.195 -0.0608  0.1041  0.1922
 5108TIP3    H115281   0.656   2.175   0.147 -0.5126  0.3142 -0.6202
 5108TIP3    H215282   0.594   2.313   0.140 -0.2216  0.5255  0.7993
 5109TIP3   OH215283   2.974   2.685   6.204  0.1400 -0.5437 -0.9733
 5109TIP3    H115284   3.039   2.705   6.136 -0.5272 -2.6765 -2.3242
 5109TIP3    H215285   3.012   2.613   6.253  0.6228  0.9908  1.0385
 5110TIP3   OH215286   8.190   3.740   5.074  0.0455 -0.5945 -0.5709
 5110TIP3    H115287   8.260   3.797   5.043 -1.3143  1.7009  0.2971
 5110TIP3    H215288   8.217   3.714   5.162 -0.5803  1.1524  0.1863
 5111TIP3   OH215289   1.421   2.199   2.017 -1.2162 -0.0256  0.4455
 5111TIP3    H115290   1.435   2.104   2.027 -2.0588 -0.0700  1.3952
 5111TIP3    H215291   1.398   2.229   2.105 -1.4992  0.9686  0.0439
 5112TIP3   OH215292   6.336   5.946   2.017  0.0503  0.3616  0.3061
 5112TIP3    H115293   6.392   5.948   1.939 -1.2260  0.3142 -0.6489
 5112TIP3    H215294   6.286   5.865   2.008  0.3549  0.0207  1.5316
 5113TIP3   OH215295   6.135   4.361   2.174 -0.5750  0.8325  0.1644
 5113TIP3    H115296   6.203   4.313   2.127  1.9522  2.7556  1.5910
 5113TIP3    H215297   6.105   4.299   2.241 -2.7515 -1.1939 -2.4724
 5114TIP3   OH215298   6.906   7.636   1.583 -0.3754 -0.0213 -0.0216
 5114TIP3    H115299   6.998   7.626   1.606 -0.2668  1.1948  0.1144
 5114TIP3    H215300   6.877   7.715   1.629 -1.0004  0.6354 -1.4678
 5115TIP3   OH215301   3.691   5.420   0.216 -0.3494 -0.1672  0.2600
 5115TIP3    H115302   3.686   5.327   0.197 -1.8880 -0.4137  1.5522
 5115TIP3    H215303   3.706   5.424   0.311  0.1455  0.9036  0.1510
 5116TIP3   OH215304   4.710   7.397   4.788 -0.3968  0.3209  0.1933
 5116TIP3    H115305   4.801   7.417   4.812  0.2107 -1.2920 -0.6545
 5116TIP3    H215306   4.686   7.324   4.844 -0.5743 -0.3775 -0.7668
 5117TIP3   OH215307   5.440   1.894   2.766 -0.1430 -0.6267 -0.4354
 5117TIP3    H115308   5.406   1.807   2.786  1.6854 -1.2986 -0.0528
 5117TIP3    H215309   5.471   1.927   2.851 -1.3037  0.6318 -0.4827
 5118TIP3   OH215310   2.829   5.817   1.412  0.5222 -0.2608  0.1424
 5118TIP3    H115311   2.826   5.781   1.501  1.7880 -0.9602 -0.0795
 5118TIP3    H215312   2.771   5.894   1.415  0.0242 -0.6626  1.3835
 5119TIP3   OH215313   6.412   4.687   5.492  0.1296 -0.4389 -0.4727
 5119TIP3    H115314   6.431   4.758   5.554 -1.3123  0.1924 -0.7300
 5119TIP3    H215315   6.372   4.619   5.546  0.0389 -0.4086 -0.5028
 5120TIP3   OH215316   7.302   1.227   3.902  0.2722  0.0013  0.3271
 5120TIP3    H115317   7.347   1.155   3.858 -0.1138 -0.7262  1.0785
 5120TIP3    H215318   7.213   1.224   3.868  0.5606  0.9209 -0.5522
 5121TIP3   OH215319   7.629   1.289   3.785  0.2391  0.4733 -0.2018
 5121TIP3    H115320   7.538   1.263   3.795  0.8973 -1.7803  0.4670
 5121TIP3    H215321   7.669   1.271   3.870  1.6825 -0.4046 -1.0167
 5122TIP3   OH215322   3.919   0.562   1.504 -0.1729 -0.1205  0.0324
 5122TIP3    H115323   3.892   0.549   1.413  2.3208  0.5760 -0.8678
 5122TIP3    H215324   3.860   0.630   1.537 -0.2514  0.5775 -1.4908
 5123TIP3   OH215325   0.799   5.287   3.400 -0.2482 -0.1884 -0.2757
 5123TIP3    H115326   0.796   5.271   3.494 -1.4816  0.4233 -0.1968
 5123TIP3    H215327   0.817   5.201   3.362 -2.0047 -0.9074  0.4016
 5124TIP3   OH215328   1.335   4.832   2.590  0.0517 -0.0836  0.8249
 5124TIP3    H115329   1.380   4.805   2.670  0.2825  1.1211  1.1177
 5124TIP3    H215330   1.359   4.924   2.578  0.7382 -0.4587 -1.1035
 5125TIP3   OH215331   4.889   1.713   6.191  0.1067  0.2265 -0.6035
 5125TIP3    H115332   4.876   1.649   6.261 -0.7085  1.0731  0.0453
 5125TIP3    H215333   4.984   1.723   6.184  0.1885  0.2746  0.5149
 5126TIP3   OH215334   7.439   5.418   2.009 -0.0889  0.1427  0.2562
 5126TIP3    H115335   7.492   5.344   2.039 -0.2065  0.1374  0.4544
 5126TIP3    H215336   7.349   5.384   2.009  0.0282 -0.2773 -1.3605
 5127TIP3   OH215337   2.013   2.189   3.544  1.1099 -0.2653  0.4995
 5127TIP3    H115338   1.990   2.281   3.553 -0.0071 -0.5817  1.0148
 5127TIP3    H215339   2.099   2.181   3.586  0.5730  0.2673  1.7312
 5128TIP3   OH215340   3.920   5.109   5.864  0.0411 -0.1234 -0.3037
 5128TIP3    H115341   3.909   5.054   5.786 -0.5729  0.7166 -0.8148
 5128TIP3    H215342   4.003   5.154   5.850 -0.2490  0.3026 -0.6383
 5129TIP3   OH215343   3.983   6.868   1.747  0.3403  0.7277  0.0466
 5129TIP3    H115344   3.953   6.778   1.736  0.7028  0.8661 -3.2286
 5129TIP3    H215345   3.911   6.913   1.791 -0.8338 -0.6876 -0.3743
 5130TIP3   OH215346   7.518   1.558   4.326 -0.4134  0.2783 -0.3286
 5130TIP3    H115347   7.502   1.465   4.340  2.1870 -0.0473  1.0665
 5130TIP3    H215348   7.579   1.562   4.253 -1.1686  0.9636 -0.9403
 5131TIP3   OH215349   4.715   2.191   1.791  0.1494 -0.1514 -0.4909
 5131TIP3    H115350   4.627   2.229   1.797  0.8900  1.7580 -0.9467
 5131TIP3    H215351   4.753   2.206   1.877  0.2242 -0.4423 -0.4747
 5132TIP3   OH215352   3.672   1.444   2.547  0.1127 -0.2856 -0.6526
 5132TIP3    H115353   3.726   1.386   2.600 -0.9120 -0.6414  0.0475
 5132TIP3    H215354   3.682   1.530   2.587  1.6867  0.0654 -1.7324
 5133TIP3   OH215355   1.793   0.565   0.106  0.2242 -0.1994 -0.7839
 5133TIP3    H115356   1.821   0.488   0.056  0.1363 -0.7071 -0.0643
 5133TIP3    H215357   1.867   0.584   0.164  0.4448  0.5648 -1.3019
 5134TIP3   OH215358   7.239   6.031   5.897  0.0426  0.6632  0.0503
 5134TIP3    H115359   7.179   6.059   5.828 -0.8797  1.9768  1.3391
 5134TIP3    H215360   7.250   6.108   5.953 -0.2041 -0.6822  2.0679
 5135TIP3   OH215361   3.875   5.205   3.643  0.3429  0.1858 -0.3738
 5135TIP3    H115362   3.866   5.210   3.738 -2.7436  0.1570 -0.5640
 5135TIP3    H215363   3.962   5.166   3.629 -0.1588 -2.3572  2.5214
 5136TIP3   OH215364   3.686   5.262   4.481  0.1553  0.8271 -0.0005
 5136TIP3    H115365   3.657   5.175   4.453  2.4992 -0.1174  0.2609
 5136TIP3    H215366   3.719   5.303   4.401  1.6375  0.3335  0.3238
 5137TIP3   OH215367   3.739   7.642   0.324 -0.5292 -0.0797  0.2387
 5137TIP3    H115368   3.697   7.676   0.245  0.0993  0.0155 -0.0631
 5137TIP3    H215369   3.731   7.547   0.317 -0.7952 -0.0559  0.2384
 5138TIP3   OH215370   1.188   0.523   1.538 -0.3791  0.4212  0.1483
 5138TIP3    H115371   1.240   0.558   1.465 -0.1385  0.1458  0.1853
 5138TIP3    H215372   1.223   0.569   1.615  1.0918 -1.0751  0.4344
 5139TIP3   OH215373   5.253   2.265   0.194 -0.2269 -0.1499 -0.4811
 5139TIP3    H115374   5.166   2.288   0.225  0.4368  2.5501 -0.3229
 5139TIP3    H215375   5.313   2.317   0.248  1.2331  0.9772 -2.9476
 5140TIP3   OH215376   4.859   4.973   0.532 -0.0591  0.1877  0.3615
 5140TIP3    H115377   4.782   5.027   0.517  0.3376  0.4889 -0.6352
 5140TIP3    H215378   4.918   5.028   0.584  0.4171  0.8073 -0.7948
 5141TIP3   OH215379   6.562   4.213   0.168 -0.1495  0.5571  0.4013
 5141TIP3    H115380   6.651   4.245   0.183 -0.4110  1.0464  0.9635
 5141TIP3    H215381   6.551   4.141   0.229 -0.2745  0.7548  0.6123
 5142TIP3   OH215382   4.326   6.428   0.912  0.2336  0.1090 -0.2728
 5142TIP3    H115383   4.346   6.339   0.940  0.6139  0.3815  0.3267
 5142TIP3    H215384   4.400   6.452   0.856 -0.2549 -0.2311 -1.0901
 5143TIP3   OH215385   1.352   2.499   0.615  0.1506  0.0580 -0.1526
 5143TIP3    H115386   1.359   2.517   0.522  0.4977  0.7082 -0.0040
 5143TIP3    H215387   1.433   2.454   0.638 -0.0332 -0.3052 -0.2073
 5144TIP3   OH215388   1.698   0.676   2.178 -0.4747 -0.3044 -0.1852
 5144TIP3    H115389   1.719   0.633   2.261  1.4189 -0.2155 -0.5802
 5144TIP3    H215390   1.739   0.762   2.184  0.7396 -0.7506 -1.6693
 5145TIP3   OH215391   5.011   2.221   2.902 -0.0660 -0.1788  1.1775
 5145TIP3    H115392   5.079   2.236   2.836 -1.6077 -1.5485 -0.8388
 5145TIP3    H215393   5.004   2.305   2.949 -1.2571  2.1118 -2.6952
 5146TIP3   OH215394   2.035   0.968   1.707 -0.1330  0.6020 -1.1452
 5146TIP3    H115395   1.965   0.909   1.734 -0.7845  1.2339 -1.4321
 5146TIP3    H215396   2.096   0.913   1.658 -0.2727 -0.0103 -0.6496
 5147TIP3   OH215397   2.157   2.353   1.598  0.0685 -0.3066  0.4012
 5147TIP3    H115398   2.216   2.420   1.565 -1.0245  0.2554 -0.4538
 5147TIP3    H215399   2.103   2.398   1.663  0.9160 -0.9482  1.5900
 5148TIP3   OH215400   6.828   0.149   4.293  0.0611  0.1559 -0.8973
 5148TIP3    H115401   6.793   0.219   4.348  0.1934 -0.5832  0.1380
 5148TIP3    H215402   6.852   0.194   4.212  1.6467  1.6235  0.3139
 5149TIP3   OH215403   6.098   4.404   4.457 -0.1955 -0.5215 -0.2742
 5149TIP3    H115404   6.117   4.469   4.524 -0.7451  0.2443 -0.8453
 5149TIP3    H215405   6.069   4.455   4.381  0.0311 -1.3894 -0.9659
 5150TIP3   OH215406   0.376   2.189   4.560  0.6429 -0.4576  0.0491
 5150TIP3    H115407   0.290   2.162   4.592  0.8932  0.1301  1.2985
 5150TIP3    H215408   0.438   2.139   4.613  1.1039 -1.4044 -1.3165
 5151TIP3   OH215409   7.929   1.984   4.650  0.3346 -0.0889 -0.4066
 5151TIP3    H115410   7.988   2.054   4.678 -0.5009  0.5201 -0.1413
 5151TIP3    H215411   7.933   1.920   4.720  1.6102 -0.6371 -0.9506
 5152TIP3   OH215412   2.968   1.121   3.682 -0.0443  0.0064 -0.3263
 5152TIP3    H115413   2.999   1.171   3.607 -1.7954  3.3917  0.9907
 5152TIP3    H215414   3.043   1.119   3.742  0.5503 -0.4343 -1.0739
 5153TIP3   OH215415   7.261   3.313   0.918  0.3318 -0.2534 -0.5403
 5153TIP3    H115416   7.289   3.404   0.915 -0.9194  0.1449 -0.6525
 5153TIP3    H215417   7.342   3.262   0.908  1.2083  0.8192  0.7777
 5154TIP3   OH215418   4.929   6.623   0.963 -0.3851 -0.0335  0.1886
 5154TIP3    H115419   4.892   6.618   1.051 -1.4076 -1.8548 -0.2998
 5154TIP3    H215420   4.873   6.686   0.917 -0.2167  0.4633  0.6510
 5155TIP3   OH215421   0.099   2.856   3.751 -0.3352  0.1518  0.0972
 5155TIP3    H115422   0.114   2.864   3.657  1.1462  0.0194  0.3060
 5155TIP3    H215423   0.013   2.896   3.765 -0.0771  1.2046 -1.1475
 5156TIP3   OH215424   4.132   4.709   1.937  0.3259  0.0868  0.5966
 5156TIP3    H115425   4.054   4.763   1.922 -0.2400 -0.3940  1.7202
 5156TIP3    H215426   4.174   4.703   1.851 -0.9759  0.1844 -0.0638
 5157TIP3   OH215427   7.978   1.237   2.354  0.1552 -0.1363 -0.1481
 5157TIP3    H115428   7.993   1.220   2.447  3.4659 -0.1881 -0.5575
 5157TIP3    H215429   7.971   1.333   2.349  1.0986 -0.0426  0.0706
 5158TIP3   OH215430   3.773   7.295   5.890 -0.3154 -0.5094 -0.4148
 5158TIP3    H115431   3.682   7.294   5.862  0.3544 -0.4317 -2.8192
 5158TIP3    H215432   3.770   7.273   5.983 -2.9401  1.8255  0.1731
 5159TIP3   OH215433   7.662   3.384   1.464  0.1696  0.5911 -0.1502
 5159TIP3    H115434   7.615   3.451   1.415  1.2308  1.8732  0.5097
 5159TIP3    H215435   7.607   3.366   1.539 -0.6384 -0.0957 -0.8936
 5160TIP3   OH215436   1.727   5.413   2.637 -0.0333  0.0035 -0.2391
 5160TIP3    H115437   1.717   5.378   2.548  0.4918  0.6329 -0.5600
 5160TIP3    H215438   1.751   5.337   2.690  3.7350  0.1601 -1.4047
 5161TIP3   OH215439   3.226   7.169   1.885  0.5843 -0.6007 -0.5414
 5161TIP3    H115440   3.292   7.099   1.886 -0.4658 -1.6364  0.5280
 5161TIP3    H215441   3.245   7.221   1.963  1.9507  0.9597 -1.8304
 5162TIP3   OH215442   1.840   7.551   3.285 -0.3096 -0.1336  0.2032
 5162TIP3    H115443   1.760   7.499   3.278  0.1793 -0.9627  0.6961
 5162TIP3    H215444   1.824   7.609   3.360 -0.7849  0.3213 -0.2400
 5163TIP3   OH215445   7.912   6.546   6.022  0.1158  0.1130  0.2343
 5163TIP3    H115446   7.903   6.632   5.980  2.4764 -0.2359 -1.1848
 5163TIP3    H215447   7.866   6.486   5.963 -1.6764  0.3511  1.3102
 5164TIP3   OH215448   0.990   6.087   6.708 -0.0448  0.2092 -0.6749
 5164TIP3    H115449   1.084   6.079   6.721 -0.0836  0.3253 -0.3236
 5164TIP3    H215450   0.979   6.177   6.675 -0.2075  0.8453  1.0064
 5165TIP3   OH215451   1.208   0.204   2.472 -0.2742 -0.5213 -0.1514
 5165TIP3    H115452   1.241   0.201   2.562  0.3036 -0.7486 -0.3667
 5165TIP3    H215453   1.191   0.112   2.450 -0.3121 -0.4774 -0.3066
 5166TIP3   OH215454   6.811   1.331   2.625  0.1386  0.1250 -0.2820
 5166TIP3    H115455   6.753   1.300   2.694 -0.6258  2.1026  0.0320
 5166TIP3    H215456   6.893   1.283   2.639 -1.0804 -2.0168 -0.1618
 5167TIP3   OH215457   5.301   6.475   3.898 -0.1858  0.6757 -0.0651
 5167TIP3    H115458   5.360   6.549   3.882  1.0789 -0.3920 -0.5914
 5167TIP3    H215459   5.263   6.456   3.812  2.2949 -1.5091 -0.8286
 5168TIP3   OH215460   2.025   3.324   0.446  0.0757 -0.5320  1.0345
 5168TIP3    H115461   1.963   3.353   0.380 -0.2738  0.7702  1.8827
 5168TIP3    H215462   2.108   3.314   0.399  0.0996  1.4522  0.5746
 5169TIP3   OH215463   5.255   3.008   0.718  0.6573  0.0861  0.2472
 5169TIP3    H115464   5.251   3.103   0.707  0.8724  0.2662  1.5869
 5169TIP3    H215465   5.206   2.991   0.799 -0.3644 -1.0806 -0.5748
 5170TIP3   OH215466   4.609   0.976   6.542 -0.5743 -0.1285  0.1469
 5170TIP3    H115467   4.664   0.899   6.526  0.6665  0.6159  0.6983
 5170TIP3    H215468   4.573   0.998   6.456  1.8847  0.7557 -0.7402
 5171TIP3   OH215469   6.216   1.155   5.260  0.1220 -0.6303  0.1259
 5171TIP3    H115470   6.283   1.088   5.269  0.5221 -0.1459  0.8865
 5171TIP3    H215471   6.165   1.150   5.340 -1.3102 -1.5492 -0.7921
 5172TIP3   OH215472   0.809   1.693   4.524  0.2206 -0.3554 -0.0106
 5172TIP3    H115473   0.751   1.661   4.593  0.6804 -1.1425  0.0208
 5172TIP3    H215474   0.799   1.788   4.527 -0.3600 -0.4277  0.6137
 5173TIP3   OH215475   4.463   1.466   0.285 -0.3845  0.1983 -0.3347
 5173TIP3    H115476   4.517   1.415   0.346 -0.4568 -0.4231 -0.7773
 5173TIP3    H215477   4.503   1.451   0.200  0.2485  1.7743 -0.3485
 5174TIP3   OH215478   8.176   0.222   4.971  0.4747 -0.7584  0.3541
 5174TIP3    H115479   8.113   0.169   4.923  0.8704 -1.0939  0.1946
 5174TIP3    H215480   8.129   0.302   4.994 -0.1805 -1.2570  0.7600
 5175TIP3   OH215481   1.055   4.557   3.459 -0.2727 -0.4357 -0.3955
 5175TIP3    H115482   1.080   4.511   3.379  0.6577  1.5788 -1.3473
 5175TIP3    H215483   1.090   4.645   3.447 -2.1992  0.6225  1.2026
 5176TIP3   OH215484   4.257   0.859   6.611  0.2530 -0.0665 -0.2812
 5176TIP3    H115485   4.196   0.919   6.654 -0.1020  0.9065 -2.0861
 5176TIP3    H215486   4.338   0.867   6.661 -0.4267  0.2819  0.7988
 5177TIP3   OH215487   4.972   6.759   0.527  0.1474  0.2121  0.0544
 5177TIP3    H115488   4.990   6.681   0.579 -1.2355 -0.6130 -0.6729
 5177TIP3    H215489   4.903   6.733   0.466  0.7499  1.5510 -1.2683
 5178TIP3   OH215490   2.722   3.007   2.030  0.8611  0.6801  0.2860
 5178TIP3    H115491   2.764   3.028   1.946  0.5110 -0.7760 -0.2728
 5178TIP3    H215492   2.793   3.016   2.094  1.3859  0.7783 -0.2941
 5179TIP3   OH215493   5.613   4.023   6.582  0.1192  0.0898  0.3797
 5179TIP3    H115494   5.548   3.959   6.612 -0.1548 -0.2706 -0.9126
 5179TIP3    H215495   5.589   4.039   6.490  0.0328  2.2378  0.7380
 5180TIP3   OH215496   1.090   1.368   1.773 -0.4483  0.1516  0.0470
 5180TIP3    H115497   1.118   1.416   1.850 -1.1220 -0.2594  0.5634
 5180TIP3    H215498   1.106   1.428   1.700  0.6264  0.3679  0.4395
 5181TIP3   OH215499   1.834   4.914   5.182 -0.3214 -0.5546 -0.1331
 5181TIP3    H115500   1.780   4.890   5.258  0.7478 -0.6332  0.6294
 5181TIP3    H215501   1.835   5.010   5.184 -0.1504 -0.5573  0.0760
 5182TIP3   OH215502   0.031   3.454   5.826 -0.5649  0.3295  0.0703
 5182TIP3    H115503   0.103   3.475   5.767  0.2033  1.7428  1.4553
 5182TIP3    H215504   0.065   3.384   5.882 -0.9972 -0.4131 -0.5742
 5183TIP3   OH215505   1.226   5.232   1.442  0.0539 -0.1459  0.2752
 5183TIP3    H115506   1.158   5.270   1.497 -0.1530  0.0392 -0.1019
 5183TIP3    H215507   1.308   5.263   1.481 -0.0844 -0.1342  0.5599
 5184TIP3   OH215508   5.147   4.517   4.304  0.1032 -0.0190  0.9303
 5184TIP3    H115509   5.142   4.423   4.321 -0.4522 -0.5856 -1.8134
 5184TIP3    H215510   5.240   4.534   4.289 -0.0493 -0.7925 -1.3172
 5185TIP3   OH215511   0.314   3.952   2.979  0.0251  0.3498  0.4942
 5185TIP3    H115512   0.407   3.969   2.996  0.2982 -1.1434  0.6402
 5185TIP3    H215513   0.304   3.965   2.885  0.2680  1.0459  0.5630
 5186TIP3   OH215514   3.023   1.599   5.564 -0.4119  0.3907 -0.0337
 5186TIP3    H115515   2.983   1.669   5.616  2.7609 -0.1667  3.5983
 5186TIP3    H215516   3.100   1.640   5.523  1.1408 -0.6657  1.6523
 5187TIP3   OH215517   5.599   2.293   0.901  0.2542  0.3857 -0.0725
 5187TIP3    H115518   5.631   2.375   0.864 -0.3396  0.0433 -1.4353
 5187TIP3    H215519   5.506   2.309   0.919  0.1048 -0.0016 -0.4555
 5188TIP3   OH215520   2.483   5.111   5.892 -0.5509 -0.0054 -0.2958
 5188TIP3    H115521   2.480   5.017   5.877 -1.7497 -0.0493  0.0995
 5188TIP3    H215522   2.524   5.121   5.978 -1.2403 -0.2200  0.0603
 5189TIP3   OH215523   5.683   7.771   0.960 -0.4066  0.3514  0.4244
 5189TIP3    H115524   5.775   7.747   0.956 -0.7868 -1.4637  1.4741
 5189TIP3    H215525   5.655   7.745   1.048 -1.7704  1.4877  0.3683
 5190TIP3   OH215526   7.714   5.049   3.902  0.2374  0.2963 -0.2584
 5190TIP3    H115527   7.704   5.045   3.806  1.5362 -0.3852 -0.3938
 5190TIP3    H215528   7.695   4.960   3.931 -1.8068  0.8886  0.3323
 5191TIP3   OH215529   3.341   5.655   3.337 -0.6651 -0.3473 -0.6286
 5191TIP3    H115530   3.250   5.671   3.360 -0.5434 -0.8861  0.2461
 5191TIP3    H215531   3.337   5.584   3.272 -0.8687 -0.2933 -0.6767
 5192TIP3   OH215532   3.137   3.035   5.426 -0.2511  0.4527 -0.5596
 5192TIP3    H115533   3.179   3.056   5.510 -2.3385  2.0458  0.1715
 5192TIP3    H215534   3.156   3.111   5.371  1.0777 -0.5709 -1.5660
 5193TIP3   OH215535   3.014   3.312   1.238 -0.1230  0.1337  0.5921
 5193TIP3    H115536   3.053   3.350   1.317  0.5071  1.0781 -0.1576
 5193TIP3    H215537   2.920   3.319   1.253 -0.0145 -0.0619  1.4326
 5194TIP3   OH215538   1.495   0.638   1.025 -0.1272 -0.1151 -0.1436
 5194TIP3    H115539   1.417   0.671   1.069 -0.4461  0.4092 -1.0806
 5194TIP3    H215540   1.468   0.624   0.934  1.8030  3.8403 -1.5254
 5195TIP3   OH215541   1.751   6.037   5.261  0.5048 -0.2590  0.1712
 5195TIP3    H115542   1.800   6.053   5.341 -0.7500 -0.0033  0.9090
 5195TIP3    H215543   1.696   5.962   5.280 -0.4212  0.3193 -0.1491
 5196TIP3   OH215544   5.558   3.111   5.165 -0.0014 -0.1297  0.5810
 5196TIP3    H115545   5.578   3.020   5.186 -0.5161 -0.1351  1.0793
 5196TIP3    H215546   5.463   3.116   5.169 -0.3478 -0.5003 -3.3907
 5197TIP3   OH215547   5.198   7.691   0.085  0.1532 -0.6778 -0.0356
 5197TIP3    H115548   5.141   7.747   0.032  0.9547 -0.8727 -1.1195
 5197TIP3    H215549   5.254   7.647   0.022 -1.3154 -3.7609  0.6378
 5198TIP3   OH215550   5.824   6.775   5.149 -0.0416 -0.1393  0.0626
 5198TIP3    H115551   5.815   6.778   5.053 -2.0963 -2.0213  0.0934
 5198TIP3    H215552   5.884   6.702   5.164 -1.3803 -1.2696  0.1758
 5199TIP3   OH215553   8.202   4.620   4.928  0.0464  0.0985 -0.2276
 5199TIP3    H115554   8.275   4.661   4.882 -0.4452  1.6341  0.2683
 5199TIP3    H215555   8.156   4.569   4.861  1.6795 -1.0709 -0.4880
 5200TIP3   OH215556   5.609   5.758   5.921 -0.0978  0.0278  0.2819
 5200TIP3    H115557   5.573   5.745   6.009  0.5679 -0.5417  0.4852
 5200TIP3    H215558   5.641   5.671   5.896  0.6853  0.4108 -0.0809
 5201TIP3   OH215559   1.778   2.446   2.991 -0.3490 -0.0762 -0.0939
 5201TIP3    H115560   1.777   2.381   3.062 -1.5479 -0.8560 -0.7877
 5201TIP3    H215561   1.838   2.514   3.022 -0.2138 -0.7901  1.3090
 5202TIP3   OH215562   5.903   1.940   0.035  0.2035 -0.1579  0.2011
 5202TIP3    H115563   5.820   1.909  -0.001 -0.3250 -0.9193  1.9728
 5202TIP3    H215564   5.924   1.878   0.105 -0.1094  2.5123  2.8938
 5203TIP3   OH215565   3.067   1.772   3.350  0.2490  0.2263 -0.1377
 5203TIP3    H115566   3.050   1.709   3.281 -0.9164 -1.0121  1.2182
 5203TIP3    H215567   3.011   1.744   3.423  1.0893  1.7366  1.1550
 5204TIP3   OH215568   6.752   1.358   2.331  0.2763 -0.0596  0.0012
 5204TIP3    H115569   6.784   1.323   2.414  0.9516 -0.9549 -0.6050
 5204TIP3    H215570   6.659   1.375   2.346  0.3488 -0.3905  0.8831
 5205TIP3   OH215571   6.794   4.131   3.982  0.0224 -0.3662 -0.1968
 5205TIP3    H115572   6.718   4.080   3.952 -0.5528  1.0503 -1.2731
 5205TIP3    H215573   6.759   4.217   4.003  1.3652  0.4202 -1.0110
 5206TIP3   OH215574   5.964   0.433   6.639 -0.2482  0.7905  0.1061
 5206TIP3    H115575   6.042   0.451   6.693 -0.0645 -0.8477  0.4493
 5206TIP3    H215576   5.892   0.432   6.702  0.1250 -2.3758  0.6696
 5207TIP3   OH215577   7.723   2.512   3.132  0.0542  1.0228  0.2798
 5207TIP3    H115578   7.672   2.531   3.054 -0.1902  2.1287  0.7025
 5207TIP3    H215579   7.709   2.418   3.148 -0.8656  1.0605 -0.2908
 5208TIP3   OH215580   2.211   3.410   1.402 -0.6891  0.1930 -0.7061
 5208TIP3    H115581   2.176   3.351   1.335  0.5643 -3.0664  1.2483
 5208TIP3    H215582   2.151   3.400   1.476  0.6974 -0.2927  0.3831
 5209TIP3   OH215583   6.853   3.016   3.908  0.0585 -0.4539  0.2302
 5209TIP3    H115584   6.889   3.073   3.977  0.4028 -0.3347 -0.0436
 5209TIP3    H215585   6.881   3.058   3.826 -1.0203 -0.1547  0.0019
 5210TIP3   OH215586   6.552   3.574   0.160 -0.6403 -0.2007 -0.0208
 5210TIP3    H115587   6.627   3.580   0.100 -1.5894 -0.3969 -1.2809
 5210TIP3    H215588   6.516   3.663   0.162  0.2415  0.1545  1.4544
 5211TIP3   OH215589   2.580   7.472   4.359 -0.2830  0.3738  0.3514
 5211TIP3    H115590   2.610   7.415   4.288 -1.6105 -0.6236  0.5444
 5211TIP3    H215591   2.514   7.420   4.405 -1.0277  1.8080  0.9782
 5212TIP3   OH215592   1.567   3.081   4.185  0.1772 -0.0847  0.1109
 5212TIP3    H115593   1.584   3.023   4.110 -2.2128 -0.1390 -0.4706
 5212TIP3    H215594   1.609   3.038   4.259  1.5749 -0.6440 -0.9552
 5213TIP3   OH215595   1.455   4.008   6.027  0.4267 -0.0641 -0.0079
 5213TIP3    H115596   1.494   4.090   6.057 -0.9891  0.5124  0.3351
 5213TIP3    H215597   1.367   4.009   6.064  0.7584 -2.3092  1.0029
 5214TIP3   OH215598   7.869   2.542   1.061  0.0347  0.2011 -0.5649
 5214TIP3    H115599   7.802   2.563   0.996 -2.2521  0.5291  1.7340
 5214TIP3    H215600   7.864   2.447   1.072 -3.3937  0.5410  2.7054
 5215TIP3   OH215601   3.761   4.354   5.602  0.4355 -0.4026 -0.5628
 5215TIP3    H115602   3.716   4.337   5.519  1.7927  0.2927 -1.4739
 5215TIP3    H215603   3.830   4.416   5.580  0.5789  0.1037  1.1792
 5216TIP3   OH215604   6.842   5.844   1.565  0.2900  0.1842 -0.2420
 5216TIP3    H115605   6.810   5.754   1.567 -0.9443  0.6049  0.5879
 5216TIP3    H215606   6.826   5.874   1.476  1.5352 -0.6748 -0.7829
 5217TIP3   OH215607   2.053   0.417   6.036  0.3348 -0.0325 -0.0687
 5217TIP3    H115608   2.088   0.357   6.102  2.3219 -0.7876 -1.7046
 5217TIP3    H215609   1.973   0.375   6.005 -1.0426  0.6698  2.2405
 5218TIP3   OH215610   4.189   3.966   0.647 -0.1880  0.5831  0.6872
 5218TIP3    H115611   4.166   3.873   0.659 -0.9985  0.8080  0.9709
 5218TIP3    H215612   4.279   3.972   0.679 -0.2991 -0.0127  1.1474
 5219TIP3   OH215613   6.926   0.157   3.027 -0.5157  0.9329  0.5021
 5219TIP3    H115614   6.944   0.073   2.984  1.7772  0.7179  1.7202
 5219TIP3    H215615   6.999   0.213   3.000 -1.6369  2.3321  0.2778
 5220TIP3   OH215616   6.991   2.490   3.855  0.3685  0.0315  0.2874
 5220TIP3    H115617   6.961   2.579   3.841 -0.6141 -0.1154  1.3678
 5220TIP3    H215618   7.069   2.500   3.911 -0.2503  0.1790  1.1432
 5221TIP3   OH215619   1.498   7.138   5.204  0.3160  0.0112  0.3225
 5221TIP3    H115620   1.530   7.193   5.132  0.1064 -0.5632 -0.2239
 5221TIP3    H215621   1.408   7.116   5.179  0.0304  0.3171  1.0717
 5222TIP3   OH215622   4.461   5.611   3.967 -0.4642 -0.6152 -0.2995
 5222TIP3    H115623   4.526   5.559   4.015  0.8657  0.6331 -0.6921
 5222TIP3    H215624   4.381   5.603   4.019  0.5915 -0.3819  1.4356
 5223TIP3   OH215625   0.624   6.802   4.122  0.1351  0.1898 -0.3011
 5223TIP3    H115626   0.582   6.845   4.047  0.3577 -0.5806 -0.8847
 5223TIP3    H215627   0.706   6.768   4.087  1.5667  2.1571  0.9517
 5224TIP3   OH215628   7.918   3.711   5.180  0.1576 -0.2298 -0.0788
 5224TIP3    H115629   8.006   3.720   5.144  0.7176  1.0313  1.4842
 5224TIP3    H215630   7.927   3.645   5.249 -0.2409 -0.4711 -0.2541
 5225TIP3   OH215631   7.725   1.266   1.059  0.6701  0.3928 -0.5721
 5225TIP3    H115632   7.804   1.275   1.112 -0.1627  2.1860  0.4536
 5225TIP3    H215633   7.733   1.334   0.992  0.5959 -0.2973 -1.3008
 5226TIP3   OH215634   2.803   3.544   5.676 -0.7327  0.1036 -0.2862
 5226TIP3    H115635   2.887   3.578   5.706 -0.5670 -0.2766 -0.3071
 5226TIP3    H215636   2.785   3.470   5.734 -0.9987  0.1204 -0.3490
 5227TIP3   OH215637   5.065   6.876   3.977  0.1328 -0.5994 -0.7372
 5227TIP3    H115638   5.115   6.956   3.961  0.0874 -0.6610 -1.2168
 5227TIP3    H215639   5.115   6.830   4.044 -0.8068  0.6776  0.9118
 5228TIP3   OH215640   6.742   7.286   5.591  0.2298  0.1397 -0.1556
 5228TIP3    H115641   6.810   7.258   5.530  0.4326  0.2546  0.0166
 5228TIP3    H215642   6.760   7.237   5.671  1.5207  1.8538  0.6728
 5229TIP3   OH215643   1.457   3.139   0.691  0.4971  0.4568  0.5029
 5229TIP3    H115644   1.446   3.170   0.781  0.1813  3.6814 -0.5387
 5229TIP3    H215645   1.368   3.118   0.663  0.5058  0.1595  0.6895
 5230TIP3   OH215646   3.654   2.615   5.216  0.3185 -0.1682 -0.1409
 5230TIP3    H115647   3.733   2.643   5.263  0.1505  1.0517 -0.5245
 5230TIP3    H215648   3.639   2.686   5.152 -0.1110 -1.2114 -1.2347
 5231TIP3   OH215649   4.512   6.455   4.527  0.6142  0.9320 -0.1519
 5231TIP3    H115650   4.446   6.394   4.495  0.2981  0.3152  1.5384
 5231TIP3    H215651   4.590   6.436   4.475  0.7756 -1.5368  0.8506
 5232TIP3   OH215652   6.201   3.920   2.037 -0.3313  0.3835  0.4509
 5232TIP3    H115653   6.140   3.896   1.968 -0.9584  1.0237  0.7753
 5232TIP3    H215654   6.155   3.900   2.118  1.1875 -2.4046  0.7606
 5233TIP3   OH215655   7.541   6.207   5.598 -0.2827 -0.2170  0.0335
 5233TIP3    H115656   7.584   6.129   5.632  0.5372  0.6793  1.1343
 5233TIP3    H215657   7.609   6.274   5.598 -1.5351  1.1357  1.3853
 5234TIP3   OH215658   7.152   5.972   2.310 -0.4305 -0.2250 -0.3084
 5234TIP3    H115659   7.241   5.965   2.274 -0.5928 -1.7350 -0.5047
 5234TIP3    H215660   7.165   5.984   2.404 -0.0181  1.1984 -0.5294
 5235TIP3   OH215661   3.414   6.229   4.980 -0.0262 -0.1081  0.2084
 5235TIP3    H115662   3.411   6.142   5.018 -1.6227  0.2837  1.1098
 5235TIP3    H215663   3.502   6.237   4.943  0.7193 -1.4726  1.5659
 5236TIP3   OH215664   5.526   5.138   3.922  0.1487  0.1398  0.2211
 5236TIP3    H115665   5.546   5.206   3.858  0.5141  0.8962  1.1179
 5236TIP3    H215666   5.498   5.063   3.869  0.7115  0.6474 -0.8336
 5237TIP3   OH215667   4.092   1.100   2.217  0.1952 -0.0505  0.9247
 5237TIP3    H115668   4.166   1.157   2.192 -0.2626  0.9653  1.8053
 5237TIP3    H215669   4.018   1.136   2.168  0.2384 -0.9873  0.1484
 5238TIP3   OH215670   4.494   6.580   0.331  0.0987 -0.3020  0.2014
 5238TIP3    H115671   4.536   6.592   0.417  0.7005 -1.7070  0.1323
 5238TIP3    H215672   4.565   6.589   0.268 -0.2221  0.0499 -0.1140
 5239TIP3   OH215673   1.655   2.671   2.354  0.1211  0.0638 -0.3815
 5239TIP3    H115674   1.695   2.733   2.293  1.0882 -1.0905 -0.9586
 5239TIP3    H215675   1.715   2.668   2.428 -1.3680  1.9348  0.9607
 5240TIP3   OH215676   5.733   6.010   2.090 -0.1866 -0.6648 -0.4606
 5240TIP3    H115677   5.746   6.084   2.150 -0.6999 -0.7940 -0.1812
 5240TIP3    H215678   5.691   5.943   2.144 -1.4590 -0.4664 -1.1651
 5241TIP3   OH215679   0.782   7.512   3.316 -0.0703 -0.4786  0.7049
 5241TIP3    H115680   0.752   7.469   3.396  1.2997 -1.5837  0.6600
 5241TIP3    H215681   0.721   7.482   3.249 -1.0914  0.2749  1.2651
 5242TIP3   OH215682   7.067   1.509   4.997  0.4052 -0.5982 -0.3083
 5242TIP3    H115683   7.130   1.530   4.928  1.1631  1.8318  0.9953
 5242TIP3    H215684   7.100   1.427   5.034  2.2033  0.0268 -0.4019
 5243TIP3   OH215685   3.875   7.830   2.904  0.3399  0.4591 -0.1413
 5243TIP3    H115686   3.954   7.778   2.887 -0.1664  0.4567 -2.9117
 5243TIP3    H215687   3.829   7.782   2.973  1.9367 -0.4504  0.3328
 5244TIP3   OH215688   2.419   3.045   1.948 -0.4919 -0.2835 -0.1129
 5244TIP3    H115689   2.486   3.001   2.002  1.4288 -0.6638 -2.6270
 5244TIP3    H215690   2.425   3.137   1.975  0.1347 -0.5197  0.6173
 5245TIP3   OH215691   7.211   5.822   4.920  0.8202  0.2832  0.2532
 5245TIP3    H115692   7.194   5.765   4.845 -0.2871 -1.4255  1.7116
 5245TIP3    H215693   7.125   5.837   4.959  1.3901  0.9373  1.3056
 5246TIP3   OH215694   5.476   2.787   2.087 -0.4345  0.1896 -0.9015
 5246TIP3    H115695   5.415   2.859   2.097 -0.5076  0.0494 -0.3286
 5246TIP3    H215696   5.499   2.761   2.176 -0.3710 -0.4608 -1.0975
 5247TIP3   OH215697   3.377   5.525   5.630 -0.3629  0.3653  0.3166
 5247TIP3    H115698   3.456   5.506   5.680 -0.0921  2.4036  0.7781
 5247TIP3    H215699   3.312   5.551   5.697 -0.4449  1.6826 -0.2398
 5248TIP3   OH215700   4.536   0.965   1.812  0.0101  0.0686 -0.2882
 5248TIP3    H115701   4.462   1.013   1.849 -0.2814 -1.4451  1.2000
 5248TIP3    H215702   4.563   0.905   1.881  2.5495  0.4425 -0.8492
 5249TIP3   OH215703   3.483   3.973   1.094  0.4348  0.1951  0.4848
 5249TIP3    H115704   3.532   3.913   1.038  1.0778  0.6351  0.5628
 5249TIP3    H215705   3.428   4.022   1.034 -0.6071 -0.9265  0.4884
 5250TIP3   OH215706   7.478   0.777   3.927 -0.2676  0.2595  0.1088
 5250TIP3    H115707   7.404   0.830   3.898  0.8443  0.6328 -2.3127
 5250TIP3    H215708   7.524   0.832   3.990 -1.7256  0.2138  1.2671
 5251TIP3   OH215709   6.021   2.651   6.092 -0.1249  0.2772  0.1016
 5251TIP3    H115710   6.061   2.737   6.098 -1.8782  1.0411  2.3447
 5251TIP3    H215711   6.003   2.627   6.183 -0.5094 -2.0756 -0.5302
 5252TIP3   OH215712   1.575   5.981   3.534  0.4302  0.1604  0.0229
 5252TIP3    H115713   1.629   5.958   3.610  1.3521  3.4544  0.4923
 5252TIP3    H215714   1.492   6.012   3.571 -0.0597 -0.5149 -0.4776
 5253TIP3   OH215715   1.798   6.797   1.897 -1.0234  0.1220  0.3907
 5253TIP3    H115716   1.707   6.768   1.903 -1.0039 -0.0354 -0.0365
 5253TIP3    H215717   1.846   6.720   1.867 -0.4974 -0.2321  2.0301
 5254TIP3   OH215718   3.397   0.136   0.657  0.1792  0.0556 -0.0457
 5254TIP3    H115719   3.373   0.149   0.565 -0.2086  2.3713  0.3224
 5254TIP3    H215720   3.492   0.137   0.658  0.1816  0.1405 -0.3957
 5255TIP3   OH215721   2.532   0.586   2.197  0.2242  0.2145 -0.1073
 5255TIP3    H115722   2.607   0.645   2.208  0.4653 -0.2971  1.2997
 5255TIP3    H215723   2.529   0.566   2.104  2.5922 -0.7117 -0.0362
 5256TIP3   OH215724   4.003   1.364   2.931  0.1248  0.0874  0.5583
 5256TIP3    H115725   3.913   1.360   2.898  0.6434  0.6863 -1.0162
 5256TIP3    H215726   4.055   1.320   2.863  1.0314 -0.2243  1.4372
 5257TIP3   OH215727   2.139   0.603   3.111  0.0600 -0.1649 -0.3656
 5257TIP3    H115728   2.057   0.561   3.086 -0.4501  0.4902  0.1675
 5257TIP3    H215729   2.153   0.577   3.202  0.5704 -0.4500 -0.5159
 5258TIP3   OH215730   6.745   5.096   0.315 -0.4492  0.6146 -0.4020
 5258TIP3    H115731   6.793   5.118   0.395  1.9383 -2.1089 -0.9035
 5258TIP3    H215732   6.793   5.139   0.245  0.7108 -1.2290 -0.8005
 5259TIP3   OH215733   4.250   1.296   1.861 -0.3746 -0.0285  0.8674
 5259TIP3    H115734   4.264   1.207   1.895 -0.7525  0.0733  1.3064
 5259TIP3    H215735   4.158   1.315   1.883 -0.2549  0.5214  0.8998
 5260TIP3   OH215736   8.080   4.229   2.388 -0.3957  0.4332 -0.0140
 5260TIP3    H115737   8.134   4.262   2.460  2.2342 -2.3139 -0.5196
 5260TIP3    H215738   8.000   4.197   2.431 -0.0951  1.3168  1.2745
 5261TIP3   OH215739   2.631   3.071   1.406 -0.1934 -0.0284 -0.4707
 5261TIP3    H115740   2.607   2.994   1.458  0.4076 -0.6540 -1.1046
 5261TIP3    H215741   2.666   3.133   1.470 -0.0056 -0.5589 -0.0524
 5262TIP3   OH215742   3.116   4.725   3.953 -0.1239 -0.0035 -0.0714
 5262TIP3    H115743   3.092   4.635   3.934  0.3617 -0.2054  0.2545
 5262TIP3    H215744   3.212   4.724   3.956 -0.1564  0.0123  2.4517
 5263TIP3   OH215745   6.566   7.613   1.944 -0.2417  0.1165 -0.4297
 5263TIP3    H115746   6.643   7.578   1.989 -0.9152  1.0822  1.6017
 5263TIP3    H215747   6.503   7.542   1.944 -0.6164  0.4097  1.1929
 5264TIP3   OH215748   7.500   3.259   5.773 -0.3578  0.1068 -0.0821
 5264TIP3    H115749   7.591   3.270   5.801 -0.6286  0.2915  0.7657
 5264TIP3    H215750   7.505   3.250   5.678  1.0873 -4.7733  0.1842
 5265TIP3   OH215751   2.119   5.915   6.169  0.6752  0.2378 -0.1524
 5265TIP3    H115752   2.124   5.963   6.086 -0.9218 -1.2554 -1.1862
 5265TIP3    H215753   2.129   5.983   6.236 -1.8682  2.1779 -1.5311
 5266TIP3   OH215754   4.664   0.712   1.436 -0.2689  0.1114  0.3879
 5266TIP3    H115755   4.680   0.768   1.360  0.7209 -1.1842 -0.4024
 5266TIP3    H215756   4.740   0.653   1.438 -0.2380  0.1639  2.4325
 5267TIP3   OH215757   4.293   0.461   0.495  0.4709  0.0244 -0.0777
 5267TIP3    H115758   4.311   0.399   0.566 -1.6020 -1.1841 -0.5339
 5267TIP3    H215759   4.360   0.443   0.429  0.8810 -0.5788  0.4970
 5268TIP3   OH215760   0.989   4.175   1.203  0.6473 -0.3602 -0.8496
 5268TIP3    H115761   0.978   4.089   1.244  2.6486 -0.7563 -1.0519
 5268TIP3    H215762   0.934   4.172   1.125  1.0582 -1.6428 -1.1096
 5269TIP3   OH215763   4.422   3.354   2.852 -0.1628  0.0741  0.1908
 5269TIP3    H115764   4.427   3.449   2.858  0.9877  0.1605 -1.4104
 5269TIP3    H215765   4.513   3.324   2.859 -0.5062 -0.9178  0.6883
 5270TIP3   OH215766   8.037   2.361   0.432  0.1852  0.0224  0.7947
 5270TIP3    H115767   8.008   2.422   0.365  1.0292 -1.1478 -0.7030
 5270TIP3    H215768   8.006   2.399   0.514 -1.5381  1.1176 -0.2987
 5271TIP3   OH215769   0.728   3.793   0.036 -0.7362  0.5059  0.0957
 5271TIP3    H115770   0.666   3.721   0.025  0.7358 -1.2932  2.4114
 5271TIP3    H215771   0.698   3.839   0.114 -1.5235  2.3581 -1.2293
 5272TIP3   OH215772   2.473   5.470   3.785 -0.0819  0.1631 -0.0304
 5272TIP3    H115773   2.518   5.469   3.700 -1.2389  1.2107 -0.6853
 5272TIP3    H215774   2.478   5.561   3.813  1.1221 -0.3432  1.5128
 5273TIP3   OH215775   3.314   5.351   1.726 -0.7170 -0.0178  0.5460
 5273TIP3    H115776   3.357   5.269   1.704  0.5166 -0.2461  3.3369
 5273TIP3    H215777   3.231   5.348   1.680  0.5386 -1.4300 -1.8014
 5274TIP3   OH215778   4.650   1.111   1.235 -0.1666 -0.4196 -0.2513
 5274TIP3    H115779   4.698   1.099   1.316 -1.9011 -2.2683  0.5828
 5274TIP3    H215780   4.712   1.155   1.177  2.4621 -2.4128  0.8174
 5275TIP3   OH215781   7.223   7.305   4.822 -0.0077  0.4859 -0.1916
 5275TIP3    H115782   7.316   7.315   4.842  0.0191 -1.3217  0.7672
 5275TIP3    H215783   7.221   7.274   4.731  0.2119  2.0365 -0.7560
 5276TIP3   OH215784   3.375   5.216   6.022  0.0649  0.3003 -0.1736
 5276TIP3    H115785   3.362   5.204   5.928 -2.4135  0.2681  0.1051
 5276TIP3    H215786   3.432   5.292   6.029  0.0943  0.4439 -1.6902
 5277TIP3   OH215787   0.877   7.286   5.413 -0.1312 -0.2999  0.2897
 5277TIP3    H115788   0.864   7.195   5.440 -1.9280 -0.1262  0.1327
 5277TIP3    H215789   0.942   7.320   5.475 -0.1012 -1.4187  0.9124
 5278TIP3   OH215790   7.925   3.414   5.027  0.6526  0.6581  0.0035
 5278TIP3    H115791   7.969   3.344   4.979 -0.0444 -0.1080  0.4496
 5278TIP3    H215792   7.844   3.429   4.979  0.1750  0.2196  0.6623
 5279TIP3   OH215793   3.207   3.023   0.105  0.6043 -0.4331 -0.6964
 5279TIP3    H115794   3.161   3.105   0.118  0.1301 -0.8236  0.1719
 5279TIP3    H215795   3.271   3.041   0.036  2.3590  1.4120  1.2863
 5280TIP3   OH215796   4.338   2.175   5.079  0.3259 -0.1184  0.2808
 5280TIP3    H115797   4.348   2.193   4.986 -0.4089  0.1694  0.2457
 5280TIP3    H215798   4.395   2.100   5.096 -0.3939 -0.8968 -0.6470
 5281TIP3   OH215799   7.728   4.564   2.309 -0.1856 -0.7998 -0.7236
 5281TIP3    H115800   7.756   4.488   2.259 -1.3325  0.3452 -3.3194
 5281TIP3    H215801   7.776   4.637   2.271  0.4020 -0.0722  1.2638
 5282TIP3   OH215802   2.980   2.425   2.733  1.0023  0.2633 -0.2289
 5282TIP3    H115803   2.903   2.374   2.710  1.9428 -1.0960 -0.4875
 5282TIP3    H215804   2.947   2.513   2.749 -0.4796 -0.1122 -1.0894
 5283TIP3   OH215805   5.851   4.465   2.072  0.6814  0.2929  0.1036
 5283TIP3    H115806   5.829   4.525   2.001  1.1546  0.0534 -0.2473
 5283TIP3    H215807   5.947   4.461   2.072  0.8769  2.2345  2.3707
 5284TIP3   OH215808   7.442   5.907   0.312 -0.4100  0.3652 -0.0174
 5284TIP3    H115809   7.399   5.980   0.268 -0.9336  0.3587  0.4608
 5284TIP3    H215810   7.480   5.855   0.242 -0.7240  0.6702 -0.4177
 5285TIP3   OH215811   3.220   1.679   0.520 -0.4011  0.6313  0.0344
 5285TIP3    H115812   3.263   1.715   0.442 -0.4588  1.0858  0.2140
 5285TIP3    H215813   3.286   1.685   0.589  0.0490 -0.8018 -0.2254
 5286TIP3   OH215814   6.314   4.112   6.016  0.2135 -0.0843 -0.5597
 5286TIP3    H115815   6.261   4.035   6.039  0.8157 -0.7380 -1.2843
 5286TIP3    H215816   6.251   4.174   5.980 -0.3255 -0.1130  0.2839
 5287TIP3   OH215817   0.716   0.704   0.350  0.8057  0.1909  0.8729
 5287TIP3    H115818   0.768   0.784   0.344  2.6956 -1.0672 -1.0108
 5287TIP3    H215819   0.637   0.724   0.300  0.8749  1.1267  1.1177
 5288TIP3   OH215820   1.742   7.662   1.289  0.1838 -0.6850  0.0457
 5288TIP3    H115821   1.815   7.601   1.304 -0.1351 -1.1914 -0.4014
 5288TIP3    H215822   1.695   7.624   1.215  0.2999  0.4092 -0.6160
 5289TIP3   OH215823   8.076   0.139   1.454 -0.1274  0.4391 -0.3107
 5289TIP3    H115824   8.137   0.200   1.411 -0.5444 -0.2884 -1.9981
 5289TIP3    H215825   8.072   0.064   1.396 -0.5673 -0.7051  1.1462
 5290TIP3   OH215826   3.455   3.159   5.308 -0.0703 -0.0018  0.1172
 5290TIP3    H115827   3.365   3.174   5.336 -0.3949 -0.5375 -0.6159
 5290TIP3    H215828   3.450   3.155   5.213  0.8122  0.4609  0.0415
 5291TIP3   OH215829   3.244   0.020   6.707  0.5305  0.1744 -0.5974
 5291TIP3    H115830   3.257  -0.050   6.644  0.2042 -0.4892  0.0487
 5291TIP3    H215831   3.150   0.037   6.705  0.3790 -0.4769  0.3362
 5292TIP3   OH215832   8.173   3.974   3.114 -0.0053  0.4778  0.2601
 5292TIP3    H115833   8.150   4.013   3.198 -1.2962 -0.7381  0.4901
 5292TIP3    H215834   8.190   3.882   3.133  0.0782  0.2708 -0.7419
 5293TIP3   OH215835   1.910   1.256   4.297 -0.1772 -0.2809  1.0232
 5293TIP3    H115836   1.986   1.222   4.344 -0.7806 -0.5110  1.8563
 5293TIP3    H215837   1.863   1.309   4.361 -0.2684  0.5836  0.2698
 5294TIP3   OH215838   7.557   2.809   1.804  0.9278 -0.0925  0.4104
 5294TIP3    H115839   7.608   2.754   1.744  1.1268  0.7395 -0.1975
 5294TIP3    H215840   7.484   2.753   1.831  0.6451 -0.3860 -0.8705
 5295TIP3   OH215841   2.098   7.532   0.800 -0.0383  0.0614  0.0537
 5295TIP3    H115842   2.142   7.521   0.885  1.6013 -0.3729 -0.8067
 5295TIP3    H215843   2.112   7.624   0.778 -0.5082  0.1868  0.2713
 5296TIP3   OH215844   6.195   2.495   4.280  0.1983  0.1549 -0.4018
 5296TIP3    H115845   6.187   2.441   4.358  1.0292  1.4739  0.6313
 5296TIP3    H215846   6.253   2.445   4.222 -0.7250 -1.0025 -0.3648
 5297TIP3   OH215847   7.226   5.155   4.665 -0.0384 -0.0199  0.2612
 5297TIP3    H115848   7.225   5.066   4.699 -0.2775 -0.8282 -1.7225
 5297TIP3    H215849   7.137   5.187   4.679 -0.1553 -0.3675  0.3193
 5298TIP3   OH215850   0.332   5.075   3.519  0.1324  0.9574  0.3537
 5298TIP3    H115851   0.298   5.129   3.590 -2.8601 -2.1187  1.5115
 5298TIP3    H215852   0.407   5.029   3.556 -0.5380  0.4368  1.0752
 5299TIP3   OH215853   8.105   2.603   6.771  0.1406 -0.3035 -0.2070
 5299TIP3    H115854   8.100   2.689   6.729 -0.9695 -0.2273  0.0581
 5299TIP3    H215855   8.064   2.543   6.709  2.7345 -1.0426 -1.3170
 5300TIP3   OH215856   3.916   1.190   5.135  0.1665  0.1840  0.0431
 5300TIP3    H115857   3.828   1.176   5.101  0.4091  0.0570 -0.5435
 5300TIP3    H215858   3.923   1.285   5.146  0.9052  0.5378 -2.6137
 5301TIP3   OH215859   1.945   6.815   2.629  0.2804  0.3308  0.4082
 5301TIP3    H115860   2.022   6.783   2.582 -0.7017 -0.2043 -0.8935
 5301TIP3    H215861   1.962   6.792   2.720  1.8008  0.5192  0.1983
 5302TIP3   OH215862   3.570   2.285   1.227 -0.0568  0.4157  0.1392
 5302TIP3    H115863   3.636   2.240   1.174 -2.5787 -2.3485 -1.0174
 5302TIP3    H215864   3.543   2.219   1.292 -1.5063  1.4832  0.6781
 5303TIP3   OH215865   3.797   6.207   3.004 -0.4206 -0.3690 -0.3640
 5303TIP3    H115866   3.753   6.289   3.027 -1.3529 -0.7803 -0.6511
 5303TIP3    H215867   3.823   6.219   2.913  1.4220  0.4439  0.2017
 5304TIP3   OH215868   6.251   1.541   4.010  0.5238 -0.4802  0.3942
 5304TIP3    H115869   6.337   1.581   4.012  0.2688  0.1565 -0.5896
 5304TIP3    H215870   6.198   1.600   3.957  0.0314 -1.9142 -0.7878
 5305TIP3   OH215871   6.484   0.894   2.268 -0.7548 -0.4555 -0.1105
 5305TIP3    H115872   6.491   0.967   2.207  0.4917 -0.4598 -0.0041
 5305TIP3    H215873   6.398   0.903   2.308 -0.6129  0.9664 -0.0876
 5306TIP3   OH215874   6.958   5.268   4.603 -0.5118  0.1270 -0.0298
 5306TIP3    H115875   6.915   5.305   4.680  1.0923  0.6404  0.6634
 5306TIP3    H215876   6.914   5.184   4.590 -1.6228  0.5617  0.7050
 5307TIP3   OH215877   2.656   5.109   0.748 -0.3746 -0.3704 -0.0263
 5307TIP3    H115878   2.617   5.193   0.723 -2.4369 -1.2628  0.0251
 5307TIP3    H215879   2.737   5.133   0.794 -0.6014  1.5574 -0.5575
 5308TIP3   OH215880   5.261   1.077   1.096  0.3827  0.2793 -0.0484
 5308TIP3    H115881   5.199   1.008   1.069 -2.4770  1.8724  1.9237
 5308TIP3    H215882   5.278   1.059   1.188  1.1935  1.0940 -0.0270
 5309TIP3   OH215883   8.092   5.324   4.322 -0.3669 -0.2236 -0.8760
 5309TIP3    H115884   8.013   5.367   4.356  0.3520  1.7450 -1.5588
 5309TIP3    H215885   8.115   5.261   4.390  0.0077  2.3153  1.5457
 5310TIP3   OH215886   3.139   5.006   6.084  0.2482  0.0350  0.3899
 5310TIP3    H115887   3.099   5.044   6.162 -0.1679 -0.8685  0.6261
 5310TIP3    H215888   3.214   5.063   6.065 -1.5740  2.2986 -0.5722
 5311TIP3   OH215889   2.131   4.927   6.414  0.6724 -0.3689 -0.4283
 5311TIP3    H115890   2.215   4.912   6.459  1.2860 -2.0228 -1.9959
 5311TIP3    H215891   2.156   4.966   6.330 -0.2345  0.1919 -0.4467
 5312TIP3   OH215892   1.923   4.912   1.581 -0.5286  0.0322  0.4689
 5312TIP3    H115893   1.878   4.877   1.658  1.8086 -1.2506  1.3598
 5312TIP3    H215894   2.010   4.935   1.613 -0.1251  1.3579 -1.4032
 5313TIP3   OH215895   3.662   0.012   1.603 -0.1936 -0.0826  0.2723
 5313TIP3    H115896   3.723   0.078   1.571 -1.0268  0.3198 -0.5351
 5313TIP3    H215897   3.683  -0.067   1.553  1.0630 -0.5729  1.5157
 5314TIP3   OH215898   2.970   4.743   1.550 -0.3690 -0.4597  0.1467
 5314TIP3    H115899   2.968   4.696   1.467  1.3316 -0.3091 -0.0216
 5314TIP3    H215900   2.979   4.835   1.526 -1.5372 -0.2511  0.4917
 5315TIP3   OH215901   7.207   7.709   5.418 -0.2548  0.1143  0.4587
 5315TIP3    H115902   7.182   7.789   5.465  1.5106  0.2565  1.2392
 5315TIP3    H215903   7.214   7.642   5.486  2.1297  0.2726  0.4619
 5316TIP3   OH215904   2.048   5.439   3.532 -0.7080 -0.5331 -0.4979
 5316TIP3    H115905   2.124   5.486   3.567  0.0078 -2.1115  0.1819
 5316TIP3    H215906   2.042   5.468   3.441  2.8151 -2.7206 -1.6566
 5317TIP3   OH215907   0.286   2.856   0.516  0.1366 -0.2010  0.6504
 5317TIP3    H115908   0.229   2.803   0.572  1.2093 -0.7349  1.2682
 5317TIP3    H215909   0.292   2.807   0.434 -1.0181  0.3209  0.2380
 5318TIP3   OH215910   7.705   0.765   6.543  0.0383 -0.9740 -0.4893
 5318TIP3    H115911   7.632   0.817   6.509  0.0843 -0.7471 -0.2366
 5318TIP3    H215912   7.743   0.818   6.613 -1.1234 -2.1913  1.1034
 5319TIP3   OH215913   0.413   5.467   1.904 -0.5013  0.0310  0.7202
 5319TIP3    H115914   0.363   5.547   1.888 -0.5992 -0.4215 -1.6878
 5319TIP3    H215915   0.348   5.397   1.898 -0.1139 -0.3543  0.9397
 5320TIP3   OH215916   2.869   0.356   4.081  0.1060  0.4122  0.4743
 5320TIP3    H115917   2.894   0.310   4.161  0.4067  0.1353  0.2226
 5320TIP3    H215918   2.896   0.447   4.097 -2.0421  0.9010  1.6620
 5321TIP3   OH215919   3.850   1.689   1.363  0.1150  0.1705 -0.2068
 5321TIP3    H115920   3.846   1.762   1.425  2.1584  0.8909 -0.8359
 5321TIP3    H215921   3.870   1.730   1.279 -1.0630 -0.9352 -1.0730
 5322TIP3   OH215922   6.052   0.861   5.426 -0.5230 -0.0270 -0.0091
 5322TIP3    H115923   6.117   0.823   5.367 -0.2126 -0.2458  0.4718
 5322TIP3    H215924   5.978   0.883   5.369  0.2060  0.8058 -0.6606
 5323TIP3   OH215925   5.924   1.903   4.438  0.4666 -0.7255 -0.1718
 5323TIP3    H115926   5.891   1.993   4.448  0.6132 -0.4748 -1.6573
 5323TIP3    H215927   5.869   1.851   4.496 -0.2455  0.1996  0.0159
 5324TIP3   OH215928   7.733   6.937   5.671  0.0968 -0.4713 -0.2224
 5324TIP3    H115929   7.637   6.939   5.671  0.0729  1.5894  1.2876
 5324TIP3    H215930   7.758   7.018   5.625  1.1142 -0.9286 -0.5005
 5325TIP3   OH215931   1.515   2.654   1.005  0.7166  0.4191  0.0664
 5325TIP3    H115932   1.434   2.606   0.984  0.5930 -0.2695  1.9704
 5325TIP3    H215933   1.486   2.731   1.053  1.1925  0.1210  0.8396
 5326TIP3   OH215934   5.374   6.344   3.083  0.0544 -0.3219 -0.3100
 5326TIP3    H115935   5.345   6.413   3.022 -0.6834  0.6124  1.0516
 5326TIP3    H215936   5.425   6.284   3.028  1.0923  1.5298 -1.4760
 5327TIP3   OH215937   7.574   3.315   4.075 -0.2829  0.2395 -0.2754
 5327TIP3    H115938   7.560   3.323   4.169 -1.1319 -1.0931 -0.2663
 5327TIP3    H215939   7.654   3.263   4.067 -1.2048 -1.2456 -0.2448
 5328TIP3   OH215940   7.451   3.578   4.727 -0.0191 -0.2339  0.2825
 5328TIP3    H115941   7.361   3.556   4.753 -0.5928  1.6699  0.0260
 5328TIP3    H215942   7.494   3.601   4.809  0.4785 -1.8387  0.5031
 5329TIP3   OH215943   4.200   7.078   2.898  0.5213  0.2204  0.7781
 5329TIP3    H115944   4.117   7.074   2.946 -0.4582  0.8269 -0.7789
 5329TIP3    H215945   4.249   7.002   2.929 -0.6783 -0.2411  1.6315
 5330TIP3   OH215946   1.960   4.795   0.989 -0.5387 -0.4666 -0.4534
 5330TIP3    H115947   1.877   4.796   1.038 -0.5205  0.5244 -0.4169
 5330TIP3    H215948   2.020   4.745   1.044 -0.7901 -0.1827  0.0850
 5331TIP3   OH215949   7.563   0.496   2.587 -0.1701 -0.0500  0.0964
 5331TIP3    H115950   7.579   0.576   2.536 -0.7900  0.0080 -0.0179
 5331TIP3    H215951   7.650   0.456   2.598  0.1412  0.6201  0.1274
 5332TIP3   OH215952   4.442   5.031   4.589  0.6089 -0.4377  0.2203
 5332TIP3    H115953   4.408   4.975   4.520  1.9038 -3.9047  2.1116
 5332TIP3    H215954   4.534   5.044   4.567 -0.0062  2.4882 -1.0098
 5333TIP3   OH215955   1.108   0.135   5.688  0.4989  0.1015 -0.0082
 5333TIP3    H115956   1.061   0.186   5.753  0.7671 -0.2775  0.4892
 5333TIP3    H215957   1.143   0.061   5.736 -2.0919 -2.0513 -1.1636
 5334TIP3   OH215958   2.060   1.708   2.152  0.4365  0.0359  0.1343
 5334TIP3    H115959   2.117   1.784   2.137  1.3382 -0.7575 -0.6590
 5334TIP3    H215960   2.036   1.679   2.064 -2.3494  1.1389  0.4422
 5335TIP3   OH215961   3.733   7.738   3.886  0.9637 -0.1210 -0.3532
 5335TIP3    H115962   3.639   7.729   3.902  1.1136 -0.1734  0.5966
 5335TIP3    H215963   3.747   7.831   3.874  0.5853 -0.2543 -1.9856
 5336TIP3   OH215964   2.562   0.911   3.371 -0.0812 -0.2020  0.6860
 5336TIP3    H115965   2.519   0.997   3.373  0.2232 -0.0524  0.7963
 5336TIP3    H215966   2.604   0.907   3.286 -0.2334 -0.3129  0.6139
 5337TIP3   OH215967   6.976   1.892   0.665  0.2470 -0.5017 -0.3047
 5337TIP3    H115968   6.905   1.845   0.620 -0.1120 -0.1947 -0.0598
 5337TIP3    H215969   7.014   1.827   0.723 -0.9513 -0.2256  0.8456
 5338TIP3   OH215970   2.858   4.168   4.523  0.0816  0.3964 -0.7460
 5338TIP3    H115971   2.914   4.091   4.509 -1.0483 -1.0707  2.0666
 5338TIP3    H215972   2.790   4.160   4.456 -0.2325 -1.3345 -0.2672
 5339TIP3   OH215973   3.590   2.632   6.189  0.0701  0.3023 -0.1429
 5339TIP3    H115974   3.640   2.574   6.131  1.8399  2.3927 -0.8482
 5339TIP3    H215975   3.526   2.575   6.231 -0.4822 -1.5818 -3.1965
 5340TIP3   OH215976   1.296   4.900   4.149  0.4044  0.2824 -0.7205
 5340TIP3    H115977   1.341   4.905   4.233 -1.4075 -1.4982  0.4546
 5340TIP3    H215978   1.258   4.987   4.137 -1.2947 -0.0399  1.5563
 5341TIP3   OH215979   1.392   3.795   5.097  0.9042 -0.2465 -0.0752
 5341TIP3    H115980   1.459   3.839   5.149 -0.7996  1.2348  0.9739
 5341TIP3    H215981   1.385   3.847   5.017 -0.2732  0.7688  0.6481
 5342TIP3   OH215982   4.796   7.171   3.242 -0.1216 -0.1358  0.2376
 5342TIP3    H115983   4.843   7.122   3.175 -0.6014 -1.6824  0.9943
 5342TIP3    H215984   4.713   7.196   3.201  0.2414  0.2965 -0.2391
 5343TIP3   OH215985   1.448   3.658   1.564  0.2079 -0.0102  0.5412
 5343TIP3    H115986   1.523   3.674   1.507  0.0279 -0.3152  0.2127
 5343TIP3    H215987   1.457   3.567   1.592 -0.8321 -0.5293 -0.7100
 5344TIP3   OH215988   2.485   6.570   3.098  0.1375  0.0443 -0.1711
 5344TIP3    H115989   2.393   6.552   3.077  0.1358  0.8598 -0.8964
 5344TIP3    H215990   2.494   6.664   3.084  0.7040  0.2441  1.3692
 5345TIP3   OH215991   5.867   0.104   4.964  0.2944 -0.6443  0.7119
 5345TIP3    H115992   5.938   0.054   4.924  1.4214  2.4416 -1.5399
 5345TIP3    H215993   5.897   0.121   5.053  1.8798 -0.3774  0.1545
 5346TIP3   OH215994   0.061   6.654   2.602  0.9990 -0.1709  0.7274
 5346TIP3    H115995   0.062   6.750   2.591 -0.9361 -0.2883 -1.5162
 5346TIP3    H215996   0.103   6.621   2.523 -1.6427 -1.1213 -0.4075
 5347TIP3   OH215997   7.396   7.013   4.775 -0.2746 -0.3417  0.4039
 5347TIP3    H115998   7.444   7.091   4.803 -0.9327  0.1306  0.2403
 5347TIP3    H215999   7.342   7.044   4.702 -0.4907 -0.9684  0.2966
 5348TIP3   OH216000   1.236   2.424   6.360 -0.2543 -0.2785  0.3510
 5348TIP3    H116001   1.245   2.435   6.455 -0.5840  1.8518  0.1710
 5348TIP3    H216002   1.311   2.471   6.323 -0.4759 -0.5620 -0.4809
 5349TIP3   OH216003   4.501   0.031   5.781  0.2574  0.1357 -0.2210
 5349TIP3    H116004   4.568   0.085   5.822 -0.4585 -0.3036  1.5806
 5349TIP3    H216005   4.506   0.055   5.688  1.4220  1.6801  0.1902
 5350TIP3   OH216006   7.539   0.910   5.264  0.0238 -0.6431 -0.2930
 5350TIP3    H116007   7.611   0.952   5.216 -0.4637 -0.6520 -1.0396
 5350TIP3    H216008   7.583   0.857   5.331  0.6848  0.0606 -0.1552
 5351TIP3   OH216009   3.081   6.918   0.119  0.1598 -0.1629  0.2008
 5351TIP3    H116010   3.069   7.004   0.158  0.2338 -0.1280  0.1477
 5351TIP3    H216011   3.125   6.936   0.036 -0.0020 -0.2356  0.0982
 5352TIP3   OH216012   1.380   0.053   2.929 -0.2908 -0.5298 -0.0013
 5352TIP3    H116013   1.475   0.065   2.916 -0.6282  2.6705 -0.5031
 5352TIP3    H216014   1.371   0.032   3.022  0.8989  0.1749  0.3043
 5353TIP3   OH216015   6.476   6.583   5.015 -0.0126 -0.3559 -0.4830
 5353TIP3    H116016   6.432   6.667   5.002 -1.4185 -0.8976  0.5954
 5353TIP3    H216017   6.569   6.607   5.026 -0.4823  1.1510  0.6323
 5354TIP3   OH216018   7.938   4.768   3.660 -0.0528  0.5204 -0.0539
 5354TIP3    H116019   7.950   4.674   3.674 -0.6678  0.4313 -0.1124
 5354TIP3    H216020   8.012   4.794   3.605  0.1038  0.0661 -0.0584
 5355TIP3   OH216021   4.881   1.783   4.549 -0.2837  0.7004  0.8281
 5355TIP3    H116022   4.821   1.801   4.476 -0.0272 -0.7998  0.2225
 5355TIP3    H216023   4.967   1.807   4.515 -0.1210 -0.2977  0.4922
 5356TIP3   OH216024   7.840   7.762   1.691 -0.0104  0.3255  0.8270
 5356TIP3    H116025   7.774   7.815   1.646  0.2307  0.7206  0.9342
 5356TIP3    H216026   7.795   7.725   1.766 -0.1654  0.4215  0.7815
 5357TIP3   OH216027   4.157   1.259   6.624  0.1767  0.0291  0.0828
 5357TIP3    H116028   4.146   1.349   6.593  0.4317  0.2655  0.6584
 5357TIP3    H216029   4.188   1.269   6.714 -0.0493 -0.6382  0.2364
 5358TIP3   OH216030   2.499   6.143   3.535 -0.3658 -0.2001 -0.2284
 5358TIP3    H116031   2.566   6.152   3.468 -0.3506 -0.2617 -0.2213
 5358TIP3    H216032   2.427   6.199   3.505  0.5875  1.7469  0.9051
 5359TIP3   OH216033   6.628   1.611   4.703 -0.2118 -0.1593  0.2954
 5359TIP3    H116034   6.664   1.635   4.618  1.0123 -0.4277  0.7169
 5359TIP3    H216035   6.698   1.562   4.746 -0.4778  0.6738  1.7768
 5360TIP3   OH216036   4.605   0.210   2.031 -0.3941 -0.2058 -0.1586
 5360TIP3    H116037   4.558   0.275   2.082 -1.2629 -0.7395 -0.2522
 5360TIP3    H216038   4.695   0.214   2.062 -0.6926  0.2124  0.6649
 5361TIP3   OH216039   0.225   6.117   2.451 -0.3603 -0.5954 -0.2011
 5361TIP3    H116040   0.199   6.195   2.401  1.0749  0.1778  0.2102
 5361TIP3    H216041   0.311   6.139   2.487 -0.4494 -1.9348  0.9071
 5362TIP3   OH216042   5.079   0.862   4.739  0.2200  0.0207  0.1088
 5362TIP3    H116043   5.017   0.907   4.796 -0.8777 -0.5146 -0.6297
 5362TIP3    H216044   5.124   0.801   4.797  0.8386  1.1469  0.8646
 5363TIP3   OH216045   1.643   1.332   4.225  0.0734  0.3332 -0.0622
 5363TIP3    H116046   1.729   1.291   4.217  0.4077  1.0512 -0.1835
 5363TIP3    H216047   1.584   1.273   4.178  0.5972  0.1323 -0.4807
 5364TIP3   OH216048   2.389   6.595   6.478  0.1486 -0.1845 -0.7470
 5364TIP3    H116049   2.409   6.516   6.528 -2.7176  0.1980  1.3144
 5364TIP3    H216050   2.405   6.571   6.387 -1.0101 -3.3115 -0.2552
 5365TIP3   OH216051   1.429   5.361   2.714 -0.0951  0.0055  0.5091
 5365TIP3    H116052   1.504   5.412   2.747 -1.2834  1.6505  0.7909
 5365TIP3    H216053   1.412   5.396   2.627 -2.0294  1.4124  1.3887
 5366TIP3   OH216054   4.969   4.479   1.555  0.4160  0.3733  0.0417
 5366TIP3    H116055   4.987   4.385   1.556 -0.7190  0.1399  0.0390
 5366TIP3    H216056   4.983   4.506   1.464 -2.3331 -0.4609 -0.7145
 5367TIP3   OH216057   2.463   2.051   1.617  0.0602  0.0308  0.0298
 5367TIP3    H116058   2.515   2.069   1.539  1.0405  0.1625  0.6994
 5367TIP3    H216059   2.501   2.107   1.685 -1.5892  0.8647  0.3081
 5368TIP3   OH216060   3.115   4.778   5.961  0.6321 -0.2233 -0.0802
 5368TIP3    H116061   3.025   4.746   5.948  0.1807  1.5860 -2.0675
 5368TIP3    H216062   3.107   4.842   6.032  0.9691 -2.1743  1.7950
 5369TIP3   OH216063   5.608   2.273   4.201 -0.7380 -0.2817 -0.4162
 5369TIP3    H116064   5.579   2.285   4.111 -0.8847 -0.0225 -0.3355
 5369TIP3    H216065   5.662   2.350   4.219  1.9698 -1.7960 -1.3236
 5370TIP3   OH216066   7.647   7.079   0.917  0.8482  0.1452  0.3602
 5370TIP3    H116067   7.698   7.123   0.849  0.4432 -1.1173 -0.8105
 5370TIP3    H216068   7.712   7.058   0.984  1.4003  0.7653  0.0444
 5371TIP3   OH216069   1.179   7.251   2.084 -0.3081  0.5142  0.1641
 5371TIP3    H116070   1.131   7.327   2.050  0.2467  0.2186 -1.3331
 5371TIP3    H216071   1.112   7.184   2.095 -0.8450  1.2550  1.7177
 5372TIP3   OH216072   1.251   2.885   0.536  0.2340 -0.3492 -0.1663
 5372TIP3    H116073   1.328   2.840   0.501 -0.1764 -1.3298  0.1293
 5372TIP3    H216074   1.177   2.836   0.499 -0.2143 -0.8983  1.3712
 5373TIP3   OH216075   0.153   0.159   4.853 -0.1544 -0.3494  0.3858
 5373TIP3    H116076   0.145   0.246   4.893  0.3781  0.0393 -0.3108
 5373TIP3    H216077   0.068   0.145   4.811 -0.1378 -0.0261  0.2377
 5374TIP3   OH216078   0.687   2.560   2.687 -0.0240 -0.7582  0.5638
 5374TIP3    H116079   0.638   2.479   2.673 -1.7653 -0.1019  2.4860
 5374TIP3    H216080   0.684   2.574   2.782  2.2267  0.3903  0.5407
 5375TIP3   OH216081   1.866   0.430   4.411  0.1000 -0.0335  0.2536
 5375TIP3    H116082   1.960   0.444   4.397 -0.2656  1.1923 -1.1603
 5375TIP3    H216083   1.862   0.380   4.493  1.9913 -0.3916  0.1828
 5376TIP3   OH216084   4.233   1.882   6.294  0.5168  0.4962  0.1256
 5376TIP3    H116085   4.273   1.814   6.349 -1.5949 -3.1098 -2.3011
 5376TIP3    H216086   4.284   1.881   6.214  0.0803  1.3635 -0.1704
 5377TIP3   OH216087   0.711   1.519   6.113 -0.0609  0.0562  0.5695
 5377TIP3    H116088   0.630   1.545   6.156 -0.1054  0.7364  0.0907
 5377TIP3    H216089   0.683   1.472   6.035 -0.0427  1.4496 -0.3204
 5378TIP3   OH216090   0.504   6.875   1.833  0.0223 -0.1068 -0.0553
 5378TIP3    H116091   0.542   6.839   1.913  0.9885  0.3098 -0.3122
 5378TIP3    H216092   0.550   6.829   1.762 -1.1985 -0.8560 -0.3830
 5379TIP3   OH216093   5.815   1.668   3.757  0.0572  0.1148  0.2850
 5379TIP3    H116094   5.889   1.724   3.734  0.1214  0.0350  0.2964
 5379TIP3    H216095   5.855   1.583   3.778  0.1764  0.6614  2.4920
 5380TIP3   OH216096   6.995   1.864   2.876  0.2820 -0.7784 -0.0128
 5380TIP3    H116097   6.918   1.910   2.910 -1.3525 -2.8257 -0.7461
 5380TIP3    H216098   6.990   1.777   2.913  2.1393 -1.0501 -0.2991
 5381TIP3   OH216099   0.445   2.754   1.816 -0.0137  0.0579  0.2151
 5381TIP3    H116100   0.361   2.801   1.813  0.3960  0.8292 -3.4180
 5381TIP3    H216101   0.427   2.671   1.771  0.6631 -0.9257  1.6491
 5382TIP3   OH216102   4.497   7.657   3.305  0.3309 -0.2422 -0.2928
 5382TIP3    H116103   4.533   7.611   3.381 -1.2395 -0.3795  0.4031
 5382TIP3    H216104   4.479   7.746   3.336  1.1955  0.1909 -0.9845
 5383TIP3   OH216105   6.674   0.776   3.325 -0.0169  0.9111  0.0741
 5383TIP3    H116106   6.744   0.742   3.381 -1.2582  1.8658  2.3411
 5383TIP3    H216107   6.650   0.859   3.365 -1.2122  1.4927 -1.7369
 5384TIP3   OH216108   3.021   7.515   5.625 -0.0925 -0.0428 -0.0096
 5384TIP3    H116109   2.966   7.439   5.642 -0.6960  0.2252 -0.6796
 5384TIP3    H216110   3.067   7.494   5.544  0.8360 -0.2814  0.5696
 5385TIP3   OH216111   3.119   5.554   2.060  0.1398  0.1586  0.0207
 5385TIP3    H116112   3.031   5.590   2.048 -0.1999 -0.9658 -1.0265
 5385TIP3    H216113   3.147   5.588   2.145 -1.3510  0.4541  0.4283
 5386TIP3   OH216114   8.255   5.064   6.026 -0.5284  0.1405 -0.4213
 5386TIP3    H116115   8.190   5.112   6.077 -0.2611  0.3828 -0.3100
 5386TIP3    H216116   8.335   5.115   6.034 -0.5234  0.2770 -1.2187
 5387TIP3   OH216117   2.209   3.558   5.042 -0.1411  0.4729 -0.0663
 5387TIP3    H116118   2.211   3.502   5.120 -0.6192  1.0899  0.3936
 5387TIP3    H216119   2.184   3.644   5.075 -2.1987  0.3332 -1.1555
 5388TIP3   OH216120   0.773   3.532   3.451 -1.0126 -0.0989  0.0686
 5388TIP3    H116121   0.681   3.521   3.473 -0.4917 -0.3534  2.3077
 5388TIP3    H216122   0.783   3.626   3.435 -1.4069  0.1396  1.1617
 5389TIP3   OH216123   7.148   2.810   4.894  0.4906 -0.2658 -0.1226
 5389TIP3    H116124   7.193   2.739   4.848  2.7527  0.9112  0.1021
 5389TIP3    H216125   7.215   2.846   4.952 -1.2007  0.7330  1.2874
 5390TIP3   OH216126   3.269   0.934   4.867 -0.0234  0.5052 -0.4356
 5390TIP3    H116127   3.292   0.986   4.945 -1.5864 -0.8852  1.0350
 5390TIP3    H216128   3.324   0.856   4.873 -0.6090  0.0936 -0.3530
 5391TIP3   OH216129   7.838   7.224   1.863  0.0949  0.6876 -0.9756
 5391TIP3    H116130   7.836   7.129   1.878  1.4063  0.5101 -1.7735
 5391TIP3    H216131   7.895   7.235   1.788  0.0649  2.1381 -0.8091
 5392TIP3   OH216132   2.509   0.380   4.876 -0.3261  0.4524 -0.0047
 5392TIP3    H116133   2.539   0.451   4.934 -0.6699 -0.0394  0.7854
 5392TIP3    H216134   2.528   0.413   4.787 -0.2473  1.4262  0.3545
 5393TIP3   OH216135   7.193   0.915   1.026 -0.6491 -0.5478 -0.2485
 5393TIP3    H116136   7.146   0.853   0.970  1.0308 -2.2543  0.1184
 5393TIP3    H216137   7.270   0.940   0.975 -0.7377  0.3945  0.0583
 5394TIP3   OH216138   7.349   0.619   6.328  0.2129  1.0579  0.0679
 5394TIP3    H116139   7.262   0.633   6.366 -0.6294 -1.0491 -0.9276
 5394TIP3    H216140   7.332   0.591   6.238  2.1142  4.8123 -1.6994
 5395TIP3   OH216141   5.533   6.510   0.486  0.3344  0.4967 -0.2357
 5395TIP3    H116142   5.552   6.587   0.432 -1.0896 -0.4452 -2.1991
 5395TIP3    H216143   5.441   6.490   0.468  0.2708 -0.8378  1.3386
 5396TIP3   OH216144   5.363   1.018   4.062 -0.4866  0.2070 -0.2272
 5396TIP3    H116145   5.402   1.044   4.145 -0.0996 -1.3931  0.1241
 5396TIP3    H216146   5.438   1.011   4.002 -0.3265 -1.6219  0.1191
 5397TIP3   OH216147   2.405   3.164   0.927 -0.1456 -0.2439  0.0105
 5397TIP3    H116148   2.432   3.152   1.018  0.6704 -0.7648 -0.2830
 5397TIP3    H216149   2.354   3.085   0.907  0.7903 -0.7720 -0.3627
 5398TIP3   OH216150   0.583   5.300   0.822  0.1422 -0.5189 -0.3319
 5398TIP3    H116151   0.614   5.370   0.766  2.1402 -1.3902 -0.4330
 5398TIP3    H216152   0.658   5.281   0.880 -0.9825 -1.3201  0.9317
 5399TIP3   OH216153   3.208   0.849   2.629  0.1524 -0.2456  0.1178
 5399TIP3    H116154   3.131   0.810   2.672 -0.0654  0.0527  0.0008
 5399TIP3    H216155   3.196   0.827   2.536  0.8830 -1.3322  0.2607
 5400TIP3   OH216156   7.733   1.370   2.520  0.1299 -0.1204  0.1414
 5400TIP3    H116157   7.770   1.282   2.510  1.0454  0.3165 -0.5067
 5400TIP3    H216158   7.639   1.359   2.506  0.2913 -0.9305 -0.3610
 5401TIP3   OH216159   8.078   3.576   5.761  0.0090 -0.4650 -0.3013
 5401TIP3    H116160   8.001   3.542   5.716 -0.9242 -0.6014  1.3027
 5401TIP3    H216161   8.148   3.514   5.740 -0.3191 -0.3995 -1.6891
 5402TIP3   OH216162   0.556   5.125   4.379  0.4383 -0.2765  0.1758
 5402TIP3    H116163   0.515   5.119   4.293 -0.1873 -0.1733  0.4668
 5402TIP3    H216164   0.534   5.212   4.411  0.3763 -0.4434  0.5926
 5403TIP3   OH216165   0.742   3.875   4.125 -0.4865 -0.8698 -0.1239
 5403TIP3    H116166   0.675   3.897   4.060  0.9660 -0.2627 -1.4872
 5403TIP3    H216167   0.775   3.789   4.097  1.7908  0.4003 -1.7363
 5404TIP3   OH216168   3.636   6.042   2.085  0.3462  0.0345  0.3400
 5404TIP3    H116169   3.577   5.998   2.145 -1.2316  1.1772 -0.2946
 5404TIP3    H216170   3.663   5.974   2.024  0.6988 -0.7788  1.3751
 5405TIP3   OH216171   2.782   6.519   5.518 -0.2629 -0.5483 -0.1395
 5405TIP3    H116172   2.757   6.526   5.426  1.4097 -1.1739 -0.6747
 5405TIP3    H216173   2.753   6.601   5.557  0.6428  0.5293 -1.6504
 5406TIP3   OH216174   5.539   1.650   3.803  0.0002 -0.7521  0.4729
 5406TIP3    H116175   5.535   1.713   3.875  1.4686  0.4476 -0.4500
 5406TIP3    H216176   5.630   1.653   3.773 -0.3249 -2.0263 -0.7455
 5407TIP3   OH216177   5.483   1.089   4.279  1.1689 -0.1585 -0.6093
 5407TIP3    H116178   5.535   1.015   4.309 -2.3368 -2.1994  1.1474
 5407TIP3    H216179   5.462   1.138   4.359 -1.3915 -0.8375 -0.7441
 5408TIP3   OH216180   3.200   0.426   1.903  0.4389 -0.1508  0.4114
 5408TIP3    H116181   3.158   0.498   1.856 -0.1517  0.0656  1.2617
 5408TIP3    H216182   3.128   0.379   1.947  0.8269 -1.1804 -0.0115
 5409TIP3   OH216183   7.646   2.856   3.453 -0.1945  0.2733  0.0073
 5409TIP3    H116184   7.703   2.911   3.507  0.9774 -2.3745  1.6723
 5409TIP3    H216185   7.617   2.913   3.382  3.0753  2.2669  0.0900
 5410TIP3   OH216186   4.110   2.632   0.887  0.2160  0.0356 -0.3199
 5410TIP3    H116187   4.194   2.594   0.862 -0.5160 -0.1304 -2.8577
 5410TIP3    H216188   4.132   2.701   0.950  1.9835 -1.5326  0.8568
 5411TIP3   OH216189   4.247   5.115   6.306  0.2969 -0.2071 -0.3412
 5411TIP3    H116190   4.325   5.140   6.356 -0.4873  1.6160  0.0624
 5411TIP3    H216191   4.179   5.101   6.372 -0.7444  2.1895 -0.7768
 5412TIP3   OH216192   4.258   0.223   6.638 -0.6558  0.0086  0.0744
 5412TIP3    H116193   4.317   0.281   6.590 -1.9877  1.1170 -0.2959
 5412TIP3    H216194   4.174   0.230   6.591 -1.1429 -1.3439  0.7021
 5413TIP3   OH216195   6.136   6.120   1.974  0.8653  0.1779  0.2414
 5413TIP3    H116196   6.082   6.065   1.917  0.1922  0.6748  0.3861
 5413TIP3    H216197   6.193   6.058   2.020  0.2220 -0.3889  0.2970
 5414TIP3   OH216198   2.218   2.716   6.654  0.2608 -0.2565  0.3881
 5414TIP3    H116199   2.219   2.652   6.583 -0.2686 -0.9961  1.0276
 5414TIP3    H216200   2.126   2.729   6.674  0.0484  3.3479 -1.9863
 5415TIP3   OH216201   2.372   1.272   5.648 -0.1447  0.4807 -0.0129
 5415TIP3    H116202   2.324   1.285   5.729  0.5976 -0.0299  0.5226
 5415TIP3    H216203   2.431   1.199   5.667  2.2404  2.2917 -0.0110
 5416TIP3   OH216204   7.993   4.581   0.526  1.0126  0.4220  0.3310
 5416TIP3    H116205   7.946   4.577   0.442  1.5852 -0.1246  0.0329
 5416TIP3    H216206   8.000   4.675   0.543  0.9518  0.5445 -0.2684
 5417TIP3   OH216207   2.556   1.268   6.717 -0.4368 -0.0036 -0.0498
 5417TIP3    H116208   2.537   1.357   6.688 -1.8026 -0.1817  0.2451
 5417TIP3    H216209   2.526   1.212   6.645  3.1047 -0.2048 -1.6093
 5418TIP3   OH216210   8.003   1.880   1.197 -0.0850 -0.3046  0.0796
 5418TIP3    H116211   7.949   1.857   1.273  1.9255  0.4951  1.8668
 5418TIP3    H216212   8.070   1.811   1.194  1.9106  1.4561  1.2642
 5419TIP3   OH216213   1.867   2.006   6.131  0.7137 -0.1713  0.4186
 5419TIP3    H116214   1.920   2.068   6.181  0.2817  0.6418 -0.1040
 5419TIP3    H216215   1.859   1.930   6.188  1.6844  0.0452  0.8675
 5420TIP3   OH216216   3.139   1.635   4.978  0.0777  0.2549  0.0045
 5420TIP3    H116217   3.082   1.710   4.994  0.9396  0.5970  1.6389
 5420TIP3    H216218   3.098   1.563   5.025  0.9127  0.4858  1.1313
 5421TIP3   OH216219   6.625   3.000   6.441  0.5152 -0.0847 -0.0493
 5421TIP3    H116220   6.688   3.047   6.496  0.2736  1.5869 -1.1562
 5421TIP3    H216221   6.562   3.066   6.415 -1.4853 -1.6340  0.6450
 5422TIP3   OH216222   3.800   6.632   2.839 -0.4272 -0.4105 -0.0999
 5422TIP3    H116223   3.784   6.612   2.746 -1.1447  1.5440 -0.4360
 5422TIP3    H216224   3.766   6.721   2.851  1.2793  0.0691  1.6251
 5423TIP3   OH216225   5.939   1.641   1.435 -0.0758 -0.3569 -0.3229
 5423TIP3    H116226   5.870   1.625   1.370  0.7982 -2.8869 -0.7316
 5423TIP3    H216227   6.012   1.587   1.406  1.5111  0.9764  1.0211
 5424TIP3   OH216228   5.990   2.648   4.269  0.3966 -0.3125 -0.5811
 5424TIP3    H116229   6.074   2.612   4.241  0.4318 -0.1699 -0.6605
 5424TIP3    H216230   5.958   2.696   4.192  0.0057 -0.7891 -0.7236
 5425TIP3   OH216231   1.744   0.950   6.672 -0.3440  0.0645 -0.2577
 5425TIP3    H116232   1.651   0.935   6.686 -0.5513  1.7810  0.3684
 5425TIP3    H216233   1.748   1.015   6.601  0.2052  2.4520  1.8275
 5426TIP3   OH216234   0.349   5.370   2.144 -0.6244  0.1882  0.6196
 5426TIP3    H116235   0.397   5.410   2.071  0.0786 -1.0144  0.4003
 5426TIP3    H216236   0.328   5.444   2.201  1.1315  0.8215  0.5205
 5427TIP3   OH216237   4.476   1.900   4.188 -0.5252  0.6607 -0.8784
 5427TIP3    H116238   4.497   1.868   4.276 -0.3840  1.4135 -0.6293
 5427TIP3    H216239   4.387   1.870   4.172 -0.5882  0.6006 -0.4368
 5428TIP3   OH216240   4.109   2.918   5.889 -0.6753 -0.4561  0.1771
 5428TIP3    H116241   4.106   3.012   5.871 -1.3598 -0.1849  1.5309
 5428TIP3    H216242   4.174   2.910   5.959 -1.0500 -0.9071  0.4762
 5429TIP3   OH216243   7.357   6.740   2.374 -0.3052  0.2888 -0.3167
 5429TIP3    H116244   7.390   6.651   2.357 -0.1856  0.5898 -1.8499
 5429TIP3    H216245   7.434   6.796   2.369 -0.8017  0.8739 -2.9342
 5430TIP3   OH216246   7.494   6.449   0.369  0.4411 -0.4353  0.1839
 5430TIP3    H116247   7.446   6.512   0.422 -0.8090 -0.3125 -1.0502
 5430TIP3    H216248   7.546   6.503   0.309 -0.8979 -0.5315 -1.1123
 5431TIP3   OH216249   2.039   5.123   5.385 -0.0038  0.4208  0.0936
 5431TIP3    H116250   2.003   5.180   5.316  0.5045  0.8124  0.1433
 5431TIP3    H216251   1.968   5.113   5.447  0.3343  2.2407  0.8494
 5432TIP3   OH216252   3.256   2.562   4.649 -0.2923  0.2257  0.1310
 5432TIP3    H116253   3.185   2.579   4.710 -0.6644  3.0660 -0.9134
 5432TIP3    H216254   3.336   2.569   4.701 -0.6573 -2.3215  1.1726
 5433TIP3   OH216255   7.025   3.577   2.804  0.0637  0.0150  0.4804
 5433TIP3    H116256   6.942   3.534   2.823 -0.2080  0.0535 -0.6110
 5433TIP3    H216257   7.091   3.511   2.824 -0.3226 -0.7352 -0.6238
 5434TIP3   OH216258   3.447   0.328   5.200  0.1416  0.0852  1.0073
 5434TIP3    H116259   3.352   0.317   5.204  0.2370 -0.5576  1.5752
 5434TIP3    H216260   3.477   0.252   5.150  0.5169 -0.7009  2.3718
 5435TIP3   OH216261   3.729   6.898   2.802  0.0470  0.1590  0.3669
 5435TIP3    H116262   3.718   6.919   2.709  1.1320  0.1344  0.2218
 5435TIP3    H216263   3.661   6.949   2.846 -0.7043 -0.0973 -0.4658
 5436TIP3   OH216264   6.691   6.388   2.261 -0.0820 -0.4670 -0.2996
 5436TIP3    H116265   6.723   6.401   2.172  1.1296  1.1943  0.3315
 5436TIP3    H216266   6.632   6.461   2.276  0.3672 -0.2729  0.5411
 5437TIP3   OH216267   1.219   1.864   0.075 -0.3005  0.3886  0.5156
 5437TIP3    H116268   1.216   1.784   0.128 -2.8679  0.4195  0.5619
 5437TIP3    H216269   1.260   1.836  -0.007 -2.1994 -1.3645  0.0654
 5438TIP3   OH216270   5.116   7.430   5.842  0.2735 -0.1094 -0.0457
 5438TIP3    H116271   5.209   7.419   5.822 -0.0515 -1.2179 -1.0769
 5438TIP3    H216272   5.087   7.342   5.869 -0.5917  0.0957 -0.2733
 5439TIP3   OH216273   6.289   5.739   4.927 -0.4205  0.2569 -0.0134
 5439TIP3    H116274   6.307   5.832   4.932  0.9348  0.0111 -0.0057
 5439TIP3    H216275   6.226   5.722   4.996  1.4562  0.6903  1.8888
 5440TIP3   OH216276   4.269   7.370   4.598 -0.0194 -0.3180 -0.4921
 5440TIP3    H116277   4.305   7.431   4.534 -2.2810 -0.4200 -1.9666
 5440TIP3    H216278   4.206   7.423   4.648  0.8682 -0.5307  0.8769
 5441TIP3   OH216279   5.345   1.680   1.719 -0.2028  0.2932 -0.7610
 5441TIP3    H116280   5.377   1.610   1.662  0.6563  1.8911 -2.3242
 5441TIP3    H216281   5.333   1.637   1.804  1.6835 -1.4321 -1.2759
 5442TIP3   OH216282   1.680   3.707   1.435 -0.6242 -0.4430 -0.4416
 5442TIP3    H116283   1.722   3.632   1.392 -0.7885 -0.5318 -0.4459
 5442TIP3    H216284   1.729   3.717   1.517 -0.6384 -0.5907 -0.4137
 5443TIP3   OH216285   4.577   1.656   3.100 -0.4035  0.1090 -0.3275
 5443TIP3    H116286   4.569   1.594   3.172 -2.4894  1.0269  0.2856
 5443TIP3    H216287   4.580   1.601   3.022 -2.7441 -0.8077  0.1561
 5444TIP3   OH216288   3.413   2.847   0.627 -0.3155  0.0265  0.0342
 5444TIP3    H116289   3.436   2.920   0.684  0.6088  0.2250 -0.5762
 5444TIP3    H216290   3.409   2.771   0.685  0.4520  0.2519  0.3881
 5445TIP3   OH216291   4.645   1.720   5.512  0.6079 -0.2118  0.1073
 5445TIP3    H116292   4.593   1.699   5.590  1.1002  1.6689  0.9861
 5445TIP3    H216293   4.582   1.715   5.440 -0.0702 -1.0320  0.7228
 5446TIP3   OH216294   5.584   6.932   6.799  0.3426  0.4632 -0.0555
 5446TIP3    H116295   5.666   6.969   6.767  0.4768  0.0426 -0.2144
 5446TIP3    H216296   5.539   6.901   6.720 -1.2780  3.1908 -0.3022
 5447TIP3   OH216297   3.191   1.941   6.115  0.0506 -0.2121  0.2077
 5447TIP3    H116298   3.129   1.900   6.054  1.0496 -0.7939 -0.4369
 5447TIP3    H216299   3.136   1.977   6.184 -0.8965 -2.1833  0.5375
 5448TIP3   OH216300   4.906   4.133   6.717  0.0684 -0.5431  0.5138
 5448TIP3    H116301   4.937   4.044   6.705 -3.9194 -2.0089 -0.4992
 5448TIP3    H216302   4.949   4.183   6.648 -0.5369 -2.5781 -1.4386
 5449TIP3   OH216303   6.102   2.979   3.229  0.2077  0.7585 -0.4367
 5449TIP3    H116304   6.127   3.053   3.174  2.4045  0.0826 -0.4303
 5449TIP3    H216305   6.184   2.943   3.262 -0.8179 -1.2657  0.1475
 5450TIP3   OH216306   0.399   5.555   5.933 -0.2125 -0.3989 -0.0857
 5450TIP3    H116307   0.471   5.597   5.980 -0.5414 -0.7435  0.7532
 5450TIP3    H216308   0.419   5.461   5.936 -0.8880 -0.5389  0.5294
 5451TIP3   OH216309   4.761   2.798   1.776 -0.3187  0.0834  0.6662
 5451TIP3    H116310   4.772   2.774   1.684  0.5827  1.7814  0.2903
 5451TIP3    H216311   4.850   2.819   1.806 -0.6925  0.2211  1.7381
 5452TIP3   OH216312   7.191   1.945   0.233  0.3806  0.2854  0.2151
 5452TIP3    H116313   7.202   1.948   0.328  0.1087  0.3368  0.2478
 5452TIP3    H216314   7.210   2.035   0.204 -1.9874  0.9702  0.5199
 5453TIP3   OH216315   1.939   3.949   4.516 -0.8000 -0.0106  0.5105
 5453TIP3    H116316   1.874   4.004   4.559  0.0373  0.2122  1.5369
 5453TIP3    H216317   1.982   3.902   4.588  0.4361  0.1463 -0.0986
 5454TIP3   OH216318   7.000   2.022   4.493 -0.7467 -0.4327  0.3395
 5454TIP3    H116319   6.943   2.097   4.506 -0.8370 -0.4982  0.3259
 5454TIP3    H216320   6.988   1.999   4.400 -0.2923 -0.1152  0.2012
 5455TIP3   OH216321   1.599   3.325   6.632 -0.1812 -0.2544 -0.0628
 5455TIP3    H116322   1.554   3.409   6.637  0.7939  0.2040  2.5029
 5455TIP3    H216323   1.692   3.348   6.635  0.1148 -1.4052  0.0925
 5456TIP3   OH216324   1.473   3.852   2.327  0.2586 -0.0778  0.2131
 5456TIP3    H116325   1.538   3.838   2.258  0.3185  1.6305 -0.1326
 5456TIP3    H216326   1.396   3.886   2.281  0.2722  1.0129  0.9577
 5457TIP3   OH216327   0.720   3.013   0.400  0.0520 -0.5846 -0.2368
 5457TIP3    H116328   0.795   2.956   0.418  1.0311  1.0013  0.9823
 5457TIP3    H216329   0.663   3.001   0.476 -0.3445 -0.8776 -0.5813
 5458TIP3   OH216330   6.952   3.463   5.343  0.1630  0.5901 -0.2109
 5458TIP3    H116331   6.918   3.544   5.306 -1.4531 -0.4932 -1.2146
 5458TIP3    H216332   6.910   3.457   5.429  0.9874  1.2238  0.2584
 5459TIP3   OH216333   1.111   1.281   6.373  0.1895  0.8700 -0.2480
 5459TIP3    H116334   1.050   1.351   6.396  0.6500  0.9182  0.8697
 5459TIP3    H216335   1.057   1.219   6.323 -0.4726  1.5030 -0.3457
 5460TIP3   OH216336   1.447   5.278   5.115  0.1137  0.0938  0.3654
 5460TIP3    H116337   1.379   5.265   5.049  0.5007  0.8798 -0.2020
 5460TIP3    H216338   1.507   5.342   5.076  2.0735 -1.7456  0.1873
 5461TIP3   OH216339   2.107   6.401   1.519  0.5806 -0.6091 -0.5339
 5461TIP3    H116340   2.072   6.490   1.523  0.0439 -0.8514  1.9539
 5461TIP3    H216341   2.053   6.356   1.454  0.4840  0.6913 -1.3884
 5462TIP3   OH216342   1.608   1.701   3.613  0.2933 -0.5519 -0.3100
 5462TIP3    H116343   1.698   1.730   3.600  0.5320 -0.8667  0.6228
 5462TIP3    H216344   1.607   1.611   3.578  0.4144 -0.6516 -0.0596
 5463TIP3   OH216345   5.731   3.966   1.968  0.2636  0.7783 -0.6061
 5463TIP3    H116346   5.671   3.904   1.927  1.6925  0.5927 -2.5620
 5463TIP3    H216347   5.724   3.948   2.062 -0.5447 -1.2427 -1.0079
 5464TIP3   OH216348   1.162   2.052   3.229 -0.8024  0.1036 -0.0361
 5464TIP3    H116349   1.228   1.992   3.193  0.2856  0.3452  1.5034
 5464TIP3    H216350   1.109   2.076   3.153 -0.5392 -1.8706 -0.9134
 5465TIP3   OH216351   7.299   0.845   0.414  0.0337  0.3780  0.5301
 5465TIP3    H116352   7.301   0.920   0.474  0.6647  0.4234  0.4645
 5465TIP3    H216353   7.286   0.770   0.471  0.0684  0.4763  0.6690
 5466TIP3   OH216354   0.728   7.294   6.208  0.0567  0.3244 -0.1402
 5466TIP3    H116355   0.646   7.341   6.224 -0.5985 -0.3322 -1.4473
 5466TIP3    H216356   0.707   7.231   6.139  1.3282 -0.7930  0.4476
 5467TIP3   OH216357   5.641   7.123   4.777  0.2390  0.2412 -0.1791
 5467TIP3    H116358   5.613   7.188   4.842  0.3009 -0.6983  0.8107
 5467TIP3    H216359   5.615   7.039   4.814  1.2639 -0.4045 -0.8645
 5468TIP3   OH216360   2.272   1.239   4.831 -0.1549  0.5246  0.0615
 5468TIP3    H116361   2.295   1.198   4.748 -2.4910  0.5577 -0.6768
 5468TIP3    H216362   2.252   1.166   4.890  0.5409  0.5242  0.3055
 5469TIP3   OH216363   7.317   7.633   6.460 -0.0110 -0.4656  0.3383
 5469TIP3    H116364   7.321   7.658   6.368 -1.9559  1.7230  0.7673
 5469TIP3    H216365   7.384   7.687   6.503  1.5040 -2.0978  0.1891
 5470TIP3   OH216366   2.936   0.625   4.133  0.2702  1.1654  0.4763
 5470TIP3    H116367   2.994   0.668   4.196  0.9007  0.8102  0.1595
 5470TIP3    H216368   2.888   0.696   4.092  0.0236  1.4172  1.1947
 5471TIP3   OH216369   5.241   5.493   6.252 -0.0052  0.0712 -0.6529
 5471TIP3    H116370   5.291   5.526   6.177  0.6803 -0.4002 -0.4154
 5471TIP3    H216371   5.279   5.537   6.328 -0.0465 -0.1810 -0.4836
 5472TIP3   OH216372   5.582   7.442   6.369  0.1793 -0.3190  0.3751
 5472TIP3    H116373   5.622   7.467   6.286 -1.2681  1.8136  0.2101
 5472TIP3    H216374   5.654   7.443   6.432  1.0882 -0.7863 -0.6240
 5473TIP3   OH216375   6.342   0.115   5.747  0.0354  0.1523  0.0963
 5473TIP3    H116376   6.361   0.161   5.829 -0.9464 -0.1877  0.5388
 5473TIP3    H216377   6.423   0.120   5.696  0.2684  1.4265  0.5783
 5474TIP3   OH216378   3.325   7.385   2.044  0.3046  0.3576  0.8442
 5474TIP3    H116379   3.276   7.467   2.052 -1.8246 -0.8649  1.1076
 5474TIP3    H216380   3.410   7.411   2.010 -0.3544  2.6527  0.7897
 5475TIP3   OH216381   7.663   5.295   5.424  0.2678  0.4089 -0.0609
 5475TIP3    H116382   7.639   5.332   5.508 -1.3718 -1.4660  0.3686
 5475TIP3    H216383   7.591   5.317   5.366  1.1004  1.1631 -0.8469
 5476TIP3   OH216384   2.696   5.494   5.790 -0.1234 -0.4559 -0.1554
 5476TIP3    H116385   2.706   5.400   5.772  2.0775  0.0723 -2.0794
 5476TIP3    H216386   2.606   5.513   5.763 -0.1261 -1.7355 -1.2065
 5477TIP3   OH216387   6.550   1.504   0.470 -0.0804  0.0216 -0.2062
 5477TIP3    H116388   6.575   1.483   0.381  1.1235 -3.0048  0.7371
 5477TIP3    H216389   6.631   1.501   0.520 -1.0501 -1.1698  1.4305
 5478TIP3   OH216390   1.703   1.419   3.578  0.3720 -0.1534  0.3049
 5478TIP3    H116391   1.653   1.404   3.497 -1.6122  0.2985  1.3666
 5478TIP3    H216392   1.649   1.381   3.647  1.7030  0.0552  1.5090
 5479TIP3   OH216393   0.415   7.484   3.748 -0.3369 -0.6937 -0.4567
 5479TIP3    H116394   0.336   7.443   3.714 -0.6573 -0.3341 -0.1571
 5479TIP3    H216395   0.433   7.555   3.687 -0.6544 -0.3317 -0.1376
 5480TIP3   OH216396   2.267   4.681   6.222 -0.0835 -0.0003 -0.6648
 5480TIP3    H116397   2.298   4.768   6.245  0.6331 -0.2276 -0.7345
 5480TIP3    H216398   2.325   4.622   6.271  0.1415 -0.4497 -1.4461
 5481TIP3   OH216399   7.378   6.369   3.738 -0.2081  0.5435  0.2390
 5481TIP3    H116400   7.431   6.300   3.776 -0.7722 -0.0631 -0.0628
 5481TIP3    H216401   7.337   6.329   3.661  0.3848  1.5418 -0.6371
 5482TIP3   OH216402   7.040   4.994   5.928 -0.5765 -0.1560  0.0574
 5482TIP3    H116403   6.974   5.047   5.883 -1.0018 -1.2055 -0.6110
 5482TIP3    H216404   6.988   4.933   5.981 -0.1293 -0.6424 -0.0610
 5483TIP3   OH216405   4.182   1.724   3.307 -0.2560  0.0386  0.2574
 5483TIP3    H116406   4.135   1.775   3.241  0.3876 -1.3125 -1.3253
 5483TIP3    H216407   4.135   1.641   3.311  0.2285 -0.2136  0.8738
 5484TIP3   OH216408   6.997   0.686   5.627 -0.6982 -0.7737 -0.2029
 5484TIP3    H116409   6.999   0.639   5.544  3.6893 -0.1015 -0.7090
 5484TIP3    H216410   7.004   0.779   5.603  0.1686 -0.5375  0.8516
 5485TIP3   OH216411   6.054   0.112   4.301  0.0186 -0.2860  0.3295
 5485TIP3    H116412   5.995   0.104   4.375  0.1029 -0.9887  0.3310
 5485TIP3    H216413   6.021   0.188   4.252 -0.5676 -0.3512  0.6099
 5486TIP3   OH216414   4.391   1.335   5.856  0.6328  0.1726  0.1259
 5486TIP3    H116415   4.309   1.321   5.903  0.4682 -1.6451 -0.6106
 5486TIP3    H216416   4.394   1.429   5.841 -0.5069  0.4884  1.5733
 5487TIP3   OH216417   6.327   2.422   4.013  0.3527 -0.2367  0.3598
 5487TIP3    H116418   6.396   2.457   4.068  0.5617  0.9144 -0.5871
 5487TIP3    H216419   6.351   2.448   3.924 -1.2203  0.1145 -0.0111
 5488TIP3   OH216420   8.155   0.837   2.093 -0.7351 -0.5381 -0.0664
 5488TIP3    H116421   8.162   0.832   2.188 -0.2563 -1.7878 -0.1532
 5488TIP3    H216422   8.093   0.908   2.078 -0.5248 -0.0651  1.1622
 5489TIP3   OH216423   6.339   6.034   2.289 -0.1350 -0.1087 -0.2793
 5489TIP3    H116424   6.349   5.976   2.213 -0.8290 -0.7479  0.1111
 5489TIP3    H216425   6.245   6.054   2.292  0.0874  1.0713 -0.4215
 5490TIP3   OH216426   3.870   4.456   6.142 -0.0584  0.6343 -0.1361
 5490TIP3    H116427   3.927   4.496   6.076 -0.8566 -0.3199 -1.4599
 5490TIP3    H216428   3.829   4.383   6.097  0.8560 -1.3278  2.0301
 5491TIP3   OH216429   1.034   4.535   5.873 -0.4823 -0.3937  0.0845
 5491TIP3    H116430   1.104   4.496   5.925 -0.2038 -0.4696 -0.3422
 5491TIP3    H216431   1.079   4.584   5.804 -0.8311  0.4813  0.4628
 5492TIP3   OH216432   4.253   7.170   1.014  0.0576  0.4837 -0.1743
 5492TIP3    H116433   4.241   7.214   0.930  1.4034  1.5776  0.1599
 5492TIP3    H216434   4.167   7.174   1.056 -0.2069  1.4759 -0.7870
 5493TIP3   OH216435   3.540   0.400   6.510 -0.6440 -0.2501 -0.4645
 5493TIP3    H116436   3.570   0.456   6.439  0.0916 -1.7485 -1.3971
 5493TIP3    H216437   3.458   0.440   6.540 -0.3944  1.0196 -1.4137
 5494TIP3   OH216438   6.892   4.281   1.960  0.1444 -0.3531  0.2591
 5494TIP3    H116439   6.859   4.329   2.037  1.5615  0.0755  0.6239
 5494TIP3    H216440   6.978   4.319   1.943 -0.1919 -0.3418 -1.6479
 5495TIP3   OH216441   3.984   1.226   0.232 -0.1579 -0.0593 -0.3780
 5495TIP3    H116442   3.966   1.150   0.289  1.0956  0.1831  0.3731
 5495TIP3    H216443   3.991   1.300   0.292  1.9053  0.0871 -0.7320
 5496TIP3   OH216444   1.497   5.392   5.515  0.0965  0.7126  0.4961
 5496TIP3    H116445   1.451   5.467   5.552  0.9046  0.6155  1.7830
 5496TIP3    H216446   1.583   5.427   5.489 -0.0303  0.5199 -0.2149
 5497TIP3   OH216447   1.751   5.988   5.848 -0.3122  0.4774  0.2782
 5497TIP3    H116448   1.776   6.014   5.760 -1.7343  1.8155  0.2301
 5497TIP3    H216449   1.656   5.984   5.847 -0.3612  0.4656  1.7257
 5498TIP3   OH216450   3.901   4.852   1.894  0.0640  0.0607 -0.2393
 5498TIP3    H116451   3.838   4.917   1.863  1.2736  0.9493 -0.9008
 5498TIP3    H216452   3.863   4.768   1.867 -0.9076  0.5509 -0.4646
 5499TIP3   OH216453   3.790   6.163   2.717  0.1938  0.8294  0.5213
 5499TIP3    H116454   3.736   6.162   2.638  0.3021 -1.2251  0.4178
 5499TIP3    H216455   3.869   6.209   2.691  0.7868 -0.9033 -1.0376
 5500TIP3   OH216456   5.122   7.362   6.563 -0.1700  0.8437  0.2736
 5500TIP3    H116457   5.044   7.327   6.606 -0.1027 -0.1362 -0.3514
 5500TIP3    H216458   5.113   7.334   6.471  1.9517 -1.2663  0.5906
 5501TIP3   OH216459   3.946   3.468   5.969  0.2526  0.9187 -0.3871
 5501TIP3    H116460   3.946   3.380   6.006  1.0253  1.1410  0.1702
 5501TIP3    H216461   3.952   3.526   6.046 -0.5966  1.4749 -0.7179
 5502TIP3   OH216462   1.971   6.006   1.165 -0.1364  0.1491  0.4954
 5502TIP3    H116463   1.933   5.998   1.077 -0.2776  0.6697  0.5032
 5502TIP3    H216464   1.905   5.970   1.224 -0.0665 -0.1473  0.3918
 5503TIP3   OH216465   0.365   1.296   4.511 -0.0548  0.1195 -0.5610
 5503TIP3    H116466   0.321   1.346   4.442 -1.4187  0.6574  0.6364
 5503TIP3    H216467   0.296   1.280   4.576  1.0232 -0.9471  0.3694
 5504TIP3   OH216468   1.583   2.165   5.072  0.3976 -0.4121 -0.3664
 5504TIP3    H116469   1.510   2.220   5.099  0.6160 -0.3931  0.2146
 5504TIP3    H216470   1.576   2.087   5.127  3.2055  1.3287  2.9631
 5505TIP3   OH216471   2.393   1.613   1.186 -0.1391 -0.3475  0.4134
 5505TIP3    H116472   2.357   1.525   1.191 -0.8226 -0.0171  2.5868
 5505TIP3    H216473   2.316   1.670   1.193  0.2773  0.4420 -1.0857
 5506TIP3   OH216474   7.101   7.214   1.291 -0.5103 -0.5615 -0.3172
 5506TIP3    H116475   7.114   7.302   1.326 -1.3232 -0.5159 -0.1050
 5506TIP3    H216476   7.121   7.222   1.198 -1.3539  0.0477 -0.4627
 5507TIP3   OH216477   3.232   1.777   3.597  0.1579 -0.4864 -0.1410
 5507TIP3    H116478   3.281   1.828   3.661  2.9637  0.4523 -2.7748
 5507TIP3    H216479   3.197   1.843   3.537 -0.7010 -1.4225 -0.6861
 5508TIP3   OH216480   1.495   5.040   4.634  0.2130 -0.2777  0.5244
 5508TIP3    H116481   1.557   4.982   4.679 -0.7024 -0.8512  1.0998
 5508TIP3    H216482   1.499   5.122   4.683  1.0873 -0.0405  0.0698
 5509TIP3   OH216483   3.325   5.946   3.895  0.2089  0.2236 -0.4751
 5509TIP3    H116484   3.308   5.868   3.842 -1.0376  0.3316 -0.2550
 5509TIP3    H216485   3.419   5.962   3.884  0.3867 -1.0107 -0.9192
 5510TIP3   OH216486   6.865   4.832   0.320  0.2701  0.4378 -0.3673
 5510TIP3    H116487   6.838   4.802   0.234  0.9763 -1.2009 -0.0610
 5510TIP3    H216488   6.819   4.915   0.333  0.8024  1.1432 -2.6518
 5511TIP3   OH216489   7.685   3.364   6.106  1.0176  0.2245  0.3657
 5511TIP3    H116490   7.728   3.352   6.022  1.5863  0.9314  0.5457
 5511TIP3    H216491   7.756   3.385   6.167  0.7953 -1.6168  1.3188
 5512TIP3   OH216492   4.007   0.395   4.616  0.1154 -0.3587  0.5302
 5512TIP3    H116493   4.065   0.335   4.569 -0.1124 -1.6198  1.7941
 5512TIP3    H216494   3.946   0.338   4.663 -1.1680  0.9092  0.4630
 5513TIP3   OH216495   0.490   4.963   2.444 -0.7058  0.3798 -0.3267
 5513TIP3    H116496   0.525   5.036   2.393  0.9813  0.8514  1.4085
 5513TIP3    H216497   0.564   4.904   2.457 -1.7040 -0.9781 -0.5064
 5514TIP3   OH216498   5.401   3.415   3.253 -1.0320  0.0476  0.0799
 5514TIP3    H116499   5.468   3.412   3.185 -0.9511 -3.3717  0.1319
 5514TIP3    H216500   5.434   3.355   3.321 -3.1680 -0.0973  1.0558
 5515TIP3   OH216501   0.754   0.497   2.827 -0.0220  0.0937  0.4160
 5515TIP3    H116502   0.717   0.572   2.873 -0.6652  0.4007 -0.5599
 5515TIP3    H216503   0.714   0.421   2.870 -2.7434  0.4238 -1.2487
 5516TIP3   OH216504   5.280   2.758   5.197 -0.3031 -0.1720 -0.0289
 5516TIP3    H116505   5.306   2.816   5.269  0.1444  0.2700 -0.5355
 5516TIP3    H216506   5.292   2.811   5.118 -4.2875  0.6884 -0.2918
 5517TIP3   OH216507   6.300   3.122   1.331 -0.8494  0.2999 -0.2569
 5517TIP3    H116508   6.205   3.111   1.338 -0.6888 -1.2287 -0.1535
 5517TIP3    H216509   6.334   3.099   1.418 -0.3184 -0.1154 -0.5660
 5518TIP3   OH216510   4.343   1.569   1.843  0.0682 -0.2391 -0.0868
 5518TIP3    H116511   4.339   1.474   1.856  0.0011 -0.1726  0.3949
 5518TIP3    H216512   4.376   1.603   1.927  0.1352  0.1585 -0.2745
 5519TIP3   OH216513   7.003   6.843   1.866 -0.2966  0.0166  0.0816
 5519TIP3    H116514   7.063   6.906   1.827 -1.0080 -0.2390 -1.5114
 5519TIP3    H216515   6.974   6.884   1.947  2.3803 -0.0806  1.1983
 5520TIP3   OH216516   5.779   6.535   1.719  0.3361 -0.5231 -0.2210
 5520TIP3    H116517   5.746   6.520   1.807 -1.4051  2.6190 -0.1728
 5520TIP3    H216518   5.856   6.591   1.732  0.5971 -0.7707 -0.6708
 5521TIP3   OH216519   7.765   3.305   3.732  0.0192  0.3549  0.2887
 5521TIP3    H116520   7.777   3.217   3.768 -0.5821 -1.1266 -2.7888
 5521TIP3    H216521   7.679   3.333   3.763  0.2177 -0.1011  1.2893
 5522TIP3   OH216522   2.829   7.090   1.046 -0.8888  0.0288 -0.5463
 5522TIP3    H116523   2.737   7.104   1.068 -1.3652 -2.7819 -0.3222
 5522TIP3    H216524   2.876   7.116   1.125 -1.7547 -0.8100  0.2813
 5523TIP3   OH216525   3.121   7.625   2.724  0.2114  0.1131 -0.2789
 5523TIP3    H116526   3.088   7.608   2.813  1.1724 -0.1020  0.0509
 5523TIP3    H216527   3.106   7.718   2.710 -1.3606 -0.1402 -0.5064
 5524TIP3   OH216528   6.214   6.920   4.598 -0.2750 -0.0353  0.2755
 5524TIP3    H116529   6.255   7.006   4.588 -2.6149  1.2419  0.9251
 5524TIP3    H216530   6.145   6.934   4.662 -1.1921 -2.2562 -0.1459
 5525TIP3   OH216531   4.675   3.294   2.937  0.1044  0.3461  0.3240
 5525TIP3    H116532   4.704   3.339   3.016  0.9286  2.7908 -1.2422
 5525TIP3    H216533   4.713   3.206   2.944 -0.7240  0.1312  3.0579
 5526TIP3   OH216534   8.046   6.131   5.349  0.0759  0.7414  0.5805
 5526TIP3    H116535   8.063   6.044   5.385  1.7691  1.6655  2.1954
 5526TIP3    H216536   8.100   6.136   5.270 -1.9788 -0.5160 -0.9976
 5527TIP3   OH216537   1.613   2.030   5.860  0.5002  0.4727  0.3253
 5527TIP3    H116538   1.641   2.106   5.810  0.6523 -0.3548 -0.8905
 5527TIP3    H216539   1.679   2.020   5.929  1.0326  0.8344 -0.1310
 5528TIP3   OH216540   0.279   6.545   3.412 -0.0464  0.0340 -0.1081
 5528TIP3    H116541   0.245   6.479   3.473  0.0881 -1.2563 -1.3895
 5528TIP3    H216542   0.360   6.576   3.453  0.3896 -1.2813  0.0639
 5529TIP3   OH216543   1.904   4.811   0.429  0.0399  0.2049  0.3586
 5529TIP3    H116544   1.818   4.828   0.468 -0.0064  1.0984 -0.1230
 5529TIP3    H216545   1.966   4.844   0.494 -0.0095  0.5427  0.2372
 5530TIP3   OH216546   7.319   3.130   5.228 -0.6110 -0.1685 -0.3689
 5530TIP3    H116547   7.367   3.211   5.247 -2.0871  0.6537  0.0459
 5530TIP3    H216548   7.228   3.158   5.217 -1.2039 -1.8174  0.0266
 5531TIP3   OH216549   3.694   2.454   0.523  0.2631  0.1343  0.6460
 5531TIP3    H116550   3.762   2.397   0.488 -0.1433 -0.5281  0.9072
 5531TIP3    H216551   3.663   2.409   0.602 -1.2526 -0.1651 -0.0680
 5532TIP3   OH216552   4.145   0.059   2.372 -0.3561  0.0810 -0.4903
 5532TIP3    H116553   4.236   0.050   2.343 -0.3597 -0.3848 -0.3674
 5532TIP3    H216554   4.148   0.130   2.437  0.2200 -0.9967  0.7120
 5533TIP3   OH216555   4.139   3.933   6.100 -0.1550 -0.0498 -0.2216
 5533TIP3    H116556   4.074   3.942   6.169 -0.4900 -0.3755 -0.4917
 5533TIP3    H216557   4.220   3.969   6.138 -0.2466 -0.5572  0.4584
 5534TIP3   OH216558   0.136   7.301   5.548  0.3148 -0.2512 -0.1742
 5534TIP3    H116559   0.220   7.338   5.574  0.3515 -1.7167  1.9723
 5534TIP3    H216560   0.145   7.207   5.563 -2.5552 -0.2270  2.9215
 5535TIP3   OH216561   2.970   3.030   4.195  0.4167 -0.1750 -0.8461
 5535TIP3    H116562   3.022   2.968   4.143  2.2757  1.7259 -1.3824
 5535TIP3    H216563   2.962   3.107   4.139  0.5322  1.1038  0.8365
 5536TIP3   OH216564   6.554   6.500   4.666 -0.5862  0.0794  0.1615
 5536TIP3    H116565   6.622   6.469   4.726 -1.7370  0.1888  1.5656
 5536TIP3    H216566   6.521   6.580   4.707 -0.6995  0.7416 -1.1692
 5537TIP3   OH216567   1.210   5.814   5.663 -0.0691 -0.0447  0.3353
 5537TIP3    H116568   1.240   5.779   5.578 -3.6010 -0.6494 -0.8136
 5537TIP3    H216569   1.181   5.903   5.644  0.1497  0.2226  1.2026
 5538TIP3   OH216570   7.538   5.092   4.756 -0.1209 -0.8698  0.2572
 5538TIP3    H116571   7.502   5.180   4.766  0.3305 -0.6296 -0.1630
 5538TIP3    H216572   7.581   5.074   4.839  0.0340 -0.5697  0.2450
 5539TIP3   OH216573   1.292   7.575   2.180  0.3237  0.3372  0.0003
 5539TIP3    H116574   1.327   7.638   2.118  0.8406  1.7309  1.6308
 5539TIP3    H216575   1.197   7.577   2.166  0.4977 -0.2675 -1.5017
 5540TIP3   OH216576   0.959   5.665   4.345 -0.0798  0.5905 -0.0421
 5540TIP3    H116577   0.950   5.683   4.251  0.0807  0.5175 -0.0726
 5540TIP3    H216578   0.871   5.640   4.373  0.1935 -1.1350 -0.5508
 5541TIP3   OH216579   7.420   3.998   3.590 -0.4101 -0.6160 -0.9089
 5541TIP3    H116580   7.506   4.037   3.609 -1.4221  0.9786  0.8055
 5541TIP3    H216581   7.440   3.917   3.543  1.9304  0.8344 -2.6552
 5542TIP3   OH216582   1.077   7.223   1.429  0.3913 -0.8061  0.0361
 5542TIP3    H116583   1.105   7.132   1.444 -0.8596 -1.4712 -1.3606
 5542TIP3    H216584   0.985   7.225   1.454  0.4657  0.1565  0.2741
 5543TIP3   OH216585   7.720   3.290   3.146  0.2354  0.3296  0.7187
 5543TIP3    H116586   7.778   3.251   3.080  1.0009 -0.7696  1.9886
 5543TIP3    H216587   7.728   3.232   3.222 -1.7012  0.7767  1.3077
 5544TIP3   OH216588   8.260   6.443   6.157  0.3260 -0.2654  0.3234
 5544TIP3    H116589   8.233   6.363   6.202 -0.6669 -0.1682 -0.0799
 5544TIP3    H216590   8.238   6.428   6.065  0.4126  0.3545  0.1926
 5545TIP3   OH216591   6.719   0.131   2.643  0.7113 -0.5425 -0.0933
 5545TIP3    H116592   6.797   0.182   2.664 -0.2253  0.3431  1.5022
 5545TIP3    H216593   6.732   0.048   2.689 -0.2379  0.4815  2.2383
 5546TIP3   OH216594   1.173   0.446   5.984 -0.7430  0.1925 -0.0959
 5546TIP3    H116595   1.168   0.468   5.891 -1.2501  1.5500  0.2363
 5546TIP3    H216596   1.253   0.394   5.992 -0.9287 -0.3273 -1.3541
 5547TIP3   OH216597   3.277   6.798   5.316 -0.0877  0.5688  0.2992
 5547TIP3    H116598   3.200   6.853   5.300  0.5739  1.0596 -1.3487
 5547TIP3    H216599   3.241   6.712   5.337 -1.0885  0.8158 -0.3241
 5548TIP3   OH216600   3.010   5.535   0.724 -0.1184  0.4817  0.1121
 5548TIP3    H116601   3.028   5.443   0.701 -0.1810  0.1652  1.2514
 5548TIP3    H216602   2.919   5.535   0.752 -0.3123  1.0325 -0.4981
 5549TIP3   OH216603   2.969   2.691  -0.020  1.2443  0.4361  0.3145
 5549TIP3    H116604   2.967   2.713   0.073  0.9803 -0.0146  0.4212
 5549TIP3    H216605   2.878   2.667  -0.040  0.5328  3.6907 -0.8593
 5550TIP3   OH216606   7.002   4.317   0.899 -0.3170  0.2620  0.2643
 5550TIP3    H116607   7.097   4.331   0.903 -0.1909 -0.8194  1.7247
 5550TIP3    H216608   6.969   4.346   0.984 -1.3720  0.9806 -0.3643
 5551TIP3   OH216609   7.800   6.286   1.730  0.7951  0.2927  0.0915
 5551TIP3    H116610   7.843   6.328   1.655 -0.1422  0.3057 -0.4532
 5551TIP3    H216611   7.710   6.317   1.727  1.2457  2.1386  2.6120
 5552TIP3   OH216612   3.723   4.918   6.515 -0.5909  0.0358 -0.5971
 5552TIP3    H116613   3.768   4.839   6.485 -0.3792 -0.1512  0.1933
 5552TIP3    H216614   3.722   4.976   6.439  0.7233 -0.0762 -0.7134
 5553TIP3   OH216615   2.814   3.083   3.523 -0.6334 -0.0710  0.0153
 5553TIP3    H116616   2.889   3.074   3.582 -2.4666  0.4149  2.5958
 5553TIP3    H216617   2.828   3.015   3.457  1.7817 -0.3519  0.7188
 5554TIP3   OH216618   1.980   3.527   4.639 -0.0585  0.7237 -0.0591
 5554TIP3    H116619   1.909   3.481   4.685  0.3411 -2.0762 -2.0278
 5554TIP3    H216620   2.059   3.503   4.687 -0.2388  3.9248  2.1968
 5555TIP3   OH216621   3.571   4.616   4.755 -0.4220  0.5522  0.9257
 5555TIP3    H116622   3.497   4.563   4.786  0.4703 -1.0856  0.3811
 5555TIP3    H216623   3.620   4.558   4.697  0.7166  1.9448  0.4213
 5556TIP3   OH216624   4.815   0.135   2.343  0.0991  0.1880  0.3196
 5556TIP3    H116625   4.867   0.066   2.383  0.3044 -0.2212 -0.6333
 5556TIP3    H216626   4.799   0.197   2.414  1.4316  0.0625  0.7583
 5557TIP3   OH216627   6.290   3.673   4.686  0.0492 -0.1376  0.8747
 5557TIP3    H116628   6.284   3.719   4.770  1.4482  0.5910  0.6090
 5557TIP3    H216629   6.217   3.708   4.634  0.3253  0.8466  1.1336
 5558TIP3   OH216630   7.372   1.251   2.067  0.4673  0.6871 -0.3026
 5558TIP3    H116631   7.397   1.313   2.135  0.2463  4.0449 -3.0267
 5558TIP3    H216632   7.447   1.192   2.060  0.9338  0.9035  2.0260
 5559TIP3   OH216633   2.698   1.343   5.817  0.2153  0.8354  0.0214
 5559TIP3    H116634   2.749   1.353   5.737 -0.2174 -0.3522 -0.4291
 5559TIP3    H216635   2.697   1.248   5.833  0.1159  1.0355  1.3146
 5560TIP3   OH216636   3.276   4.370   6.782 -0.0275  0.6412 -0.3561
 5560TIP3    H116637   3.352   4.413   6.744  0.5387 -1.3219 -1.5733
 5560TIP3    H216638   3.201   4.415   6.743  0.5123  1.2451 -0.7250
 5561TIP3   OH216639   6.784   5.746   2.565  0.5901  0.3005  0.1725
 5561TIP3    H116640   6.769   5.819   2.504 -1.9746 -0.9866 -0.9216
 5561TIP3    H216641   6.810   5.673   2.509 -1.4275 -0.8055  0.5764
 5562TIP3   OH216642   2.251   5.300   0.218  0.0517  0.5702  0.1271
 5562TIP3    H116643   2.224   5.386   0.252  1.4108  1.2890 -0.4912
 5562TIP3    H216644   2.290   5.256   0.294 -0.5059  0.5551  0.4102
 5563TIP3   OH216645   0.893   7.055   1.780 -0.7729  0.3117  0.2224
 5563TIP3    H116646   0.918   7.004   1.857 -0.7273  0.6730  0.4480
 5563TIP3    H216647   0.971   7.107   1.759 -0.0062 -1.3456 -1.3679
 5564TIP3   OH216648   4.689   3.203   0.103 -0.7804 -0.6194 -0.0995
 5564TIP3    H116649   4.756   3.219   0.036 -0.0071 -0.1315  0.7757
 5564TIP3    H216650   4.609   3.242   0.067 -0.2376  0.1396 -0.4886
 5565TIP3   OH216651   5.811   2.259   5.404  0.1529 -0.1238  0.0813
 5565TIP3    H116652   5.816   2.344   5.447 -1.4932  0.5535 -1.0114
 5565TIP3    H216653   5.742   2.268   5.339  0.1553 -2.2079 -0.2792
 5566TIP3   OH216654   3.627   4.706   2.749  0.1312 -0.1690 -1.0945
 5566TIP3    H116655   3.565   4.722   2.677  0.0687 -1.3935 -1.3336
 5566TIP3    H216656   3.623   4.612   2.763  1.2858 -0.1417 -0.4992
 5567TIP3   OH216657   1.298   5.912   1.873  0.0585  0.4607  0.0531
 5567TIP3    H116658   1.212   5.916   1.916  0.6426 -0.4172  1.3832
 5567TIP3    H216659   1.328   6.003   1.871 -0.1134  0.5633  1.2997
 5568TIP3   OH216660   4.023   7.562   2.976  0.1525 -0.4016 -0.6122
 5568TIP3    H116661   4.060   7.478   2.948 -0.4390 -1.3611  1.3388
 5568TIP3    H216662   4.054   7.573   3.066 -1.6014  0.3683 -0.0687
 5569TIP3   OH216663   2.782   4.422   2.196 -0.1846  0.0093 -0.8675
 5569TIP3    H116664   2.822   4.344   2.236 -1.1758 -0.3138 -0.4828
 5569TIP3    H216665   2.855   4.483   2.185 -0.0087  0.6067  2.5996
 5570TIP3   OH216666   1.948   0.044   3.100 -0.3400  0.3243  0.0258
 5570TIP3    H116667   1.977   0.092   3.022  0.7852 -0.3096  0.0365
 5570TIP3    H216668   1.909  -0.036   3.065 -3.1350  1.5998 -0.0512
 5571TIP3   OH216669   0.794   0.859   4.260 -0.0013 -0.3193  0.3859
 5571TIP3    H116670   0.841   0.942   4.267 -0.1111 -0.3568  1.7332
 5571TIP3    H216671   0.702   0.884   4.252 -0.0936 -0.3208  1.4178
 5572TIP3   OH216672   5.128   0.976   6.034  0.4043 -0.0187 -0.3635
 5572TIP3    H116673   5.103   0.884   6.022  1.6897 -0.5542  0.8313
 5572TIP3    H216674   5.059   1.025   5.990  1.4762 -1.5865 -4.2581
 5573TIP3   OH216675   4.227   1.189   1.572  0.1849 -0.1678  0.2760
 5573TIP3    H116676   4.210   1.259   1.635 -0.5108  0.7719 -0.9180
 5573TIP3    H216677   4.321   1.192   1.557  0.3885 -0.5298  1.3878
 5574TIP3   OH216678   5.153   3.833   1.100  0.5902  0.5857 -0.0727
 5574TIP3    H116679   5.174   3.749   1.141 -1.0252 -0.7202 -1.7674
 5574TIP3    H216680   5.220   3.893   1.134  0.9430 -1.0027  2.3054
 5575TIP3   OH216681   8.247   1.062   1.610 -0.4438  0.6466  0.0935
 5575TIP3    H116682   8.261   0.998   1.680 -3.2608 -0.4948 -0.2638
 5575TIP3    H216683   8.161   1.041   1.574  0.2173  2.1707 -2.7240
 5576TIP3   OH216684   1.120   3.421   4.368  0.4719  0.5937 -0.8139
 5576TIP3    H116685   1.132   3.327   4.355  1.1027  0.8317 -2.1415
 5576TIP3    H216686   1.136   3.459   4.282 -0.1222  1.8913 -0.3671
 5577TIP3   OH216687   7.218   4.850   0.839 -0.4964 -0.0931 -0.4085
 5577TIP3    H116688   7.223   4.867   0.745  2.3185  0.0842 -0.3075
 5577TIP3    H216689   7.197   4.757   0.845 -2.0554  0.1753 -1.1497
 5578TIP3   OH216690   1.927   5.851   5.497  0.1798 -0.0141 -0.4253
 5578TIP3    H116691   1.880   5.803   5.429  1.7534 -0.1964 -1.4369
 5578TIP3    H216692   2.006   5.799   5.512  2.5628  2.7567 -2.3965
 5579TIP3   OH216693   3.968   1.488   3.676 -0.1025 -0.2113  0.0972
 5579TIP3    H116694   3.940   1.542   3.602  2.1565  2.3804  0.9719
 5579TIP3    H216695   3.966   1.546   3.751 -1.6839 -2.6027  2.0784
 5580TIP3   OH216696   1.800   2.696   2.597  0.0225  0.2385  0.7138
 5580TIP3    H116697   1.749   2.746   2.660  0.6822 -0.2476  1.6639
 5580TIP3    H216698   1.799   2.607   2.631 -1.0166 -0.3869 -0.8843
 5581TIP3   OH216699   4.900   5.015   3.951 -0.2304  0.1452 -0.0958
 5581TIP3    H116700   4.940   4.930   3.933 -0.3631  0.0221  0.1841
 5581TIP3    H216701   4.809   5.004   3.925 -0.1758  0.2994 -0.3525
 5582TIP3   OH216702   7.308   7.290   2.328  0.1335  0.6473  0.3615
 5582TIP3    H116703   7.263   7.225   2.274  1.5626  0.4220 -0.6121
 5582TIP3    H216704   7.350   7.238   2.397  0.5754  0.6200  0.0760
 5583TIP3   OH216705   5.358   6.348   6.581 -0.1288 -0.2211  0.4587
 5583TIP3    H116706   5.451   6.334   6.599  0.0876  0.5672 -0.0193
 5583TIP3    H216707   5.356   6.397   6.499 -0.9522  0.1278  0.6738
 5584TIP3   OH216708   0.560   2.959   5.938  0.1263  0.1938 -0.2582
 5584TIP3    H116709   0.630   2.957   6.002 -0.6764  2.7172  0.8266
 5584TIP3    H216710   0.598   3.003   5.862  1.1648 -3.0464 -1.7987
 5585TIP3   OH216711   2.476   7.780   6.057  0.5605  0.0378 -0.3598
 5585TIP3    H116712   2.432   7.766   6.141 -1.3473  0.6242 -1.1940
 5585TIP3    H216713   2.569   7.778   6.077  0.1560 -0.6945  1.6192
 5586TIP3   OH216714   5.559   1.297   2.782 -0.1413  0.0234  0.8934
 5586TIP3    H116715   5.578   1.315   2.690 -1.4621  1.7903  0.9070
 5586TIP3    H216716   5.470   1.330   2.795 -1.7191 -4.0462  1.8010
 5587TIP3   OH216717   5.308   7.515   4.115  0.1003  0.7270 -0.2261
 5587TIP3    H116718   5.381   7.473   4.071  1.2443  1.6989  0.6758
 5587TIP3    H216719   5.311   7.606   4.087 -0.7612  0.7934 -0.1536
 5588TIP3   OH216720   5.910   6.683   2.886 -0.5486  0.5552  0.0918
 5588TIP3    H116721   5.887   6.708   2.976 -1.3720 -0.6591  0.2341
 5588TIP3    H216722   6.005   6.693   2.883 -0.5056  0.6297  1.1001
 5589TIP3   OH216723   5.596   6.608   6.452  0.0822 -0.2057  0.0014
 5589TIP3    H116724   5.573   6.700   6.459  1.6381  0.1467  1.1949
 5589TIP3    H216725   5.683   6.602   6.493  1.5270 -1.6351 -2.9184
 5590TIP3   OH216726   3.785   0.293   0.526  0.3667 -0.3970 -0.4489
 5590TIP3    H116727   3.760   0.268   0.437 -0.9655  0.4700 -0.3384
 5590TIP3    H216728   3.796   0.210   0.572 -0.9254 -0.8295 -0.8974
 5591TIP3   OH216729   7.631   2.641   2.095  0.0891  0.2532 -0.2702
 5591TIP3    H116730   7.549   2.617   2.052  1.5862 -1.4894 -2.4278
 5591TIP3    H216731   7.616   2.730   2.127 -3.3565 -0.7755  1.4930
 5592TIP3   OH216732   0.453   5.078   0.168 -0.1505 -0.7542 -0.4347
 5592TIP3    H116733   0.396   5.154   0.186 -1.4322 -1.8765  0.4259
 5592TIP3    H216734   0.521   5.113   0.110 -0.7809  1.0230 -0.1796
 5593TIP3   OH216735   5.494   3.026   4.321  0.0463 -0.1438  0.3117
 5593TIP3    H116736   5.585   2.999   4.305  0.0994 -0.8408  1.6463
 5593TIP3    H216737   5.445   2.983   4.251  0.5127 -1.3950  0.7142
 5594TIP3   OH216738   5.240   2.085   5.527 -0.0571  0.5034  0.1110
 5594TIP3    H116739   5.157   2.132   5.520  0.3316  1.2546  0.4309
 5594TIP3    H216740   5.294   2.122   5.457  0.7586  1.6214  1.2819
 5595TIP3   OH216741   1.056   7.478   1.038  0.2275 -0.1931 -0.2373
 5595TIP3    H116742   1.053   7.573   1.055 -1.2874 -0.5894  2.1041
 5595TIP3    H216743   1.145   7.453   1.063  1.0713  0.7504 -2.0775
 5596TIP3   OH216744   6.305   1.158   4.865  0.4205  0.5649 -0.0705
 5596TIP3    H116745   6.310   1.075   4.912 -0.1032  0.8075  0.4205
 5596TIP3    H216746   6.216   1.190   4.881  1.2835  2.3021  1.6003
 5597TIP3   OH216747   7.142   6.716   5.134 -0.0517  0.7622  0.0374
 5597TIP3    H116748   7.166   6.696   5.225 -1.4864  1.5232  0.6112
 5597TIP3    H216749   7.209   6.778   5.105  0.2389  0.7696  0.6988
 5598TIP3   OH216750   5.289   7.691   0.982  0.1212  0.2400  0.1184
 5598TIP3    H116751   5.333   7.660   0.903 -1.7104  0.0632 -0.8940
 5598TIP3    H216752   5.231   7.761   0.951 -1.6527 -0.7530  1.0308
 5599TIP3   OH216753   0.688   3.403   2.693 -0.4881 -0.3326 -0.2136
 5599TIP3    H116754   0.768   3.454   2.704 -0.5422 -0.2629 -0.1473
 5599TIP3    H216755   0.688   3.378   2.600 -1.3491  1.2666 -0.6809
 5600TIP3   OH216756   1.029   6.239   2.407 -0.2237  0.1609 -0.3602
 5600TIP3    H116757   1.113   6.274   2.438 -0.7243 -0.7479  2.2786
 5600TIP3    H216758   0.979   6.222   2.487 -1.7257 -2.2931 -1.6906
 5601TIP3   OH216759   0.091   2.296   4.793 -0.4061  0.4535 -0.2994
 5601TIP3    H116760   0.168   2.317   4.741 -1.1641 -0.3710 -1.8324
 5601TIP3    H216761   0.056   2.216   4.753 -1.8346  0.5912  0.5956
 5602TIP3   OH216762   3.621   6.818   3.723  0.0772  0.1952 -0.0488
 5602TIP3    H116763   3.675   6.751   3.681 -0.2446 -0.7490  0.9992
 5602TIP3    H216764   3.591   6.873   3.651  1.6652  0.1935 -0.7615
 5603TIP3   OH216765   4.204   2.707   1.292 -0.2587 -0.0889  0.3584
 5603TIP3    H116766   4.228   2.724   1.201 -0.1617  1.1723  0.5995
 5603TIP3    H216767   4.239   2.620   1.311  0.6289  0.0713 -0.4983
 5604TIP3   OH216768   6.457   1.018   2.946  0.6151  0.4486 -0.4054
 5604TIP3    H116769   6.531   1.015   3.006  0.0977 -1.2389  0.2220
 5604TIP3    H216770   6.492   0.979   2.865  0.5621  0.0948 -0.2629
 5605TIP3   OH216771   2.770   1.764   5.175 -0.0084  0.1890 -0.1265
 5605TIP3    H116772   2.715   1.841   5.189  0.0475  0.1020  0.6317
 5605TIP3    H216773   2.834   1.791   5.109  1.2980  1.4707  1.6000
 5606TIP3   OH216774   7.953   5.761   5.212  0.6593  0.4474  0.2839
 5606TIP3    H116775   7.879   5.725   5.261 -0.0078  0.3183 -0.7763
 5606TIP3    H216776   7.916   5.834   5.163  0.7138 -0.8356 -1.8216
 5607TIP3   OH216777   1.326   4.266   6.361 -0.1870 -0.1378 -0.6141
 5607TIP3    H116778   1.403   4.275   6.306 -0.1935  0.4598 -0.5329
 5607TIP3    H216779   1.271   4.341   6.338 -0.9698 -0.8208 -1.0273
 5608TIP3   OH216780   6.087   5.727   0.877 -0.1869 -0.2135 -0.1015
 5608TIP3    H116781   6.000   5.724   0.917 -0.0645 -0.6229  0.1471
 5608TIP3    H216782   6.075   5.776   0.796 -0.4965  0.3728  0.2969
 5609TIP3   OH216783   7.231   2.625   4.340  0.2215  0.1219  0.2548
 5609TIP3    H116784   7.308   2.630   4.284  1.2265  1.8078  1.6930
 5609TIP3    H216785   7.238   2.701   4.397 -1.6513 -0.6003  1.5298
 5610TIP3   OH216786   2.874   0.589   4.822  0.8645 -0.3340 -0.1004
 5610TIP3    H116787   2.912   0.642   4.893 -0.2636  0.5934 -0.1561
 5610TIP3    H216788   2.895   0.637   4.742 -0.6379  0.3575 -0.1083
 5611TIP3   OH216789   1.749   0.217   4.246  0.1895  0.2969 -0.7354
 5611TIP3    H116790   1.768   0.280   4.316 -1.0494  1.3715 -1.3213
 5611TIP3    H216791   1.715   0.271   4.174 -0.9384 -1.0468 -1.2534
 5612TIP3   OH216792   1.288   1.312   3.677 -0.1001  0.3857  0.4073
 5612TIP3    H116793   1.264   1.226   3.709 -1.2488  0.9218  1.0318
 5612TIP3    H216794   1.382   1.319   3.696  0.2075 -1.0457 -0.4431
 5613TIP3   OH216795   0.737   4.914   1.722 -0.6006  0.3381  0.4927
 5613TIP3    H116796   0.754   4.822   1.700  1.2460  0.7041  0.2462
 5613TIP3    H216797   0.717   4.955   1.638  2.9322  1.0024 -0.1619
 5614TIP3   OH216798   1.147   0.925   6.742  0.1507 -0.5694  0.1127
 5614TIP3    H116799   1.081   0.979   6.785  0.2247 -1.3533  1.2526
 5614TIP3    H216800   1.148   0.956   6.651 -2.3029 -1.0220 -0.1456
 5615TIP3   OH216801   1.743   4.420   6.218 -0.3316 -0.1963  0.3895
 5615TIP3    H116802   1.728   4.507   6.254 -1.2507  0.7427 -2.0476
 5615TIP3    H216803   1.837   4.418   6.198 -0.5041  0.7374 -0.6211
 5616TIP3   OH216804   4.304   0.323   0.173 -1.0151 -0.1699 -0.3515
 5616TIP3    H116805   4.274   0.239   0.140  0.5905 -0.6020 -0.7821
 5616TIP3    H216806   4.260   0.388   0.119  0.6502 -0.8414 -2.6660
 5617TIP3   OH216807   7.948   0.246   2.257 -0.6748  0.6495  0.0426
 5617TIP3    H116808   8.042   0.250   2.274 -0.4053 -2.6448 -0.0603
 5617TIP3    H216809   7.908   0.239   2.344 -0.8593  1.7257  0.0669
 5618TIP3   OH216810   6.930   4.507   0.009  0.4855  0.1352 -0.1621
 5618TIP3    H116811   6.894   4.444   0.071  0.2711  0.5651  0.1467
 5618TIP3    H216812   7.024   4.510   0.030  0.2366  1.1235  0.8991
 5619TIP3   OH216813   1.065   7.716   5.167 -0.7766  0.2235  0.3821
 5619TIP3    H116814   0.971   7.723   5.187 -0.5592  1.8679  0.9827
 5619TIP3    H216815   1.108   7.741   5.248  0.1698  1.4332 -0.4708
 5620TIP3   OH216816   3.668   7.831   6.646 -0.0190  0.3727  0.5793
 5620TIP3    H116817   3.646   7.841   6.553 -0.4485  0.1532  0.6537
 5620TIP3    H216818   3.599   7.775   6.681 -1.2863  2.4071  1.5722
 5621TIP3   OH216819   0.043   6.423   5.237 -0.0416 -0.3298 -0.3188
 5621TIP3    H116820   0.071   6.334   5.257  0.1070  0.1423  1.8404
 5621TIP3    H216821  -0.051   6.424   5.254  0.0426  0.0189  0.1808
 5622TIP3   OH216822   7.805   5.025   1.697  0.0509  0.6548  0.3394
 5622TIP3    H116823   7.752   4.948   1.675 -0.8870  2.0004 -2.4570
 5622TIP3    H216824   7.886   4.988   1.732 -0.2839 -1.6210 -1.0894
 5623TIP3   OH216825   7.847   1.417   4.855  0.4309 -0.0039  0.3038
 5623TIP3    H116826   7.933   1.421   4.814  0.9465 -2.1924  1.0722
 5623TIP3    H216827   7.786   1.410   4.782  1.3230 -3.8779 -0.2688
 5624TIP3   OH216828   0.907   2.157   4.841  0.1077 -0.0319  0.2712
 5624TIP3    H116829   0.855   2.229   4.876  0.6703  0.1811  0.6932
 5624TIP3    H216830   0.889   2.083   4.898 -0.5741 -0.2671 -0.2429
 5625TIP3   OH216831   6.954   5.902   0.316 -0.0054 -0.0950  0.1657
 5625TIP3    H116832   6.868   5.943   0.307 -0.3037 -0.6025  0.6179
 5625TIP3    H216833   6.942   5.839   0.387  0.3333 -1.2459 -0.7717
 5626TIP3   OH216834   1.330   6.870   1.431 -0.5867 -0.5448  0.0233
 5626TIP3    H116835   1.382   6.868   1.350 -0.6480  1.4984 -0.1124
 5626TIP3    H216836   1.241   6.849   1.404 -0.6519  0.3710 -0.5108
 5627TIP3   OH216837   5.313   4.946   5.006 -0.2865 -0.0020 -0.1420
 5627TIP3    H116838   5.227   4.955   4.965 -0.4802 -1.0696 -0.0103
 5627TIP3    H216839   5.315   5.015   5.072 -0.2769  1.2358 -1.3917
 5628TIP3   OH216840   8.065   5.775   2.804 -0.3501 -0.0710  0.0446
 5628TIP3    H116841   8.002   5.839   2.770 -0.5551 -0.8148 -1.0434
 5628TIP3    H216842   8.099   5.815   2.884 -1.0564  1.0375 -0.1796
 5629TIP3   OH216843   6.434   0.214   4.929  0.3655 -0.2656 -0.3754
 5629TIP3    H116844   6.501   0.236   4.994  0.2738  0.1064 -0.4096
 5629TIP3    H216845   6.353   0.252   4.963  0.3129 -0.0947 -0.6925
 5630TIP3   OH216846   6.475   1.348   5.592  0.1235  0.1368 -0.1540
 5630TIP3    H116847   6.443   1.330   5.504  0.3717  0.4796 -0.3159
 5630TIP3    H216848   6.497   1.262   5.628 -1.8946 -0.2249  0.3242
 5631TIP3   OH216849   5.944   2.594   0.034 -0.5904 -0.1605  0.1563
 5631TIP3    H116850   5.939   2.632  -0.054  1.1247 -0.3999 -0.0655
 5631TIP3    H216851   5.930   2.668   0.093 -0.2558  0.2717 -0.2970
 5632TIP3   OH216852   7.164   3.527   4.159  0.4276  0.1734  0.1618
 5632TIP3    H116853   7.175   3.437   4.130  1.5657  0.8246 -1.5859
 5632TIP3    H216854   7.069   3.542   4.156  0.1275 -1.2028  1.3939
 5633TIP3   OH216855   1.266   6.086   2.570 -0.1733 -0.0325  0.9852
 5633TIP3    H116856   1.201   6.076   2.639 -1.5704  2.0965  0.0964
 5633TIP3    H216857   1.234   6.032   2.498  0.0383 -0.4294  1.1868
 5634TIP3   OH216858   3.369   3.668   1.496  0.3722  0.2769  0.1953
 5634TIP3    H116859   3.346   3.715   1.416  0.5599  0.0704  0.0229
 5634TIP3    H216860   3.367   3.736   1.564  2.5932  0.9755 -0.3603
 5635TIP3   OH216861   2.603   6.981   5.497 -0.9286 -0.2075 -0.3664
 5635TIP3    H116862   2.541   7.038   5.543 -0.8590 -0.1132 -0.3885
 5635TIP3    H216863   2.556   6.952   5.420 -0.7785  0.2566 -0.6395
 5636TIP3   OH216864   5.046   2.383   6.484  0.4513  0.2614 -0.4524
 5636TIP3    H116865   5.122   2.339   6.447 -0.4955 -1.1282 -0.8376
 5636TIP3    H216866   5.005   2.317   6.540 -0.3580  1.0445 -0.0997
 5637TIP3   OH216867   0.825   6.426   3.606 -1.0953 -0.6426 -0.4675
 5637TIP3    H116868   0.918   6.406   3.617 -0.5946  2.2809  1.8603
 5637TIP3    H216869   0.780   6.360   3.659 -0.2906 -1.3810 -0.6813
 5638TIP3   OH216870   1.439   4.166   0.179 -0.2458 -0.2382  0.6198
 5638TIP3    H116871   1.417   4.087   0.129  0.7268 -0.4639  0.5358
 5638TIP3    H216872   1.461   4.134   0.266  1.1128 -0.1727  0.3134
 5639TIP3   OH216873   1.736   6.069   4.982  0.1338 -0.1307  0.1952
 5639TIP3    H116874   1.674   6.141   4.972  0.6000  0.2581  0.0636
 5639TIP3    H216875   1.745   6.059   5.077 -1.4312 -1.3396  0.2594
 5640TIP3   OH216876   3.216   6.862   0.579 -0.2591  0.3113 -0.1120
 5640TIP3    H116877   3.142   6.833   0.632 -0.5344  0.2430 -0.5288
 5640TIP3    H216878   3.277   6.788   0.581  0.1598  0.6676  0.8805
 5641TIP3   OH216879   5.996   3.854   5.536 -0.1245 -0.0771  0.4760
 5641TIP3    H116880   6.091   3.865   5.532 -0.1186 -0.1298  0.4563
 5641TIP3    H216881   5.977   3.790   5.467  0.0200 -1.2924  1.5071
 5642TIP3   OH216882   0.194   7.617   5.787 -0.0234 -0.1677  0.4372
 5642TIP3    H116883   0.135   7.600   5.713  0.8691  1.0060 -0.5767
 5642TIP3    H216884   0.275   7.648   5.747  0.9191 -0.6592  1.8665
 5643TIP3   OH216885   7.399   5.721   5.173  0.0204 -0.5350 -0.1690
 5643TIP3    H116886   7.371   5.800   5.127  0.2693  1.3152  2.6082
 5643TIP3    H216887   7.325   5.661   5.166 -0.6486  0.3959 -1.3235
 5644TIP3   OH216888   8.124   5.825   3.059  0.1502  0.4683 -0.5854
 5644TIP3    H116889   8.094   5.897   3.115 -0.0617  0.5512 -0.8026
 5644TIP3    H216890   8.147   5.756   3.121 -0.3207  0.4674 -0.4012
 5645TIP3   OH216891   1.033   1.569   4.635 -0.2842  0.7809 -0.4439
 5645TIP3    H116892   1.116   1.597   4.597  0.2847  3.5772  2.4464
 5645TIP3    H216893   0.970   1.635   4.606 -0.7985  0.4751 -0.0282
 5646TIP3   OH216894   6.851   4.163   4.980 -0.5649  0.3727  0.6964
 5646TIP3    H116895   6.762   4.135   4.998 -0.3927  0.1940  1.2867
 5646TIP3    H216896   6.899   4.143   5.060  0.4455 -1.3957 -0.2752
 5647TIP3   OH216897   7.284   5.330   0.239 -0.2032  0.2342 -0.0483
 5647TIP3    H116898   7.218   5.384   0.284 -0.6367  0.2370 -0.6817
 5647TIP3    H216899   7.334   5.393   0.187  0.5110  0.2763  0.6587
 5648TIP3   OH216900   3.174   2.592   5.348  0.4028  0.3739 -0.2619
 5648TIP3    H116901   3.184   2.687   5.359 -0.2166  0.2765  1.3708
 5648TIP3    H216902   3.194   2.556   5.434  0.3244 -0.9635 -0.7885
 5649TIP3   OH216903   4.777   2.710   4.514 -0.0771  0.1036  0.2627
 5649TIP3    H116904   4.852   2.658   4.485 -0.0410  1.0619 -1.5304
 5649TIP3    H216905   4.732   2.655   4.578  1.9362 -0.6415  1.1136
 5650TIP3   OH216906   5.334   0.062   3.288  0.3794 -0.5071 -0.3635
 5650TIP3    H116907   5.406   0.022   3.337 -0.3159 -2.3045 -0.6988
 5650TIP3    H216908   5.331   0.152   3.317  1.4575 -0.9347  1.1753
 5651TIP3   OH216909   6.830   1.129   0.886 -0.2842 -0.7749 -0.0762
 5651TIP3    H116910   6.819   1.097   0.797  1.5651  0.7289 -0.8903
 5651TIP3    H216911   6.913   1.176   0.886 -0.5505 -0.1506  2.2800
 5652TIP3   OH216912   5.816   5.825   5.093  0.5288 -0.0495 -0.0760
 5652TIP3    H116913   5.906   5.845   5.117  0.6213 -1.7229  1.0989
 5652TIP3    H216914   5.817   5.733   5.068 -1.1056 -0.5973  1.6088
 5653TIP3   OH216915   5.543   1.525   3.103  0.2009 -0.2311 -0.3799
 5653TIP3    H116916   5.593   1.572   3.170  0.9203  1.0427 -1.7432
 5653TIP3    H216917   5.453   1.559   3.112  0.2373 -0.2502  0.0824
 5654TIP3   OH216918   7.269   0.077   1.893 -0.2293 -0.2698 -0.2584
 5654TIP3    H116919   7.244   0.037   1.809  0.0034 -1.8517  0.3919
 5654TIP3    H216920   7.365   0.078   1.891 -0.2258  1.5444 -0.8184
 5655TIP3   OH216921   8.202   7.780   4.084  0.4241  0.6806  0.4636
 5655TIP3    H116922   8.281   7.726   4.076 -0.5464 -0.6232 -0.9250
 5655TIP3    H216923   8.189   7.790   4.178  1.4442 -0.2915  0.7264
 5656TIP3   OH216924   7.495   3.301   4.565 -0.0325  0.3140  0.2223
 5656TIP3    H116925   7.413   3.319   4.518  1.7733  0.7285 -3.1024
 5656TIP3    H216926   7.533   3.388   4.579  1.0311  0.0323 -0.7480
 5657TIP3   OH216927   6.338   4.888   3.001 -0.2431 -0.0180 -0.0707
 5657TIP3    H116928   6.368   4.802   3.030 -0.5165  0.1032  0.5884
 5657TIP3    H216929   6.338   4.882   2.906 -1.0665 -1.0274 -0.0285
 5658TIP3   OH216930   1.389   5.402   2.439  0.2990 -0.1349  0.1721
 5658TIP3    H116931   1.355   5.488   2.464  1.3208  0.0180  1.0857
 5658TIP3    H216932   1.392   5.405   2.343  1.3163  1.2540  0.2178
 5659TIP3   OH216933   8.004   6.972   0.102 -0.0309  0.4555 -0.0532
 5659TIP3    H116934   7.930   6.940   0.154 -0.7271  0.2173 -1.1414
 5659TIP3    H216935   7.989   7.066   0.094 -0.7944  0.2754 -1.0868
 5660TIP3   OH216936   7.942   3.442   1.210 -0.1314  0.5812 -0.3511
 5660TIP3    H116937   7.943   3.519   1.267 -2.1604  0.5393 -0.1592
 5660TIP3    H216938   8.013   3.387   1.243 -0.9116  0.7761  1.8940
 5661TIP3   OH216939   3.086   2.450   1.906 -0.1310  0.1083 -0.2346
 5661TIP3    H116940   3.090   2.439   2.001 -0.0268  0.6442 -0.1746
 5661TIP3    H216941   3.037   2.373   1.875 -2.1630  1.0294  0.4735
 5662TIP3   OH216942   4.995   2.893   1.863  0.1009  0.0522 -0.1564
 5662TIP3    H116943   5.026   2.870   1.951  1.4336  0.4220 -0.5046
 5662TIP3    H216944   5.072   2.881   1.807 -0.9504 -1.0275 -1.4321
 5663TIP3   OH216945   0.859   0.541   4.444 -0.1929  0.1762  0.5796
 5663TIP3    H116946   0.898   0.534   4.532 -0.2606  3.5752  1.0131
 5663TIP3    H216947   0.766   0.559   4.461 -0.9178 -2.2814 -0.3470
 5664TIP3   OH216948   5.802   6.483   4.693 -0.0958  0.3525 -0.3403
 5664TIP3    H116949   5.820   6.445   4.607  0.3645  0.1119 -0.1415
 5664TIP3    H216950   5.758   6.413   4.741 -1.1751  0.7902 -0.6759
 5665TIP3   OH216951   5.740   5.007   5.516 -0.3816 -0.2819  0.1725
 5665TIP3    H116952   5.833   5.024   5.499 -0.8000  2.9276  0.4566
 5665TIP3    H216953   5.737   4.985   5.609  0.0161  1.0566  0.5330
 5666TIP3   OH216954   7.907   2.327   5.143 -0.3704 -0.2332 -0.2948
 5666TIP3    H116955   7.917   2.236   5.116 -1.1510 -0.2824 -0.4324
 5666TIP3    H216956   7.995   2.364   5.135  0.3999 -1.4735  1.6556
 5667TIP3   OH216957   0.230   5.648   2.724  0.1575  0.1758  0.0568
 5667TIP3    H116958   0.173   5.575   2.749  1.3361 -0.2609  1.6620
 5667TIP3    H216959   0.305   5.606   2.683  0.5559  0.5170  0.4280
 5668TIP3   OH216960   4.487   3.314   5.664 -0.3493  0.2263  0.1983
 5668TIP3    H116961   4.394   3.294   5.663 -0.0620 -1.3605  1.4889
 5668TIP3    H216962   4.522   3.269   5.587 -0.4441 -0.4242  0.5244
 5669TIP3   OH216963   0.617   6.913   0.641  0.4086 -0.6827  0.7115
 5669TIP3    H116964   0.619   6.998   0.596 -1.1436 -0.8767  0.1857
 5669TIP3    H216965   0.708   6.891   0.657  0.9772 -0.0633 -1.3570
 5670TIP3   OH216966   4.222   4.626   1.669 -0.7678  0.6753  0.7617
 5670TIP3    H116967   4.197   4.536   1.690 -0.3500  0.5152  0.5765
 5670TIP3    H216968   4.256   4.622   1.580  1.6424  0.5512  1.6096
 5671TIP3   OH216969   5.310   7.392   2.015  0.4047  0.0535  0.8947
 5671TIP3    H116970   5.349   7.329   2.075  0.4075 -0.1271  0.7030
 5671TIP3    H216971   5.372   7.465   2.013  1.3983 -0.7759 -0.4074
 5672TIP3   OH216972   7.761   7.166   4.764  0.7545  0.6147 -0.4823
 5672TIP3    H116973   7.841   7.119   4.741 -0.6956 -2.2659 -0.0926
 5672TIP3    H216974   7.752   7.233   4.696  3.3869  0.9876 -0.5817
 5673TIP3   OH216975   0.305   3.052   6.069  0.0366 -0.6355  0.8195
 5673TIP3    H116976   0.273   3.130   6.023  0.0709 -1.1036 -0.0120
 5673TIP3    H216977   0.400   3.054   6.057  0.0273 -0.8632  0.7086
 5674TIP3   OH216978   6.895   1.675   6.390  0.1253  0.3931  0.4155
 5674TIP3    H116979   6.846   1.667   6.309  0.6870 -2.1111  0.2197
 5674TIP3    H216980   6.985   1.694   6.362  0.3390 -0.5688  0.4114
 5675TIP3   OH216981   5.005   2.156   2.214 -0.5528  0.4526  0.0079
 5675TIP3    H116982   5.084   2.167   2.161 -0.1658 -1.5086  0.1412
 5675TIP3    H216983   5.008   2.229   2.276  1.7721 -0.2199  0.7749
 5676TIP3   OH216984   3.542   2.618   3.423 -0.6231  0.0702  0.3891
 5676TIP3    H116985   3.505   2.692   3.375  1.0353  0.1677 -0.8270
 5676TIP3    H216986   3.468   2.559   3.437 -1.4080  0.5888 -1.2776
 5677TIP3   OH216987   7.961   4.148   4.395 -0.5231  0.4088  0.2244
 5677TIP3    H116988   7.918   4.083   4.340 -0.3891  0.2003  0.3674
 5677TIP3    H216989   8.049   4.156   4.358 -0.6922  0.8767 -0.1032
 5678TIP3   OH216990   6.417   6.008   4.663 -0.1190  0.3008 -0.3326
 5678TIP3    H116991   6.488   5.951   4.693 -1.8797 -3.0798 -1.9641
 5678TIP3    H216992   6.359   6.017   4.739  0.1894 -0.0954 -0.0450
 5679TIP3   OH216993   3.568   3.756   0.657 -0.0789  0.6006  0.6941
 5679TIP3    H116994   3.534   3.677   0.701  0.5037  0.8058  1.5341
 5679TIP3    H216995   3.587   3.727   0.568  2.2386 -0.8302  1.5684
 5680TIP3   OH216996   6.846   7.131   6.102 -0.2582 -0.6498 -0.9131
 5680TIP3    H116997   6.795   7.133   6.183 -0.2244  0.6430 -0.9008
 5680TIP3    H216998   6.884   7.043   6.099  2.3617  0.2082  2.0926
 5681TIP3   OH216999   4.154   2.053   2.879  0.2972  0.1949  0.2011
 5681TIP3    H117000   4.194   2.115   2.940  0.1230  1.2745 -0.7490
 5681TIP3    H217001   4.225   2.026   2.821 -0.4151  3.0349 -2.2568
 5682TIP3   OH217002   3.178   7.192   0.852  0.5040 -0.1601  0.2655
 5682TIP3    H117003   3.273   7.188   0.842  0.4269  1.2195 -1.5965
 5682TIP3    H217004   3.146   7.229   0.770 -1.6671 -0.6013  0.8251
 5683TIP3   OH217005   6.625   2.072   0.802  0.6153  0.2228  0.2008
 5683TIP3    H117006   6.624   1.994   0.856 -1.0499  0.8626  1.1647
 5683TIP3    H217007   6.588   2.045   0.718 -0.9623  0.1866  0.8850
 5684TIP3   OH217008   4.683   2.144   0.716 -0.2542 -0.1471 -0.4388
 5684TIP3    H117009   4.693   2.063   0.666 -1.5279 -0.1886 -0.6727
 5684TIP3    H217010   4.758   2.147   0.775 -1.2198 -2.5451  1.0420
 5685TIP3   OH217011   4.359   0.151   3.680  0.0287 -0.2458 -0.2472
 5685TIP3    H117012   4.353   0.231   3.627 -0.9309 -1.0951 -1.4879
 5685TIP3    H217013   4.384   0.083   3.617  1.5750 -0.8191  0.9273
 5686TIP3   OH217014   1.089   5.992   4.350 -0.5245 -0.2718  0.2267
 5686TIP3    H117015   1.110   6.053   4.420 -0.7839 -0.7780  0.7510
 5686TIP3    H217016   1.111   5.906   4.385 -0.8840 -0.5545 -0.2264
 5687TIP3   OH217017   1.153   4.066   3.450  1.3401  0.2394 -0.2269
 5687TIP3    H117018   1.193   4.153   3.448 -1.4058  1.6248  0.3801
 5687TIP3    H217019   1.110   4.061   3.535  2.5335 -2.3239  0.3256
 5688TIP3   OH217020   6.891   3.233   5.622  0.3824  0.1154  0.2285
 5688TIP3    H117021   6.907   3.322   5.652  1.1574 -0.3538  1.2577
 5688TIP3    H217022   6.803   3.212   5.653  0.2612  0.4664  0.1216
 5689TIP3   OH217023   6.343   2.569   2.839  0.5525  0.1152 -0.3637
 5689TIP3    H117024   6.280   2.630   2.800  1.1671  1.4873  0.7092
 5689TIP3    H217025   6.288   2.506   2.887 -0.1158 -0.5648 -1.9538
 5690TIP3   OH217026   3.329   7.096   2.176  0.2984  0.0147 -0.1401
 5690TIP3    H117027   3.362   7.066   2.091 -1.7325  0.5591 -1.1943
 5690TIP3    H217028   3.384   7.171   2.198 -0.4885  1.2811 -2.1347
 5691TIP3   OH217029   2.237   7.516   5.041  0.1879 -0.2918 -0.1222
 5691TIP3    H117030   2.173   7.583   5.017 -0.7658 -0.1953  2.4149
 5691TIP3    H217031   2.187   7.435   5.043  0.8998 -0.7829 -1.1895
 5692TIP3   OH217032   5.709   4.376   4.240  0.1772  0.2082 -0.2412
 5692TIP3    H117033   5.728   4.464   4.272  1.0128 -0.3099  0.7264
 5692TIP3    H217034   5.758   4.318   4.298 -0.3754 -0.9017 -0.8563
 5693TIP3   OH217035   3.882   2.258   3.905 -0.3209  0.3371  0.3804
 5693TIP3    H117036   3.824   2.296   3.839 -0.2752 -0.4255 -0.1150
 5693TIP3    H217037   3.966   2.302   3.890 -0.3864  0.3759  0.1161
 5694TIP3   OH217038   6.203   0.699   2.210 -0.4128  0.6806  0.3846
 5694TIP3    H117039   6.279   0.651   2.176 -0.9063  0.4736 -0.4572
 5694TIP3    H217040   6.190   0.770   2.147 -0.5988  1.0276  0.8155
 5695TIP3   OH217041   5.227   6.486   4.557 -1.0138  0.3242 -0.5252
 5695TIP3    H117042   5.196   6.430   4.486  0.1667 -1.2723  0.1532
 5695TIP3    H217043   5.295   6.540   4.517 -0.6751 -0.2436 -0.7299
 5696TIP3   OH217044   1.605   2.777   6.454  0.0511  0.1840 -0.1604
 5696TIP3    H117045   1.561   2.794   6.537 -0.1837  1.3814 -0.5066
 5696TIP3    H217046   1.544   2.809   6.387 -0.5879 -2.4483 -0.9462
 5697TIP3   OH217047   7.774   0.816   6.240 -0.3704 -0.2385  0.1768
 5697TIP3    H117048   7.735   0.819   6.153 -1.2451 -2.4468  0.4272
 5697TIP3    H217049   7.744   0.733   6.277  1.1050 -0.0019  2.0619
 5698TIP3   OH217050   3.274   0.927   0.527 -0.0801 -0.3939  0.6763
 5698TIP3    H117051   3.219   1.002   0.551  2.0671  1.2473  0.8104
 5698TIP3    H217052   3.249   0.858   0.590 -1.4167  0.5216  1.1979
 5699TIP3   OH217053   1.630   5.474   2.901  0.0357  0.0513  0.2354
 5699TIP3    H117054   1.687   5.439   2.833  1.6052  0.5406  1.2254
 5699TIP3    H217055   1.665   5.437   2.982  0.2249  1.9260  1.0603
 5700TIP3   OH217056   7.530   2.363   5.282 -0.7604 -0.2305  0.1997
 5700TIP3    H117057   7.575   2.367   5.197 -1.5488 -0.2867 -0.2278
 5700TIP3    H217058   7.527   2.454   5.312 -0.1723 -0.2508  0.3419
 5701TIP3   OH217059   4.398   4.749   3.878  0.2842  0.5178  0.0853
 5701TIP3    H117060   4.395   4.820   3.815  0.7493 -0.3408 -0.9293
 5701TIP3    H217061   4.396   4.669   3.825  1.6194 -0.2278  1.0930
 5702TIP3   OH217062   7.497   1.858   6.322  0.0472  0.6074  0.2346
 5702TIP3    H117063   7.427   1.812   6.276  0.7020  0.1283 -0.3044
 5702TIP3    H217064   7.558   1.885   6.254 -1.6188  4.7755  0.1604
 5703TIP3   OH217065   7.905   7.554   2.988  0.6072  0.4598  0.5385
 5703TIP3    H117066   7.932   7.512   2.906 -0.6521 -0.8900  0.7712
 5703TIP3    H217067   7.929   7.491   3.056 -1.1163  0.1560  0.9172
 5704TIP3   OH217068   6.687   3.499   5.921 -0.0683  0.1145 -0.1967
 5704TIP3    H117069   6.696   3.546   6.004 -0.6698  1.6572 -0.9761
 5704TIP3    H217070   6.763   3.527   5.869 -0.8927  0.9235 -0.9866
 5705TIP3   OH217071   6.955   3.154   4.553 -0.0413  0.1579  0.0348
 5705TIP3    H117072   7.012   3.081   4.576 -0.4652 -0.2847 -0.3109
 5705TIP3    H217073   6.950   3.207   4.633 -0.4805 -0.6822  0.5719
 5706TIP3   OH217074   0.836   2.815   2.372 -0.9744 -0.5823  0.4259
 5706TIP3    H117075   0.747   2.781   2.384 -1.1611  0.1148  1.1165
 5706TIP3    H217076   0.827   2.880   2.302 -1.1317 -0.0818  0.9057
 5707TIP3   OH217077   7.988   6.668   6.569 -0.1609  0.1336  0.3192
 5707TIP3    H117078   8.056   6.601   6.577 -1.9120 -2.0907 -1.8720
 5707TIP3    H217079   8.017   6.722   6.495 -0.2553 -0.1668  0.0595
 5708TIP3   OH217080   1.112   5.191   4.835 -0.1912  0.0323  0.0744
 5708TIP3    H117081   1.090   5.281   4.808 -1.6662 -0.0930  0.7756
 5708TIP3    H217082   1.058   5.136   4.779  0.2404 -0.4112  0.0877
 5709TIP3   OH217083   3.911   1.697   3.913 -0.1424 -0.1146 -0.1858
 5709TIP3    H117084   3.818   1.699   3.893  0.0906  2.0724 -1.3487
 5709TIP3    H217085   3.923   1.764   3.979  0.6098 -0.4632  0.0432
 5710TIP3   OH217086   5.905   0.794   4.197  0.1899  0.0443  0.2529
 5710TIP3    H117087   5.918   0.832   4.284 -1.5032  2.8113 -0.5901
 5710TIP3    H217088   5.874   0.705   4.214 -1.4127  0.9564  2.5326
 5711TIP3   OH217089   1.067   0.166   6.064  0.1910  0.4361  0.3800
 5711TIP3    H117090   1.146   0.125   6.100 -0.0325 -1.1261 -0.8267
 5711TIP3    H217091   1.095   0.254   6.040  0.9678  0.6804  2.0233
 5712TIP3   OH217092   4.060   0.297   3.350  0.1895 -0.3362 -0.0582
 5712TIP3    H117093   3.984   0.336   3.392 -0.2259 -1.3657  0.1807
 5712TIP3    H217094   4.068   0.342   3.266  0.0791  0.6477  0.4417
 5713TIP3   OH217095   0.533   6.695   0.500  0.2509  0.0438 -0.2248
 5713TIP3    H117096   0.438   6.704   0.510  0.0410 -1.8717 -0.0176
 5713TIP3    H217097   0.569   6.771   0.544 -1.1654  0.0492  1.0185
 5714TIP3   OH217098   3.564   2.040   2.819  0.1476 -0.2742 -0.2560
 5714TIP3    H117099   3.619   2.110   2.855 -1.4254  0.1873  1.3947
 5714TIP3    H217100   3.574   2.050   2.724  1.5484  0.8717 -0.0460
 5715TIP3   OH217101   7.380   2.698   3.619 -0.3190 -0.1575  0.8820
 5715TIP3    H117102   7.414   2.733   3.702  3.4050 -1.5874  0.1721
 5715TIP3    H217103   7.384   2.603   3.631  0.4717 -0.3881 -0.9341
 5716TIP3   OH217104   3.706   4.289   0.536  0.1811 -0.1309 -0.2453
 5716TIP3    H117105   3.771   4.319   0.473  1.9326 -0.1986  1.4566
 5716TIP3    H217106   3.728   4.198   0.552 -0.7445 -0.3405 -0.1046
 5717TIP3   OH217107   1.101   4.706   0.384  0.4927  0.3947 -0.4999
 5717TIP3    H117108   1.076   4.753   0.464 -1.2655 -0.2945 -0.6086
 5717TIP3    H217109   1.093   4.614   0.407 -2.0633  0.1501 -2.0040
 5718TIP3   OH217110   2.783   6.278   0.202  0.1270 -0.5494 -0.3552
 5718TIP3    H117111   2.697   6.314   0.183 -0.5466 -2.2455 -0.6964
 5718TIP3    H217112   2.835   6.353   0.230 -1.6701  0.3996  0.6066
 5719TIP3   OH217113   1.631   4.592   3.961 -0.0537  0.2726 -0.2491
 5719TIP3    H117114   1.708   4.646   3.979  0.5306 -0.8430  0.7483
 5719TIP3    H217115   1.557   4.651   3.977  0.5703  0.9712  0.1582
 5720TIP3   OH217116   3.945   7.756   1.100 -0.1466 -0.3648 -0.2088
 5720TIP3    H117117   4.002   7.832   1.091 -0.3438 -0.0698  0.8859
 5720TIP3    H217118   3.862   7.792   1.130  0.2366 -1.1210  1.9872
 5721TIP3   OH217119   3.453   5.601   0.721 -0.1829 -0.3991  0.2756
 5721TIP3    H117120   3.408   5.683   0.704  2.3383  0.9043 -0.7221
 5721TIP3    H217121   3.471   5.565   0.634 -0.1560 -1.3812  0.6682
 5722TIP3   OH217122   4.801   6.900   5.336  0.1066  0.0070  0.0260
 5722TIP3    H117123   4.844   6.984   5.317 -0.6361  0.4487  0.2434
 5722TIP3    H217124   4.787   6.901   5.431 -0.9196  0.1465 -0.1169
 5723TIP3   OH217125   4.630   0.624   2.202 -0.1006  0.4734  0.7131
 5723TIP3    H117126   4.681   0.568   2.144  0.7218 -1.4282  3.1452
 5723TIP3    H217127   4.650   0.713   2.172 -0.8032 -0.3821 -2.7365
 5724TIP3   OH217128   4.461   6.747   1.541 -0.2866  0.6809 -0.5680
 5724TIP3    H117129   4.446   6.809   1.612  0.6856 -0.0565  0.3163
 5724TIP3    H217130   4.386   6.688   1.544 -0.2815  0.6922 -0.1878
 5725TIP3   OH217131   6.264   6.412   4.223 -0.5405 -0.1742  0.8223
 5725TIP3    H117132   6.185   6.454   4.258  0.9287  0.0582  4.2313
 5725TIP3    H217133   6.249   6.318   4.235 -1.8934 -0.5206 -2.4800
 5726TIP3   OH217134   5.396   3.509   2.786  0.2259  0.4001  0.6874
 5726TIP3    H117135   5.331   3.579   2.782 -0.9936 -0.4403  3.6330
 5726TIP3    H217136   5.349   3.431   2.755  1.2033  0.5222 -1.3230
 5727TIP3   OH217137   2.041   4.002   4.830  0.1315 -0.2918  0.4209
 5727TIP3    H117138   1.951   4.035   4.831  0.5565  1.4928 -3.4310
 5727TIP3    H217139   2.040   3.932   4.764  1.4736 -0.5781  0.6901
 5728TIP3   OH217140   4.128   6.017   0.474  0.0722  0.3321  0.7345
 5728TIP3    H117141   4.076   5.939   0.455  0.5456  0.1347  0.2319
 5728TIP3    H217142   4.139   6.015   0.569  2.8537 -2.0461  0.5105
 5729TIP3   OH217143   4.222   2.645   3.765 -0.1942  0.4264 -0.2630
 5729TIP3    H117144   4.208   2.714   3.830 -0.8235 -1.4018  1.6591
 5729TIP3    H217145   4.290   2.589   3.804  1.1671  0.5333 -2.3116
 5730TIP3   OH217146   4.680   3.704   1.153 -0.1001  0.0857  0.1636
 5730TIP3    H117147   4.664   3.777   1.212 -1.0579 -0.4166  0.5552
 5730TIP3    H217148   4.752   3.732   1.097 -1.0210  1.6670 -0.2786
 5731TIP3   OH217149   6.020   0.721   6.534  0.1121  0.0495  0.0216
 5731TIP3    H117150   6.106   0.696   6.567  0.8030  1.6411 -0.5104
 5731TIP3    H217151   5.977   0.763   6.609 -0.1333 -0.5205  0.2126
 5732TIP3   OH217152   7.801   1.299   2.082 -0.3066  0.1655 -0.2483
 5732TIP3    H117153   7.738   1.277   2.013 -3.4614 -0.3797  2.6026
 5732TIP3    H217154   7.794   1.393   2.092  0.8707  0.3881 -1.2022
 5733TIP3   OH217155   2.557   1.538   0.272 -0.1678  0.0759  0.4859
 5733TIP3    H117156   2.581   1.629   0.284  2.0261 -0.3594 -0.2934
 5733TIP3    H217157   2.593   1.493   0.349 -1.1011 -0.1838  0.7897
 5734TIP3   OH217158   5.025   1.057   3.235  0.0902 -0.2428  0.0484
 5734TIP3    H117159   5.073   1.000   3.296  1.9991 -0.0866 -1.2236
 5734TIP3    H217160   5.061   1.145   3.251  0.0619 -0.0745 -0.7518
 5735TIP3   OH217161   7.748   6.518   3.659 -0.2426  0.1186 -0.0808
 5735TIP3    H117162   7.713   6.430   3.673 -0.5939  0.1770 -0.5817
 5735TIP3    H217163   7.713   6.545   3.574  1.1172  0.1337 -0.6642
 5736TIP3   OH217164   0.849   7.031   5.516  0.5536 -0.6394 -0.0130
 5736TIP3    H117165   0.897   6.952   5.491  0.1048 -0.8819 -0.1239
 5736TIP3    H217166   0.860   7.038   5.610  0.7635 -0.7228 -0.0321
 5737TIP3   OH217167   2.806   4.445   0.631 -0.0633 -0.2366  0.2789
 5737TIP3    H117168   2.864   4.373   0.603 -0.7484 -0.5083 -0.4672
 5737TIP3    H217169   2.819   4.513   0.566 -0.4569 -0.2290  0.2079
 5738TIP3   OH217170   5.867   3.142   2.954 -0.0810 -0.3029  0.2534
 5738TIP3    H117171   5.797   3.169   2.895 -0.7537 -2.8496 -0.2552
 5738TIP3    H217172   5.825   3.134   3.040 -0.2582 -1.1120  0.0988
 5739TIP3   OH217173   3.710   2.767   4.052  0.5056 -0.5930 -0.2013
 5739TIP3    H117174   3.783   2.812   4.093  0.6002 -1.3898  0.5152
 5739TIP3    H217175   3.633   2.797   4.100  0.5797 -1.2500  0.3484
 5740TIP3   OH217176   6.062   4.844   3.741  0.0728 -0.1007  0.1064
 5740TIP3    H117177   5.987   4.802   3.699  0.2589 -0.1873 -0.1385
 5740TIP3    H217178   6.139   4.803   3.701  0.2571  0.5185 -0.1795
 5741TIP3   OH217179   3.713   4.931   0.596  0.0703 -0.1428 -0.0098
 5741TIP3    H117180   3.722   4.881   0.677  0.3217 -0.6724 -0.3638
 5741TIP3    H217181   3.623   4.916   0.568  0.7983 -2.3081 -1.3510
 5742TIP3   OH217182   7.050   0.928   3.106 -0.1991 -0.6749  0.2294
 5742TIP3    H117183   7.047   0.912   3.012  0.2123  0.7608 -0.0503
 5742TIP3    H217184   7.105   0.857   3.141 -1.4672 -2.0266 -0.3839
 5743TIP3   OH217185   7.876   7.442   6.684 -0.0958  0.1685 -0.5354
 5743TIP3    H117186   7.857   7.447   6.778  0.6848 -1.5048 -0.2490
 5743TIP3    H217187   7.790   7.445   6.642 -0.6011 -0.9590  0.3578
 5744TIP3   OH217188   3.183   2.513   2.207 -0.2592 -0.0298 -0.2081
 5744TIP3    H117189   3.184   2.489   2.300  0.6303  0.4212 -0.0925
 5744TIP3    H217190   3.153   2.604   2.207  1.3363  0.5227 -0.2109
 5745TIP3   OH217191   3.084   2.014   4.810 -0.3145 -0.1784 -0.3210
 5745TIP3    H117192   3.174   2.041   4.824 -0.4051  0.1556 -0.3711
 5745TIP3    H217193   3.033   2.094   4.817 -0.6357 -0.3993 -0.0686
 5746TIP3   OH217194   2.921   5.120   0.218  0.0356  0.4727 -0.6987
 5746TIP3    H117195   2.887   5.143   0.304 -0.0133  1.0042 -0.8563
 5746TIP3    H217196   2.861   5.054   0.185  0.6410 -0.4987  0.1034
 5747TIP3   OH217197   4.152   6.602   0.340 -0.1076 -0.2837  0.0552
 5747TIP3    H117198   4.181   6.565   0.423  0.7243 -0.0408 -0.1094
 5747TIP3    H217199   4.196   6.549   0.273  1.4141  1.1782 -0.1793
 5748TIP3   OH217200   4.546   3.792   5.485  0.0592 -0.2036 -0.2081
 5748TIP3    H117201   4.501   3.846   5.419  1.5996  2.8926  1.0645
 5748TIP3    H217202   4.542   3.703   5.450 -0.8333  0.9914 -3.5428
 5749TIP3   OH217203   2.212   2.390   6.763  0.1368  0.3256 -0.2438
 5749TIP3    H117204   2.181   2.434   6.683  0.2532 -0.5663 -0.7922
 5749TIP3    H217205   2.142   2.406   6.827 -2.6966 -3.3963 -2.0177
 5750TIP3   OH217206   7.062   0.330   1.314  0.1339  0.2261  0.1899
 5750TIP3    H117207   7.109   0.394   1.367  0.2757  1.0924 -0.9530
 5750TIP3    H217208   7.125   0.259   1.302  0.9876  1.1351 -0.8681
 5751TIP3   OH217209   1.847   5.643   2.427  0.1819  0.0225 -0.0037
 5751TIP3    H117210   1.778   5.627   2.363 -0.8632 -1.3814  1.3883
 5751TIP3    H217211   1.800   5.658   2.509  1.4741  1.8381  0.4691
 5752TIP3   OH217212   3.044   0.633   3.357  0.0646  0.3592  0.1128
 5752TIP3    H117213   3.124   0.643   3.305 -0.8393 -0.4608 -1.5182
 5752TIP3    H217214   3.032   0.719   3.399  0.2567  1.4655 -1.9562
 5753TIP3   OH217215   3.665   4.057   3.503  0.3091 -0.4305  0.2524
 5753TIP3    H117216   3.672   3.961   3.501  1.4898 -0.4373 -3.3865
 5753TIP3    H217217   3.754   4.087   3.522  0.0380 -0.0390  0.9308
 5754TIP3   OH217218   3.040   1.261   1.388  0.2072 -0.4731  0.1641
 5754TIP3    H117219   2.992   1.245   1.469 -0.7388  0.8500 -0.0922
 5754TIP3    H217220   3.014   1.189   1.330  1.1796 -1.6297  1.1295
 5755TIP3   OH217221   5.838   2.764   2.807 -0.0032 -0.4621  0.2287
 5755TIP3    H117222   5.902   2.822   2.850 -0.4771  0.7046 -0.5839
 5755TIP3    H217223   5.792   2.722   2.880  0.0233  0.5714  0.8707
 5756TIP3   OH217224   3.683   7.122   1.077 -0.4342 -0.4224 -0.3882
 5756TIP3    H117225   3.757   7.173   1.043 -1.6701  0.1135 -2.5023
 5756TIP3    H217226   3.683   7.139   1.171  1.6770  0.1175 -0.4247
 5757TIP3   OH217227   7.607   4.801   0.881 -0.1382 -0.0879 -0.2509
 5757TIP3    H117228   7.585   4.890   0.908 -2.0379 -0.5920 -0.0338
 5757TIP3    H217229   7.572   4.746   0.950  1.1843 -1.0238 -0.2915
 5758TIP3   OH217230   2.303   1.225   0.678 -0.9567  0.0114  0.1916
 5758TIP3    H117231   2.316   1.317   0.656  0.6998 -0.2443 -0.0364
 5758TIP3    H217232   2.213   1.206   0.651 -0.2239  0.6523 -3.1581
 5759TIP3   OH217233   6.395   1.255   4.034  0.0433  0.8813 -0.4994
 5759TIP3    H117234   6.369   1.340   3.999 -1.2499  1.4237  1.5598
 5759TIP3    H217235   6.326   1.195   4.006 -0.3351  1.0482  0.0634
 5760TIP3   OH217236   4.534   1.641   2.048 -0.1945 -0.2836 -0.0199
 5760TIP3    H117237   4.520   1.672   2.137 -0.0098  0.4734 -0.2495
 5760TIP3    H217238   4.514   1.548   2.052 -0.3065 -0.2320  0.7850
 5761TIP3   OH217239   4.925   1.189   3.673 -0.1847 -0.0501  0.0103
 5761TIP3    H117240   4.851   1.213   3.617  0.3886  0.0654 -0.7166
 5761TIP3    H217241   4.973   1.270   3.687 -0.6523  0.0415  1.1924
 5762TIP3   OH217242   1.459   4.695   2.303 -0.2069  0.2728 -0.6053
 5762TIP3    H117243   1.414   4.778   2.314 -2.9253 -0.8893 -1.9166
 5762TIP3    H217244   1.450   4.651   2.387 -1.8749 -0.0513 -0.9248
 5763TIP3   OH217245   2.252   3.528   6.191  0.0166  0.0795 -0.1714
 5763TIP3    H117246   2.278   3.547   6.101 -3.0631  1.0544 -0.9752
 5763TIP3    H217247   2.277   3.606   6.240 -0.2506  0.4882 -0.6645
 5764TIP3   OH217248   1.706   7.001   3.624 -0.1251  0.4859  0.0798
 5764TIP3    H117249   1.796   7.000   3.593 -0.2556  0.7723 -0.3167
 5764TIP3    H217250   1.668   7.079   3.584 -1.2087 -0.8428 -1.6416
 5765TIP3   OH217251   4.746   6.751   0.761  0.1495  0.2216  0.0939
 5765TIP3    H117252   4.680   6.686   0.738 -1.6488  2.1057 -0.3637
 5765TIP3    H217253   4.801   6.757   0.682  0.2782 -0.6562  0.1091
 5766TIP3   OH217254   1.950   0.885   1.334  0.0849 -0.0590  0.4679
 5766TIP3    H117255   1.929   0.935   1.255  1.4914 -1.3455 -0.7939
 5766TIP3    H217256   1.904   0.802   1.323  0.1393 -0.1767  1.1019
 5767TIP3   OH217257   5.517   4.663   2.386  0.0277  0.1532 -0.0773
 5767TIP3    H117258   5.612   4.664   2.384  0.1848  3.1694  1.8083
 5767TIP3    H217259   5.494   4.590   2.443  1.2311 -0.2588 -0.1009
 5768TIP3   OH217260   4.717   2.123   0.051 -0.2970 -0.3163 -0.1861
 5768TIP3    H117261   4.697   2.153   0.139  1.4952 -0.7475  0.4117
 5768TIP3    H217262   4.801   2.165   0.029  0.1681 -1.5732 -0.9658
 5769TIP3   OH217263   2.428   4.515   6.365  0.1059 -0.5434 -0.0057
 5769TIP3    H117264   2.410   4.445   6.427 -0.0537 -0.3188  0.2072
 5769TIP3    H217265   2.500   4.483   6.311 -0.4674 -1.1820 -0.4140
 5770TIP3   OH217266   3.436   4.292   1.355  0.1391  0.1198  0.3201
 5770TIP3    H117267   3.352   4.334   1.336 -0.5806 -1.6404 -0.6626
 5770TIP3    H217268   3.498   4.337   1.298 -0.2622  0.9781  0.5426
 5771TIP3   OH217269   5.050   3.893   3.167  0.2827  0.1773  0.0093
 5771TIP3    H117270   5.035   3.950   3.092  0.9419 -0.4334 -0.6032
 5771TIP3    H217271   5.079   3.810   3.129  1.7599  0.2076  0.9740
 5772TIP3   OH217272   4.653   5.003   3.225 -0.1220 -0.3748 -0.4192
 5772TIP3    H117273   4.598   5.016   3.303  0.0461  1.1572 -0.5184
 5772TIP3    H217274   4.614   5.061   3.160  0.6056 -0.5558 -1.0180
 5773TIP3   OH217275   2.722   0.707   4.359 -0.2682 -0.1879 -0.0734
 5773TIP3    H117276   2.658   0.651   4.314 -0.0649 -1.1581  0.7849
 5773TIP3    H217277   2.807   0.676   4.327 -0.2083  1.7757 -1.9812
 5774TIP3   OH217278   4.781   4.804   2.866  0.5461  0.0989  0.1413
 5774TIP3    H117279   4.696   4.847   2.863  0.1050 -0.4808  2.3958
 5774TIP3    H217280   4.821   4.824   2.782 -1.0157  2.0039 -0.2216
 5775TIP3   OH217281   4.819   0.287   3.367  0.5130 -0.1029  0.2002
 5775TIP3    H117282   4.868   0.287   3.284 -0.1757 -0.3341 -0.2207
 5775TIP3    H217283   4.753   0.217   3.356 -1.1145  1.3839 -0.0056
 5776TIP3   OH217284   4.127   0.578   0.933 -0.3153  0.2535 -0.2998
 5776TIP3    H117285   4.179   0.506   0.898 -0.5026  0.1010 -0.2648
 5776TIP3    H217286   4.168   0.657   0.897 -0.1577  0.1259 -0.4007
 5777TIP3   OH217287   7.470   2.317   5.926 -0.1645 -1.1524 -0.4977
 5777TIP3    H117288   7.478   2.362   5.842 -0.0862  4.2817  2.0283
 5777TIP3    H217289   7.560   2.297   5.952  0.1402  0.2945 -0.3427
 5778TIP3   OH217290   5.906   6.712   4.897  0.3916  0.4196  0.1314
 5778TIP3    H117291   5.985   6.660   4.908  1.1827  1.6959  0.6949
 5778TIP3    H217292   5.850   6.659   4.840  1.7264 -0.3997 -0.4559
 5779TIP3   OH217293   1.402   0.200   3.510  0.1225 -0.0996 -0.2917
 5779TIP3    H117294   1.412   0.240   3.596 -1.2132 -0.1132 -0.0995
 5779TIP3    H217295   1.433   0.110   3.521  0.3961  0.0366  0.0550
 5780TIP3   OH217296   3.476   3.918   3.307 -0.4644  0.0238  0.1835
 5780TIP3    H117297   3.448   3.841   3.258 -0.9634 -0.5672  1.3452
 5780TIP3    H217298   3.449   3.900   3.397  1.9923  0.2478  1.0565
 5781TIP3   OH217299   2.780   7.087   6.342 -0.5312  0.4640  0.0649
 5781TIP3    H117300   2.708   7.126   6.294 -0.5075  1.6704  0.9434
 5781TIP3    H217301   2.844   7.158   6.351 -0.7997  0.5180  2.3511
 5782TIP3   OH217302   1.222   5.775   6.595 -0.7295 -0.1759 -0.3284
 5782TIP3    H117303   1.133   5.787   6.562 -0.7487 -1.8491 -0.9780
 5782TIP3    H217304   1.275   5.758   6.517 -0.2583 -1.3732  0.2177
 5783TIP3   OH217305   5.387   7.449   1.744  0.2344  0.0630  0.2844
 5783TIP3    H117306   5.404   7.425   1.835 -0.6382  1.6638  0.9078
 5783TIP3    H217307   5.474   7.464   1.707  0.5526  0.6435  1.2194
 5784TIP3   OH217308   5.408   2.214   5.368 -0.1902  0.4708 -0.8033
 5784TIP3    H117309   5.458   2.137   5.341  1.6041  1.5734 -0.8513
 5784TIP3    H217310   5.388   2.260   5.286 -2.6867 -0.7132 -0.9204
 5785TIP3   OH217311   7.694   7.221   0.155 -0.1322  0.1062 -0.1088
 5785TIP3    H117312   7.713   7.305   0.114  0.9641 -0.5493 -1.0062
 5785TIP3    H217313   7.650   7.171   0.086  1.2827 -0.8297 -0.3881
 5786TIP3   OH217314   5.486   6.245   3.496  0.0412  0.0436 -0.4117
 5786TIP3    H117315   5.408   6.251   3.441 -0.3177 -1.0964 -0.0558
 5786TIP3    H217316   5.505   6.336   3.520 -1.9229  0.2754  0.4980
 5787TIP3   OH217317   1.256   1.630   2.952  0.0201 -0.4215  0.0089
 5787TIP3    H117318   1.211   1.644   3.035 -0.5787 -2.5213  0.1079
 5787TIP3    H217319   1.339   1.589   2.976  0.3812  0.0811 -0.3686
 5788TIP3   OH217320   7.711   7.416   1.495 -0.0828  0.0393 -0.0019
 5788TIP3    H117321   7.672   7.333   1.466 -0.7160  0.1118  0.6184
 5788TIP3    H217322   7.804   7.407   1.474 -0.3260 -0.3807 -0.9597
 5789TIP3   OH217323   0.827   7.594   2.945 -0.3427  0.0664 -0.0199
 5789TIP3    H117324   0.823   7.534   2.870  1.7417  1.2984 -1.2015
 5789TIP3    H217325   0.813   7.537   3.021 -0.6336 -1.5475 -1.2130
 5790TIP3   OH217326   0.383   0.214   3.695 -0.0506 -0.5007 -0.3599
 5790TIP3    H117327   0.424   0.174   3.771 -0.0020  0.2756  0.0279
 5790TIP3    H217328   0.398   0.308   3.705 -0.3001 -0.3602 -1.1734
 5791TIP3   OH217329   3.186   4.428   4.689 -0.4402 -0.1237  0.8328
 5791TIP3    H117330   3.152   4.421   4.600  2.3208  0.9914 -0.4559
 5791TIP3    H217331   3.139   4.502   4.728  0.6142  1.6184 -1.0048
 5792TIP3   OH217332   2.492   1.744   6.088  0.1170 -0.0923  0.2033
 5792TIP3    H117333   2.428   1.816   6.091 -0.3348 -0.5025  0.4789
 5792TIP3    H217334   2.461   1.687   6.018 -1.6717 -1.9692  2.3392
 5793TIP3   OH217335   3.609   1.156   3.407 -0.0344 -0.5874 -0.4931
 5793TIP3    H117336   3.524   1.151   3.365 -1.0408  0.3230  1.3302
 5793TIP3    H217337   3.626   1.250   3.416  1.6593 -0.7166 -1.7233
 5794TIP3   OH217338   1.216   0.309   4.582 -0.6806 -0.2725 -0.2019
 5794TIP3    H117339   1.293   0.266   4.620 -2.0109 -1.0376  1.8427
 5794TIP3    H217340   1.250   0.389   4.543  1.1219 -0.3990  0.9584
 5795TIP3   OH217341   3.172   3.286   4.415  0.3704 -0.2543  0.4484
 5795TIP3    H117342   3.247   3.297   4.474 -0.6227  0.3149  1.6417
 5795TIP3    H217343   3.195   3.211   4.360  1.8271 -0.0598  0.7650
 5796TIP3   OH217344   3.277   0.636   6.649  0.2335  0.1824 -0.3375
 5796TIP3    H117345   3.368   0.657   6.671  0.4332 -1.6296  0.7622
 5796TIP3    H217346   3.281   0.606   6.558  0.4478  1.5488 -0.8116
 5797TIP3   OH217347   7.083   0.468   6.749 -0.0529  0.5179 -0.5419
 5797TIP3    H117348   7.064   0.452   6.842  1.1033  2.1868  0.0441
 5797TIP3    H217349   7.000   0.452   6.705 -0.2578 -1.8528  0.5267
 5798TIP3   OH217350   2.485   3.830   6.533 -0.0093  0.1476  0.1716
 5798TIP3    H117351   2.575   3.827   6.502 -0.4278  0.8615 -1.2110
 5798TIP3    H217352   2.461   3.923   6.528 -1.4282 -0.2382 -1.4571
 5799TIP3   OH217353   0.749   3.330   0.778 -0.0415 -0.4805  0.7703
 5799TIP3    H117354   0.835   3.364   0.754 -0.4593 -0.1586 -0.3251
 5799TIP3    H217355   0.742   3.247   0.730 -0.5033 -0.3057  0.5364
 5800TIP3   OH217356   2.793   1.472   5.253  0.1473 -0.0873 -0.3673
 5800TIP3    H117357   2.789   1.559   5.213  1.4342 -0.2273 -0.8298
 5800TIP3    H217358   2.768   1.487   5.345 -0.0050  0.6969 -0.5296
 5801TIP3   OH217359   3.147   0.640   2.244 -0.7978  0.5297 -0.2484
 5801TIP3    H117360   3.123   0.720   2.290 -0.3473  0.3320  0.3494
 5801TIP3    H217361   3.150   0.573   2.312 -0.4966  0.1469 -0.6301
 5802TIP3   OH217362   6.205   2.207   2.837 -0.1083  0.2143 -0.0187
 5802TIP3    H117363   6.138   2.273   2.823 -0.8405 -0.5407 -0.1338
 5802TIP3    H217364   6.159   2.123   2.830  1.2364 -0.4208 -2.6118
 5803TIP3   OH217365   7.533   6.690   5.659  0.0506 -0.1156  0.4007
 5803TIP3    H117366   7.498   6.608   5.694 -1.3264  0.4845  0.4903
 5803TIP3    H217367   7.514   6.755   5.726  0.5363  0.3937  0.0498
 5804TIP3   OH217368   6.290   2.287   5.697  0.4096 -0.2905  0.1707
 5804TIP3    H117369   6.337   2.345   5.757 -0.2319 -0.4229  0.8188
 5804TIP3    H217370   6.270   2.342   5.621  0.0612  0.2700  0.6570
 5805TIP3   OH217371   3.208   5.570   2.827 -0.2259  0.0283 -0.2380
 5805TIP3    H117372   3.161   5.489   2.807 -0.1966 -0.2054  0.6269
 5805TIP3    H217373   3.293   5.560   2.784  0.2956 -0.9881  0.9773
 5806TIP3   OH217374   5.917   0.780   0.758  0.4250  0.0210 -0.1960
 5806TIP3    H117375   5.849   0.762   0.693  0.2931 -2.9812  0.6043
 5806TIP3    H217376   5.999   0.772   0.709  0.2853  1.3053 -0.6742
 5807TIP3   OH217377   6.295   6.282   1.790 -0.7196  0.4753 -0.0119
 5807TIP3    H117378   6.259   6.231   1.863  0.9664 -0.7572  0.0220
 5807TIP3    H217379   6.267   6.235   1.712  0.9833 -0.7007  0.0242
 5808TIP3   OH217380   8.292   1.430   5.991 -0.2766 -0.1420  0.1122
 5808TIP3    H117381   8.246   1.467   6.066  0.4315 -1.0663  1.0188
 5808TIP3    H217382   8.314   1.341   6.017 -1.1387 -0.9453 -1.6687
 5809TIP3   OH217383   0.028   2.010   4.319  0.0200  0.4802 -0.1020
 5809TIP3    H117384   0.006   1.919   4.337 -1.8003  0.9739  0.3670
 5809TIP3    H217385   0.041   2.014   4.224  0.7574 -0.3685 -0.0479
 5810TIP3   OH217386   8.050   1.234   4.146 -0.0219  0.3791  0.2886
 5810TIP3    H117387   8.069   1.164   4.083 -0.1731  0.0281  0.6256
 5810TIP3    H217388   7.958   1.257   4.129 -0.1699  0.0363  0.6176
 5811TIP3   OH217389   5.602   2.598   3.733  0.2305  0.5354 -0.0010
 5811TIP3    H117390   5.566   2.561   3.653  1.0556 -0.3754  0.0246
 5811TIP3    H217391   5.538   2.663   3.761  0.3803  1.5375 -1.8845
 5812TIP3   OH217392   0.241   6.307   2.254 -0.2411 -0.5079  0.1261
 5812TIP3    H117393   0.176   6.277   2.191 -0.7872  0.0712  0.4071
 5812TIP3    H217394   0.303   6.359   2.202 -1.3951  1.0611  0.2391
 5813TIP3   OH217395   7.545   4.838   3.822  0.7119  0.1565 -0.1589
 5813TIP3    H117396   7.637   4.815   3.834  0.7260  0.8275  1.1505
 5813TIP3    H217397   7.497   4.758   3.844  0.8901  0.4676  1.4427
 5814TIP3   OH217398   3.993   4.958   4.699  0.3795 -0.0268  0.4129
 5814TIP3    H117399   4.006   4.995   4.611  0.2669 -0.2017  0.3223
 5814TIP3    H217400   3.926   4.891   4.687 -0.4619  0.7276  0.8451
 5815TIP3   OH217401   2.573   4.734   0.197  0.3783 -0.0193 -0.4984
 5815TIP3    H117402   2.551   4.669   0.264  0.1830  0.9984  0.4523
 5815TIP3    H217403   2.517   4.809   0.217  2.2936  1.3608 -0.0811
 5816TIP3   OH217404   3.526   5.437   6.088  0.0778 -0.2360  0.1487
 5816TIP3    H117405   3.471   5.501   6.133  0.4111 -0.7607  1.3451
 5816TIP3    H217406   3.597   5.419   6.150 -0.6169 -2.5894  0.3360
 5817TIP3   OH217407   3.366   5.061   4.681  0.0675  0.3319 -0.4114
 5817TIP3    H117408   3.423   5.037   4.609  0.0503  0.3408 -0.4283
 5817TIP3    H217409   3.355   5.156   4.672  2.4153  0.8543  1.2773
 5818TIP3   OH217410   0.575   3.676   1.312 -0.4297  0.0033  0.0128
 5818TIP3    H117411   0.613   3.762   1.297 -1.3399  0.7610  1.7071
 5818TIP3    H217412   0.483   3.693   1.331 -0.5399 -1.2978  0.7982
 5819TIP3   OH217413   5.973   0.425   4.945 -0.0786  0.4492 -0.1524
 5819TIP3    H117414   5.910   0.430   5.017 -0.5757  1.4987 -0.6317
 5819TIP3    H217415   5.990   0.516   4.922 -1.4024  0.1592 -2.6040
 5820TIP3   OH217416   2.536   4.901   4.822 -0.3639  0.3220 -0.7814
 5820TIP3    H117417   2.532   4.992   4.850  2.0185  1.1258 -2.6453
 5820TIP3    H217418   2.621   4.870   4.853 -1.2937 -1.4490  0.1670
 5821TIP3   OH217419   2.721   2.452   4.710  0.3558 -0.0562 -0.5591
 5821TIP3    H117420   2.756   2.536   4.741  1.4465  0.1138 -2.1517
 5821TIP3    H217421   2.631   2.451   4.741  0.7953  0.9646  0.8793
 5822TIP3   OH217422   2.010   2.140   0.791 -0.1411  0.4236  0.3237
 5822TIP3    H117423   1.953   2.178   0.858  1.1655 -0.2689  1.8861
 5822TIP3    H217424   1.979   2.050   0.780  0.4813  0.1163  1.0107
 5823TIP3   OH217425   7.802   2.667   5.552  0.2450 -0.4508 -0.3244
 5823TIP3    H117426   7.784   2.718   5.472 -1.3509  0.3655  0.5079
 5823TIP3    H217427   7.893   2.688   5.573  0.2209  0.5411 -1.0898
 5824TIP3   OH217428   2.084   0.193   0.994 -0.5639 -0.1478 -0.3287
 5824TIP3    H117429   2.051   0.258   1.056 -0.5145  0.3111 -0.7792
 5824TIP3    H217430   2.179   0.199   1.001 -0.5647 -1.0422  0.5261
 5825TIP3   OH217431   2.452   4.073   0.003  0.6253  0.5181 -0.0642
 5825TIP3    H117432   2.412   4.159   0.017 -0.5864  0.1401 -0.9600
 5825TIP3    H217433   2.409   4.016   0.067  1.0482  0.4669  0.1773
 5826TIP3   OH217434   4.172   1.754   3.589  0.6908 -0.4862  0.2950
 5826TIP3    H117435   4.210   1.670   3.614  0.5988 -0.3535  0.9198
 5826TIP3    H217436   4.167   1.752   3.494  0.9337 -1.0805  0.2938
 5827TIP3   OH217437   4.230   6.524   3.390 -0.7269 -0.2275 -0.6384
 5827TIP3    H117438   4.152   6.486   3.430 -1.2836 -0.6889 -2.1071
 5827TIP3    H217439   4.274   6.570   3.462 -1.3607 -1.5263  0.6291
 5828TIP3   OH217440   2.700   4.967   3.896  0.2795  0.3978  0.2289
 5828TIP3    H117441   2.622   4.957   3.951 -0.5749  0.9814 -0.8325
 5828TIP3    H217442   2.773   4.948   3.954 -0.5881  0.9666  1.5508
 5829TIP3   OH217443   7.997   5.573   1.677  0.6250  0.0536 -0.0756
 5829TIP3    H117444   8.064   5.525   1.629 -0.6165 -0.8555 -0.9758
 5829TIP3    H217445   7.975   5.647   1.621  0.7394  0.2461  0.1310
 5830TIP3   OH217446   6.090   2.061   5.645  0.7085 -0.3435 -0.4053
 5830TIP3    H117447   6.034   2.128   5.684  0.6707 -0.8097  0.3684
 5830TIP3    H217448   6.175   2.105   5.634  1.3143 -0.7071  2.0530
 5831TIP3   OH217449   2.003   4.371   2.349  0.3582 -0.2536 -0.0751
 5831TIP3    H117450   2.044   4.412   2.425  0.3582 -0.9331  0.2981
 5831TIP3    H217451   1.965   4.444   2.300 -0.0808  0.1459  0.8363
 5832TIP3   OH217452   2.655   5.378   0.632  0.0813 -0.3189  0.1387
 5832TIP3    H117453   2.637   5.443   0.565  1.8762 -0.2011 -0.2818
 5832TIP3    H217454   2.687   5.429   0.707 -1.5714 -0.4764  1.0155
 5833TIP3   OH217455   1.156   0.885   0.852  0.2107  0.4366  0.6233
 5833TIP3    H117456   1.232   0.922   0.897  2.5920 -1.6880 -1.3109
 5833TIP3    H217457   1.104   0.962   0.826  1.5822  1.9703  2.1275
 5834TIP3   OH217458   4.783   1.324   0.080  0.8567  0.0336  0.4033
 5834TIP3    H117459   4.705   1.379   0.081  0.4262 -0.5518  1.8042
 5834TIP3    H217460   4.802   1.310  -0.012 -0.6618  0.2400  0.0363
 5835TIP3   OH217461   8.059   3.780   2.839  0.0736 -0.0109 -0.2621
 5835TIP3    H117462   7.985   3.836   2.813 -0.1624  0.1141  0.6373
 5835TIP3    H217463   8.136   3.822   2.800 -0.3303 -0.2066 -1.3113
 5836TIP3   OH217464   5.634   1.258   3.238  0.3850 -0.0889 -0.0091
 5836TIP3    H117465   5.713   1.297   3.201  0.5789 -1.4477 -1.1183
 5836TIP3    H217466   5.584   1.332   3.273  1.7111  0.8818 -0.1166
 5837TIP3   OH217467   2.360   2.948   6.027  0.6095 -0.1591 -0.4166
 5837TIP3    H117468   2.405   2.893   5.964  0.4284 -1.9025  0.8879
 5837TIP3    H217469   2.430   2.985   6.082  0.6324 -0.5899 -0.1512
 5838TIP3   OH217470   4.413   2.391   5.666 -0.4020  0.9599  0.9313
 5838TIP3    H117471   4.485   2.371   5.725  0.4486 -0.7382 -0.5869
 5838TIP3    H217472   4.424   2.484   5.646  1.2074  0.8086  0.9858
 5839TIP3   OH217473   0.045   2.990   5.656  0.4773 -0.2394 -0.1652
 5839TIP3    H117474   0.078   3.059   5.598  0.9231 -1.0391 -0.8918
 5839TIP3    H217475   0.123   2.939   5.678  0.3597  0.1781  1.3550
 5840TIP3   OH217476   2.670   0.662   5.982 -0.3832  0.2199  0.3298
 5840TIP3    H117477   2.711   0.615   5.909 -0.3891  2.4074 -1.1819
 5840TIP3    H217478   2.694   0.611   6.059  1.0018 -1.3010 -1.0196
 5841TIP3   OH217479   1.516   5.531   5.008  0.2133  0.2824  0.1395
 5841TIP3    H117480   1.429   5.570   5.000  0.4545  1.3428  1.9616
 5841TIP3    H217481   1.575   5.596   4.970  0.2717 -0.1049 -0.4320
 5842TIP3   OH217482   6.398   1.909   2.549  0.4051 -0.0500  0.1193
 5842TIP3    H117483   6.314   1.886   2.508 -0.4873  1.3106  1.1136
 5842TIP3    H217484   6.420   1.994   2.512  0.7472  0.1422  0.7614
 5843TIP3   OH217485   6.320   4.060   4.855  0.2554 -0.3245 -0.0523
 5843TIP3    H117486   6.283   3.978   4.886  1.2737 -0.1121  1.8688
 5843TIP3    H217487   6.335   4.046   4.761 -1.0458 -1.7411 -0.0835
 5844TIP3   OH217488   2.315   4.841   3.631 -0.3277  0.2850 -0.2360
 5844TIP3    H117489   2.293   4.898   3.557 -0.9329  0.2972 -0.0511
 5844TIP3    H217490   2.411   4.846   3.637 -0.3385  0.9517 -0.4840
 5845TIP3   OH217491   4.331   6.165   1.501 -0.4913  0.7384  0.3058
 5845TIP3    H117492   4.252   6.213   1.527 -0.7053  0.6284 -0.1310
 5845TIP3    H217493   4.311   6.132   1.413 -0.6247 -0.7562  0.8693
 5846TIP3   OH217494   0.154   0.193   3.082 -0.4838 -0.3282  0.8117
 5846TIP3    H117495   0.141   0.238   3.165 -1.4546 -0.5773  0.8105
 5846TIP3    H217496   0.141   0.100   3.102  2.9619 -0.8713  1.1261
 5847TIP3   OH217497   2.638   6.208   4.333  0.1877 -0.0137  0.4516
 5847TIP3    H117498   2.677   6.283   4.379 -0.1788 -0.2311  1.1384
 5847TIP3    H217499   2.621   6.240   4.245  1.7694  0.1279  0.1712
 5848TIP3   OH217500   3.933   2.477   0.116  0.2475  0.7072 -0.1113
 5848TIP3    H117501   3.859   2.451   0.061  0.1140 -1.2622  0.9052
 5848TIP3    H217502   3.902   2.555   0.162 -2.4337 -1.5942  2.4131
 5849TIP3   OH217503   1.395   0.692   2.260  0.5446 -0.1547  0.2811
 5849TIP3    H117504   1.350   0.608   2.267  1.9604 -1.1866 -2.0400
 5849TIP3    H217505   1.486   0.670   2.242  0.9514  1.8830 -0.4837
 5850TIP3   OH217506   4.079   5.774   2.727  0.1611 -0.3708  0.6673
 5850TIP3    H117507   4.020   5.702   2.751 -0.1400  0.2650  1.9595
 5850TIP3    H217508   4.162   5.731   2.707  0.3004 -1.0496  2.4541
 5851TIP3   OH217509   3.766   5.906   1.607 -0.2044 -0.6690  0.5135
 5851TIP3    H117510   3.817   5.839   1.652 -1.1671 -1.1968  0.8396
 5851TIP3    H217511   3.816   5.987   1.620  1.7720 -1.5253 -1.1405
 5852TIP3   OH217512   3.722   5.949   4.310  0.6101  0.6977  0.1004
 5852TIP3    H117513   3.649   5.887   4.311  0.6021  0.6942  1.4556
 5852TIP3    H217514   3.772   5.928   4.388  2.8621 -0.1972 -1.4933
 5853TIP3   OH217515   6.869   4.466   2.141  0.1366  0.1583  0.2140
 5853TIP3    H117516   6.849   4.524   2.067 -1.2494  0.6367  0.9226
 5853TIP3    H217517   6.865   4.523   2.218 -2.3778 -1.0144  1.0547
 5854TIP3   OH217518   0.194   5.638   4.032 -0.2573  0.3048 -0.2046
 5854TIP3    H117519   0.102   5.619   4.015 -0.3726  0.4237  0.2732
 5854TIP3    H217520   0.221   5.695   3.960 -1.1854  2.1509  0.8236
 5855TIP3   OH217521   5.059   5.008   5.186  0.1289 -0.5235  0.1186
 5855TIP3    H117522   4.970   4.979   5.167  0.1172 -0.6781  0.3989
 5855TIP3    H217523   5.070   4.989   5.279 -0.4941  1.9233  0.7760
 5856TIP3   OH217524   3.091   0.309   2.849  0.0750 -0.1240 -0.0013
 5856TIP3    H117525   3.101   0.237   2.911 -0.6584  0.1831  0.4925
 5856TIP3    H217526   3.091   0.267   2.763 -0.5604 -0.7534  0.2900
 5857TIP3   OH217527   5.984   1.896   5.076  0.1634 -0.5332  0.3865
 5857TIP3    H117528   5.956   1.818   5.124  2.3478 -0.9394  1.1518
 5857TIP3    H217529   6.047   1.863   5.012  2.7754  0.7195  2.1365
 5858TIP3   OH217530   3.267   4.531   2.078  0.0440 -0.0509  0.2959
 5858TIP3    H117531   3.291   4.610   2.028  0.8571  0.5570  1.6057
 5858TIP3    H217532   3.350   4.485   2.092 -0.1576 -0.1808  1.1245
 5859TIP3   OH217533   8.254   0.117   6.758  0.0536  0.1154 -0.3221
 5859TIP3    H117534   8.161   0.142   6.757 -0.2057 -0.6937  1.3752
 5859TIP3    H217535   8.263   0.061   6.680 -1.4537 -1.6423  0.6777
 5860TIP3   OH217536   0.387   0.998   5.380 -0.9607  0.3333 -0.1522
 5860TIP3    H117537   0.357   1.088   5.370  0.6351  0.8810 -0.2853
 5860TIP3    H217538   0.394   0.965   5.290  1.8786  1.3121 -0.4003
 5861TIP3   OH217539   5.688   1.835   3.593  0.6882  0.6368  0.3519
 5861TIP3    H117540   5.735   1.768   3.643  1.5448  1.3830  0.5738
 5861TIP3    H217541   5.632   1.879   3.657  0.1244  0.1453  0.2058
 5862TIP3   OH217542   6.651   4.263   2.274  0.3852  0.4578 -0.7258
 5862TIP3    H117543   6.577   4.258   2.334  1.2480 -0.3688  0.2965
 5862TIP3    H217544   6.622   4.324   2.206 -1.2219  0.1478 -0.3539
 5863TIP3   OH217545   4.691   5.910   5.238 -0.0563  0.0630  0.4310
 5863TIP3    H117546   4.773   5.941   5.276  0.1292  0.1887 -0.0652
 5863TIP3    H217547   4.624   5.933   5.302  0.4766 -1.3843  1.5401
 5864TIP3   OH217548   6.483   0.355   5.920 -0.1782 -0.5108 -0.3890
 5864TIP3    H117549   6.426   0.365   5.844 -0.4921  0.2600 -0.0712
 5864TIP3    H217550   6.512   0.444   5.940  0.7554 -0.8326 -0.2454
 5865TIP3   OH217551   0.407   2.499   1.706  0.5241  0.1928  0.2258
 5865TIP3    H117552   0.399   2.418   1.757  1.8601  0.7673  1.4095
 5865TIP3    H217553   0.479   2.482   1.645  1.3379  0.7439  1.0188
 5866TIP3   OH217554   5.908   1.080   4.652  0.0792 -0.3271 -0.0549
 5866TIP3    H117555   5.929   1.001   4.603 -0.4303 -1.5612  1.6118
 5866TIP3    H217556   5.814   1.073   4.669 -0.0202  0.7673 -0.1099
 5867TIP3   OH217557   5.526   2.474   3.496  0.2596  0.0798  0.1790
 5867TIP3    H117558   5.546   2.381   3.486  1.0720  0.4839 -2.6831
 5867TIP3    H217559   5.447   2.488   3.445  0.4508  1.0581  0.1180
 5868TIP3   OH217560   5.716   4.094   1.248  0.2960 -0.0259 -0.1898
 5868TIP3    H117561   5.718   4.025   1.314  0.2237  0.5796  0.4588
 5868TIP3    H217562   5.637   4.145   1.268 -0.1924 -0.3203 -1.2628
 5869TIP3   OH217563   6.935   2.412   5.951 -0.4220  0.2565 -0.4711
 5869TIP3    H117564   6.953   2.486   5.893  0.7185  0.3803  0.0153
 5869TIP3    H217565   7.021   2.386   5.984 -1.0612  0.4871  1.5065
 5870TIP3   OH217566   2.058   1.726   1.671 -0.0132 -0.2806 -0.6224
 5870TIP3    H117567   2.126   1.784   1.638  0.8528 -1.4315 -0.9487
 5870TIP3    H217568   1.981   1.747   1.619  0.9558 -1.1192 -2.5096
 5871TIP3   OH217569   7.042   3.349   3.652 -0.1428 -0.2419 -0.3211
 5871TIP3    H117570   7.039   3.257   3.624  1.1941 -0.7117  0.9406
 5871TIP3    H217571   7.083   3.395   3.580  2.4147 -1.2693  0.3598
 5872TIP3   OH217572   1.757   4.697   6.290 -0.4094 -0.3971 -0.4934
 5872TIP3    H117573   1.730   4.759   6.223  0.1788 -0.5699 -0.8975
 5872TIP3    H217574   1.849   4.680   6.271 -0.2276 -0.4279  0.3748
 5873TIP3   OH217575   2.953   3.238   4.030  0.1093  0.2518 -0.2862
 5873TIP3    H117576   2.967   3.251   3.936  0.4189  0.4084 -0.2187
 5873TIP3    H217577   3.022   3.289   4.072 -0.8447  1.3302  0.0503
 5874TIP3   OH217578   1.383   5.918   4.196 -0.3013 -0.1918 -0.0213
 5874TIP3    H117579   1.398   5.841   4.251 -0.6809 -0.2089  0.0596
 5874TIP3    H217580   1.294   5.906   4.162  0.5344 -1.0922 -2.0770
 5875TIP3   OH217581   3.261   3.418   0.262 -0.6185 -0.6032  0.1014
 5875TIP3    H117582   3.296   3.433   0.350 -1.0564  0.4671  0.1059
 5875TIP3    H217583   3.339   3.416   0.206 -0.4221  0.0769  0.3363
 5876TIP3   OH217584   0.930   4.072   0.634  0.3355  0.8644  0.0386
 5876TIP3    H117585   1.013   4.064   0.680  2.0495 -1.8866 -3.0808
 5876TIP3    H217586   0.948   4.134   0.563 -0.9190  1.7399  0.4578
 5877TIP3   OH217587   3.975   2.453   5.095  0.3154 -0.4201  0.2946
 5877TIP3    H117588   3.920   2.480   5.169 -1.5500 -0.1255 -1.1022
 5877TIP3    H217589   4.005   2.365   5.118 -0.3745 -0.4117  1.3112
 5878TIP3   OH217590   7.261   4.727   0.372  0.1458 -0.5978 -0.2508
 5878TIP3    H117591   7.223   4.798   0.321 -0.2892 -0.0224  0.8354
 5878TIP3    H217592   7.348   4.713   0.334  0.3771  0.7580 -0.2584
 5879TIP3   OH217593   2.755   3.194   5.963 -0.0331  0.2277 -0.1587
 5879TIP3    H117594   2.819   3.260   5.935  0.4741 -0.3491 -0.3819
 5879TIP3    H217595   2.798   3.110   5.947  0.2520 -0.1661  2.2319
 5880TIP3   OH217596   8.065   4.434   2.704 -0.2678  0.4141  0.3739
 5880TIP3    H117597   8.020   4.489   2.768 -1.2036 -0.2935  0.3426
 5880TIP3    H217598   7.998   4.371   2.676 -0.1442  1.2055 -1.8921
 5881TIP3   OH217599   5.179   0.377   2.286  0.0309  0.1137  0.4316
 5881TIP3    H117600   5.109   0.356   2.349 -0.2772  2.1286  0.8202
 5881TIP3    H217601   5.177   0.472   2.279  1.8622  0.1108 -0.6097
 5882TIP3   OH217602   6.517   0.639   5.634 -0.4071  0.7045  0.0382
 5882TIP3    H117603   6.479   0.559   5.668  0.9442 -0.4099 -0.9507
 5882TIP3    H217604   6.589   0.659   5.693 -0.0756  0.5842 -0.3217
 5883TIP3   OH217605   4.301   1.175   6.075 -0.1140 -0.3866  0.2058
 5883TIP3    H117606   4.386   1.182   6.120  0.6097  2.4956 -1.3367
 5883TIP3    H217607   4.246   1.241   6.118 -0.2839  0.4706 -1.2778
 5884TIP3   OH217608   5.290   5.271   3.996 -0.0938  0.1710  0.0836
 5884TIP3    H117609   5.265   5.288   3.905 -1.3428 -0.4248  0.3080
 5884TIP3    H217610   5.362   5.209   3.989 -0.7945 -0.6025 -0.4814
 5885TIP3   OH217611   4.713   6.660   1.541  0.2042  0.0336 -0.0336
 5885TIP3    H117612   4.620   6.681   1.551  0.3793  1.3380 -0.9333
 5885TIP3    H217613   4.753   6.691   1.623 -0.3185 -1.8168  0.9761
 5886TIP3   OH217614   0.408   5.532   1.494 -0.0002  0.3487  0.4381
 5886TIP3    H117615   0.453   5.511   1.576 -1.8752 -2.5515  0.8585
 5886TIP3    H217616   0.329   5.579   1.521 -0.1914  0.1651  0.1926
 5887TIP3   OH217617   2.616   1.170   4.473 -0.0228 -0.1409  0.3749
 5887TIP3    H117618   2.699   1.193   4.513  0.0343  0.3008  0.0174
 5887TIP3    H217619   2.634   1.091   4.422  0.4198  0.4914 -0.4750
 5888TIP3   OH217620   0.793   2.197   4.255 -0.5529  0.6623  0.0222
 5888TIP3    H117621   0.805   2.282   4.297  2.1697  1.1405 -1.4762
 5888TIP3    H217622   0.872   2.185   4.202 -1.7749 -1.9049 -1.4157
 5889TIP3   OH217623   3.000   2.489   1.214  0.6769  0.0021 -0.9908
 5889TIP3    H117624   2.979   2.582   1.223 -1.3534 -0.4339 -0.9285
 5889TIP3    H217625   3.066   2.473   1.282 -1.4995  0.6680  1.4379
 5890TIP3   OH217626   2.283   4.014   6.732 -0.1612  0.0738  0.5539
 5890TIP3    H117627   2.208   3.993   6.677 -1.1796  0.5487  1.7060
 5890TIP3    H217628   2.322   4.092   6.692 -1.4247  0.9478  0.9763
 5891TIP3   OH217629   3.361   4.053   1.561  0.1000  0.4108  0.1782
 5891TIP3    H117630   3.364   4.050   1.465  0.2102 -1.3666  0.2171
 5891TIP3    H217631   3.273   4.082   1.581 -0.1519  0.1108 -0.4600
 5892TIP3   OH217632   0.048   7.226   2.537 -0.0183 -0.5176  0.1638
 5892TIP3    H117633   0.016   7.238   2.447  0.4128  0.3584  0.1195
 5892TIP3    H217634   0.129   7.177   2.526 -0.8800 -2.0324  0.2218
 5893TIP3   OH217635   3.258   7.778   0.868 -0.6475  0.8750 -0.0446
 5893TIP3    H117636   3.246   7.841   0.939  0.0546  0.4642  0.4492
 5893TIP3    H217637   3.300   7.703   0.909 -2.5128 -0.4018 -0.3978
 5894TIP3   OH217638   1.668   1.552   4.765 -0.1729 -0.3954  0.1838
 5894TIP3    H117639   1.720   1.603   4.703 -0.1485  0.3872  0.8257
 5894TIP3    H217640   1.732   1.498   4.812 -0.2204 -1.1829 -0.6304
 5895TIP3   OH217641   1.727   0.352   1.980 -0.2191 -0.2199  0.1149
 5895TIP3    H117642   1.708   0.352   2.074  0.5023  1.9950  0.2970
 5895TIP3    H217643   1.783   0.428   1.966 -0.2263 -0.5575 -2.1189
 5896TIP3   OH217644   4.592   7.630   2.128 -0.0967  0.3919 -0.1240
 5896TIP3    H117645   4.654   7.702   2.130 -0.6067  0.9736 -2.3708
 5896TIP3    H217646   4.635   7.562   2.076 -1.9114  1.5041 -3.3258
 5897TIP3   OH217647   6.740   0.822   2.212 -0.0174  0.2112  0.5304
 5897TIP3    H117648   6.729   0.728   2.197  0.2654 -0.0713  1.9267
 5897TIP3    H217649   6.651   0.855   2.223 -0.1898  0.3141 -0.9254
 5898TIP3   OH217650   7.906   5.203   4.700 -0.3334  0.1059  0.5015
 5898TIP3    H117651   7.914   5.222   4.793  0.0012  0.2035  0.4547
 5898TIP3    H217652   7.851   5.274   4.666  0.2882  0.5793  0.4652
 5899TIP3   OH217653   6.982   7.631   6.008 -0.1687  0.2939 -0.0223
 5899TIP3    H117654   6.945   7.554   6.050  1.7944 -1.2650 -0.9741
 5899TIP3    H217655   7.025   7.679   6.078 -1.9880  0.9208  0.6962
 5900TIP3   OH217656   5.360   2.570   4.538 -0.2343  0.1594  0.3942
 5900TIP3    H117657   5.349   2.476   4.522 -2.5345  0.6005 -1.1060
 5900TIP3    H217658   5.411   2.601   4.463 -0.8155  0.3506  0.0769
 5901TIP3   OH217659   3.485   1.440   3.176 -0.0008 -0.1330  0.2620
 5901TIP3    H117660   3.570   1.428   3.133  0.2076  2.5849 -0.3026
 5901TIP3    H217661   3.436   1.360   3.157  1.6880 -0.8887 -1.1901
 5902TIP3   OH217662   0.754   6.140   6.133  0.4592 -0.0420 -0.4605
 5902TIP3    H117663   0.688   6.208   6.115 -0.9654 -1.0765  0.5476
 5902TIP3    H217664   0.789   6.164   6.219 -0.5387 -0.8868  0.2167
 5903TIP3   OH217665   2.593   0.592   1.933  0.3949 -0.0182  0.0524
 5903TIP3    H117666   2.631   0.600   1.846 -2.6718 -0.3848 -1.4754
 5903TIP3    H217667   2.567   0.500   1.939 -0.1997  0.1967  0.9928
 5904TIP3   OH217668   5.026   4.081   2.950  0.6776  0.4488 -0.7393
 5904TIP3    H117669   5.069   4.128   2.879 -0.4616  1.7540 -0.6123
 5904TIP3    H217670   4.954   4.139   2.977 -0.8880 -1.4418 -0.6638
 5905TIP3   OH217671   4.387   7.183   0.245 -0.5818  0.1424  0.3645
 5905TIP3    H117672   4.368   7.275   0.225  1.4642  0.2557 -1.3320
 5905TIP3    H217673   4.477   7.183   0.277 -0.9386 -1.1775  1.4988
 5906TIP3   OH217674   6.082   0.097   5.889  0.0646 -0.0578  0.1186
 5906TIP3    H117675   6.166   0.121   5.851 -0.5602  0.3010 -1.0688
 5906TIP3    H217676   6.052   0.023   5.837  0.1147 -0.8677  1.2055
 5907TIP3   OH217677   6.126   1.268   5.757  0.4151  0.1618  0.1431
 5907TIP3    H117678   6.193   1.260   5.824 -0.1026  0.0144  0.6541
 5907TIP3    H217679   6.049   1.300   5.803 -0.0345 -0.2195 -0.3230
 5908TIP3   OH217680   0.179   1.178   5.819 -0.2400 -0.6883  0.3913
 5908TIP3    H117681   0.232   1.226   5.882 -1.2168 -0.4833  1.0854
 5908TIP3    H217682   0.143   1.105   5.869  0.8524 -1.9128 -0.5341
 5909TIP3   OH217683   1.828   4.772   1.282 -0.3829 -0.1386 -0.4142
 5909TIP3    H117684   1.833   4.819   1.365 -0.4819 -1.0897  0.1481
 5909TIP3    H217685   1.871   4.688   1.299 -1.1002 -0.6606 -1.0900
 5910TIP3   OH217686   7.066   2.020   5.087 -0.1247  0.0234  0.4175
 5910TIP3    H117687   7.046   1.973   5.168 -0.9028 -0.6658 -0.1690
 5910TIP3    H217688   7.016   1.975   5.019 -1.5854  2.1837 -0.0440
 5911TIP3   OH217689   4.680   4.897   3.845  0.1922 -0.7205 -0.7844
 5911TIP3    H117690   4.669   4.810   3.884 -0.9569 -0.2248  0.0677
 5911TIP3    H217691   4.656   4.885   3.753 -1.4976 -1.0132 -0.3407
 5912TIP3   OH217692   7.756   1.627   1.732 -0.4712  0.0907 -0.1718
 5912TIP3    H117693   7.739   1.715   1.698 -0.6002 -0.8399 -2.7490
 5912TIP3    H217694   7.670   1.596   1.762 -0.2264  1.1975  1.7832
 5913TIP3   OH217695   0.931   6.437   5.966 -0.0619  0.4236 -0.2073
 5913TIP3    H117696   0.945   6.404   6.055 -0.9772  1.2117  0.2565
 5913TIP3    H217697   0.953   6.530   5.973  0.7386  0.3105 -1.0437
 5914TIP3   OH217698   5.986   0.170   3.909 -0.0287  0.3799 -0.1034
 5914TIP3    H117699   5.935   0.219   3.973 -1.7568 -0.0653 -1.0777
 5914TIP3    H217700   5.985   0.225   3.830 -0.4050 -0.3547 -0.6265
 5915TIP3   OH217701   4.590   6.769   6.567  0.2973 -0.0748  0.4002
 5915TIP3    H117702   4.550   6.786   6.482  1.4839 -0.6130 -0.2811
 5915TIP3    H217703   4.572   6.677   6.584  0.5540 -0.1139  0.4627
 5916TIP3   OH217704   3.910   4.040   5.021  0.3596  0.3049 -0.2751
 5916TIP3    H117705   3.964   3.968   5.053  2.2449  2.1945  1.0830
 5916TIP3    H217706   3.893   4.019   4.930  0.2279 -2.1760  0.2667
 5917TIP3   OH217707   4.524   5.100   1.921 -0.0516 -0.1858  0.1449
 5917TIP3    H117708   4.441   5.053   1.928 -1.9167  2.3179 -2.5352
 5917TIP3    H217709   4.572   5.077   2.001 -2.5007 -3.1990  0.9135
 5918TIP3   OH217710   0.224   4.156   6.708  0.0278  0.1261 -0.2776
 5918TIP3    H117711   0.304   4.174   6.758  1.6032 -1.4659 -2.0364
 5918TIP3    H217712   0.252   4.094   6.640 -2.5360  0.2028 -1.5269
 5919TIP3   OH217713   2.744   5.478   3.335 -0.0603 -0.2798  0.0809
 5919TIP3    H117714   2.807   5.542   3.368  0.8628 -0.7470 -0.7124
 5919TIP3    H217715   2.777   5.455   3.248 -0.7970 -1.2750  0.0464
 5920TIP3   OH217716   0.462   1.773   4.150 -0.2731  0.3892 -0.2756
 5920TIP3    H117717   0.519   1.698   4.171 -1.8183 -0.8470 -0.2992
 5920TIP3    H217718   0.380   1.733   4.121 -2.0076  2.0896  1.9490
 5921TIP3   OH217719   2.195   3.028   2.553 -0.4545  0.0031 -0.6008
 5921TIP3    H117720   2.211   3.018   2.459  1.8454  0.3568 -0.3181
 5921TIP3    H217721   2.219   3.119   2.571  0.8813 -0.5412  0.5800
 5922TIP3   OH217722   2.142   0.531   4.550  0.2137 -0.1472  0.0717
 5922TIP3    H117723   2.157   0.465   4.618  0.6670 -0.0575  0.0653
 5922TIP3    H217724   2.069   0.583   4.581  1.3945  0.8847  1.2421
 5923TIP3   OH217725   4.929   3.960   2.183  0.0706 -0.0305 -0.0393
 5923TIP3    H117726   4.943   4.010   2.263 -1.2997 -1.9702  1.4988
 5923TIP3    H217727   4.835   3.962   2.169  0.1618 -0.7634 -0.8942
 5924TIP3   OH217728   4.002   0.816   6.795 -0.3128  0.0259 -0.2607
 5924TIP3    H117729   4.010   0.891   6.738 -1.0594 -0.3783 -0.9218
 5924TIP3    H217730   4.069   0.755   6.765 -0.7576 -0.2199 -0.7769
 5925TIP3   OH217731   7.064   2.642   2.840  0.5843  0.0394 -1.0699
 5925TIP3    H117732   7.092   2.683   2.922 -0.9199  1.2669 -1.1196
 5925TIP3    H217733   7.137   2.585   2.816  1.1686 -0.1829  0.9825
 5926TIP3   OH217734   0.008   2.918   1.408 -0.2329 -0.5229  0.1329
 5926TIP3    H117735   0.001   3.013   1.422  1.4095 -0.2679 -0.5160
 5926TIP3    H217736   0.023   2.883   1.496 -0.6681 -0.1710  0.3548
 5927TIP3   OH217737   1.103   3.666   6.323 -0.6448  0.3144 -0.3219
 5927TIP3    H117738   1.162   3.593   6.342 -0.3008 -0.1076 -2.6335
 5927TIP3    H217739   1.020   3.642   6.363  0.4319  0.4377  2.1130
 5928TIP3   OH217740   2.674   0.156   1.547 -0.0695  0.5010  0.3578
 5928TIP3    H117741   2.610   0.172   1.478  1.4414  0.0569 -1.2180
 5928TIP3    H217742   2.642   0.078   1.592 -0.6841  0.3253 -0.3713
 5929TIP3   OH217743   1.400   7.745   3.140 -0.9070 -0.6112 -0.3800
 5929TIP3    H117744   1.310   7.731   3.167 -1.0173 -1.3516 -1.0822
 5929TIP3    H217745   1.397   7.740   3.044  0.0416 -1.7152 -0.3702
 5930TIP3   OH217746   2.910   3.348   2.646 -0.1219  0.0769  0.0238
 5930TIP3    H117747   2.957   3.341   2.563  1.4469 -0.0161  0.8794
 5930TIP3    H217748   2.928   3.265   2.691  0.1046  0.6212  0.9684
 5931TIP3   OH217749   2.709   1.644   2.925 -0.0838  0.3126 -0.2033
 5931TIP3    H117750   2.631   1.591   2.944  0.6561 -1.0914 -0.9035
 5931TIP3    H217751   2.738   1.613   2.839  1.8864  0.0022  0.5258
 5932TIP3   OH217752   4.451   1.278   3.746 -0.2586  0.1353  0.5388
 5932TIP3    H117753   4.466   1.279   3.841 -1.4637 -1.2520  0.7828
 5932TIP3    H217754   4.367   1.233   3.736 -1.0214  1.8083 -1.0965
 5933TIP3   OH217755   4.959   4.342   1.848 -0.3265  0.3170  0.4267
 5933TIP3    H117756   4.998   4.259   1.876 -0.5566 -0.1011 -0.4502
 5933TIP3    H217757   5.033   4.401   1.835 -0.0842 -0.0672  0.0583
 5934TIP3   OH217758   5.131   6.688   4.911 -0.1895  0.1644 -0.1944
 5934TIP3    H117759   5.037   6.671   4.919 -0.0894 -1.4726 -1.6746
 5934TIP3    H217760   5.170   6.642   4.985 -0.4959  0.0376 -0.1118
 5935TIP3   OH217761   7.335   3.004   0.608 -0.9275 -0.9751 -1.3300
 5935TIP3    H117762   7.356   2.954   0.687  1.3181 -1.0177 -1.8883
 5935TIP3    H217763   7.321   3.093   0.640  0.4929 -0.8798 -0.8887
 5936TIP3   OH217764   3.101   7.374   1.493  0.1531 -0.5263 -0.0515
 5936TIP3    H117765   3.085   7.366   1.587 -0.9101 -2.5586 -0.3526
 5936TIP3    H217766   3.039   7.441   1.463  0.3610 -0.0141  0.6528
 5937TIP3   OH217767   7.336   3.774   2.476  0.3488 -0.2118 -0.1251
 5937TIP3    H117768   7.326   3.769   2.381 -0.9934  3.3641 -0.3431
 5937TIP3    H217769   7.251   3.744   2.511  0.9238 -1.7540  0.0238
 5938TIP3   OH217770   3.587   0.421   2.021 -0.2160  0.3365  0.0132
 5938TIP3    H117771   3.613   0.353   1.959 -1.4069 -1.6199  1.5464
 5938TIP3    H217772   3.516   0.468   1.977  1.4665  1.5390 -1.5803
 5939TIP3   OH217773   0.805   6.299   0.616 -0.6588 -0.5261 -0.2536
 5939TIP3    H117774   0.851   6.362   0.671  0.6697 -2.1066  0.5546
 5939TIP3    H217775   0.766   6.351   0.546  2.0711  1.0028 -0.7868
 5940TIP3   OH217776   4.910   0.399   2.748  0.3444 -0.3160  0.2848
 5940TIP3    H117777   4.873   0.357   2.825  2.8935 -1.3074  1.0412
 5940TIP3    H217778   4.982   0.453   2.781  0.1918  0.8779 -1.1979
 5941TIP3   OH217779   0.051   4.759   2.161 -0.1190 -0.3384  0.0271
 5941TIP3    H117780   0.140   4.725   2.169 -0.1604 -0.2390  1.0823
 5941TIP3    H217781   0.023   4.775   2.251 -1.2838 -0.5486 -0.2734
 5942TIP3   OH217782   0.517   3.919   6.340  0.3544  0.1567 -0.3192
 5942TIP3    H117783   0.557   3.982   6.280  0.4074  0.2172 -0.2203
 5942TIP3    H217784   0.523   3.836   6.294 -0.5456  0.3706 -0.8403
 5943TIP3   OH217785   1.823   0.043   2.065 -0.2005  0.4273 -0.3366
 5943TIP3    H117786   1.780   0.123   2.033 -0.3367  0.7189  0.5279
 5943TIP3    H217787   1.782  -0.027   2.015 -0.1049  0.8945 -1.0868
 5944TIP3   OH217788   0.953   2.411   2.893  0.5094  0.0397 -0.4281
 5944TIP3    H117789   0.998   2.494   2.880  0.6344  0.5561  2.6601
 5944TIP3    H217790   1.022   2.348   2.911  0.2499 -0.0248  0.3764
 5945TIP3   OH217791   6.789   4.012   1.040 -0.4746  0.0038  0.1271
 5945TIP3    H117792   6.826   4.034   1.126 -1.3093  0.3603  0.4028
 5945TIP3    H217793   6.782   3.917   1.042 -1.7485  0.0916  1.0005
 5946TIP3   OH217794   6.148   7.494   0.214  0.6699 -0.4195  0.3930
 5946TIP3    H117795   6.171   7.517   0.124  0.1528  1.7361  0.7708
 5946TIP3    H217796   6.174   7.570   0.266 -2.4917  0.0071  1.5345
 5947TIP3   OH217797   3.745   4.795   4.311 -0.3156 -0.1862  0.1889
 5947TIP3    H117798   3.661   4.836   4.289 -0.6064 -1.2261 -0.7729
 5947TIP3    H217799   3.793   4.794   4.228  1.8243  2.8701  1.2480
 5948TIP3   OH217800   1.337   3.504   5.168  0.0103 -0.2620 -0.5115
 5948TIP3    H117801   1.314   3.451   5.091 -0.3854 -0.4242 -0.2810
 5948TIP3    H217802   1.306   3.591   5.146  0.1315 -0.2496 -0.6417
 5949TIP3   OH217803   4.580   1.509   4.980 -0.0863 -0.6083  0.1655
 5949TIP3    H117804   4.561   1.421   5.015 -0.6942 -0.4826  0.1693
 5949TIP3    H217805   4.602   1.494   4.888  3.2628 -1.1474  0.9400
 5950TIP3   OH217806   8.222   3.002   2.774 -0.6395  0.0004  0.1325
 5950TIP3    H117807   8.239   3.067   2.842  2.4008 -1.6596  1.1618
 5950TIP3    H217808   8.190   2.925   2.822 -2.7936  0.1838 -0.8979
 5951TIP3   OH217809   6.645   4.705   1.976 -0.2861 -0.7054  0.0567
 5951TIP3    H117810   6.738   4.707   1.956 -0.9407 -0.8789 -3.6132
 5951TIP3    H217811   6.633   4.775   2.041  2.1243  0.4173 -0.5909
 5952TIP3   OH217812   3.321   3.273   2.384 -0.3830 -0.2807  0.1110
 5952TIP3    H117813   3.331   3.214   2.458 -1.8061  0.3511  0.8345
 5952TIP3    H217814   3.238   3.319   2.399  0.0785  1.0354 -1.0357
 5953TIP3   OH217815   4.547   6.012   5.928  0.5503  0.9684  0.3341
 5953TIP3    H117816   4.605   6.086   5.946  0.7764  0.9462 -0.2905
 5953TIP3    H217817   4.605   5.936   5.923  0.1969  0.4965  2.2695
 5954TIP3   OH217818   5.414   6.824   1.343  0.0440  0.3303  0.3702
 5954TIP3    H117819   5.381   6.912   1.330 -1.7667 -0.4030 -0.2993
 5954TIP3    H217820   5.360   6.787   1.412  0.9637 -0.1762  0.8452
 5955TIP3   OH217821   2.791   7.437   0.692 -0.3014 -0.1148  0.0342
 5955TIP3    H117822   2.743   7.466   0.615 -1.5209  2.0915  1.5073
 5955TIP3    H217823   2.882   7.432   0.663 -0.7033  0.7727 -1.5014
 5956TIP3   OH217824   5.399   5.495   1.664 -0.5020 -0.3086 -0.1848
 5956TIP3    H117825   5.443   5.511   1.581 -0.6031  0.0055 -0.1796
 5956TIP3    H217826   5.446   5.420   1.702  0.3016  0.2764  0.0095
 5957TIP3   OH217827   6.652   0.747   3.006 -0.3171 -0.2308  0.5349
 5957TIP3    H117828   6.671   0.820   3.065 -1.3796 -1.1961  2.1263
 5957TIP3    H217829   6.559   0.731   3.016 -0.2844 -1.2167 -0.5029
 5958TIP3   OH217830   5.344   0.853   2.216  0.4854  0.3829 -0.0414
 5958TIP3    H117831   5.389   0.867   2.133  0.6386  0.3805  0.0412
 5958TIP3    H217832   5.411   0.869   2.283  0.5709 -0.3928  0.0679
 5959TIP3   OH217833   2.609   5.450   6.723 -0.2118 -0.2503 -0.1002
 5959TIP3    H117834   2.552   5.527   6.719 -0.9106 -0.7592 -0.1332
 5959TIP3    H217835   2.681   5.477   6.780 -0.0640  0.6685 -0.6940
 5960TIP3   OH217836   2.143   7.676   5.311  0.2711  0.2868 -0.1459
 5960TIP3    H117837   2.175   7.766   5.312 -0.1310  0.5126 -2.5807
 5960TIP3    H217838   2.056   7.681   5.351  0.8396  0.6828  1.0894
 5961TIP3   OH217839   7.080   5.798   3.225  0.3589 -0.8778 -0.0204
 5961TIP3    H117840   7.016   5.746   3.176  0.1095 -0.2555 -0.3657
 5961TIP3    H217841   7.106   5.867   3.164  0.2259 -0.2369  0.6373
 5962TIP3   OH217842   5.495   6.403   6.027  0.4758  0.3011  0.0998
 5962TIP3    H117843   5.574   6.442   6.066  1.8064  0.3440 -2.4563
 5962TIP3    H217844   5.516   6.394   5.934 -1.9511 -1.2350 -0.3795
 5963TIP3   OH217845   3.218   0.160   3.169  0.2987  0.1476 -0.2131
 5963TIP3    H117846   3.245   0.165   3.261  0.0928 -0.7016 -0.0974
 5963TIP3    H217847   3.129   0.195   3.169  0.5910  0.9155 -0.2346
 5964TIP3   OH217848   4.205   6.479   2.897 -0.5284 -0.2761  0.3681
 5964TIP3    H117849   4.259   6.474   2.818  0.7673  0.4878  1.1680
 5964TIP3    H217850   4.237   6.407   2.952  0.3741  0.7558  1.2365
 5965TIP3   OH217851   4.360   6.472   5.956 -0.0446  0.5143  0.1143
 5965TIP3    H117852   4.433   6.531   5.937 -0.4617  1.1783  0.5610
 5965TIP3    H217853   4.394   6.413   6.024  0.2507  0.4675 -0.0713
 5966TIP3   OH217854   5.876   3.837   6.127 -0.5606 -0.1007  0.2501
 5966TIP3    H117855   5.811   3.777   6.091 -1.0981 -0.2001  1.3401
 5966TIP3    H217856   5.957   3.816   6.079 -1.2848 -0.0419 -1.0472
 5967TIP3   OH217857   0.160   6.508   5.004 -0.0042  0.8082  0.2099
 5967TIP3    H117858   0.137   6.450   4.931  1.6082 -1.5562  1.4713
 5967TIP3    H217859   0.116   6.469   5.080  1.7355  0.7550  1.2225
 5968TIP3   OH217860   1.092   4.357   5.557 -0.2345  0.0065 -0.1670
 5968TIP3    H117861   0.998   4.354   5.537 -0.0417  1.2673 -1.3986
 5968TIP3    H217862   1.103   4.438   5.608  0.3881  0.6665 -1.3190
 5969TIP3   OH217863   1.978   3.372   1.033 -0.6585 -0.5777  0.8777
 5969TIP3    H117864   2.037   3.394   0.962 -1.6341  0.4077  0.3461
 5969TIP3    H217865   2.030   3.318   1.092  1.0805  1.0706  0.9353
 5970TIP3   OH217866   0.864   4.943   5.486 -0.4757  0.8580  0.1158
 5970TIP3    H117867   0.841   4.982   5.570 -1.7335  1.0751 -0.3132
 5970TIP3    H217868   0.788   4.890   5.462 -0.2477  1.0085 -1.0069
 5971TIP3   OH217869   7.212   5.128   5.501 -0.4685 -0.2116  0.4746
 5971TIP3    H117870   7.256   5.043   5.497 -0.4579 -0.2232  0.8483
 5971TIP3    H217871   7.121   5.109   5.479 -0.1975 -0.1116 -0.8371
 5972TIP3   OH217872   0.441   4.449   3.218  0.1268  0.0486  0.6585
 5972TIP3    H117873   0.480   4.385   3.278 -1.1522 -0.6829  0.7526
 5972TIP3    H217874   0.346   4.436   3.227 -0.2011 -2.0577 -3.5743
 5973TIP3   OH217875   3.203   0.193   5.253  0.3959  0.0898  0.3644
 5973TIP3    H117876   3.138   0.226   5.315 -1.1200  0.2873 -1.2486
 5973TIP3    H217877   3.153   0.174   5.173  1.6689 -3.2681  0.1831
 5974TIP3   OH217878   1.057   5.177   6.052  0.6195  0.0316  0.0038
 5974TIP3    H117879   1.027   5.087   6.045 -0.0927  0.2925 -0.4148
 5974TIP3    H217880   0.989   5.221   6.103  0.5667  0.5045 -0.4668
 5975TIP3   OH217881   6.396   3.075   0.280 -1.2977 -0.0180  0.1021
 5975TIP3    H117882   6.393   3.022   0.360 -1.7948 -0.3059 -0.1024
 5975TIP3    H217883   6.327   3.039   0.225 -0.6417 -0.1296 -0.6550
 5976TIP3   OH217884   5.747   1.036   3.349  0.0167  0.1445 -0.2211
 5976TIP3    H117885   5.690   1.109   3.328  0.2801  0.3002 -0.3873
 5976TIP3    H217886   5.836   1.069   3.335  0.1798  0.1087  0.6631
 5977TIP3   OH217887   6.251   6.639   0.145 -0.2950  0.1633  0.8039
 5977TIP3    H117888   6.278   6.728   0.169 -1.8015  0.9578 -0.2317
 5977TIP3    H217889   6.181   6.652   0.080  0.1828 -1.7944 -0.1959
 5978TIP3   OH217890   0.964   1.377   5.931  0.6922 -0.1080  0.6997
 5978TIP3    H117891   0.870   1.376   5.915  0.7440 -0.0404  0.3825
 5978TIP3    H217892   0.978   1.455   5.985  0.4774 -0.4979  1.3311
 5979TIP3   OH217893   3.919   1.338   1.033 -0.0505  0.4942  0.1901
 5979TIP3    H117894   3.860   1.379   0.969 -0.0501 -0.5612 -0.5087
 5979TIP3    H217895   3.861   1.305   1.101 -0.0987  1.1145  0.4565
 5980TIP3   OH217896   5.043   3.617   4.828  0.7469  0.0090  0.1913
 5980TIP3    H117897   5.115   3.560   4.856  2.2159  0.4402 -2.3333
 5980TIP3    H217898   4.982   3.559   4.783  0.3733 -0.0809  0.7953
 5981TIP3   OH217899   5.021   2.611   4.090 -0.1192  0.5234  0.2826
 5981TIP3    H117900   5.093   2.631   4.149 -0.3244  0.7011  0.4770
 5981TIP3    H217901   4.942   2.626   4.143 -0.2966  0.2418  0.1021
 5982TIP3   OH217902   5.765  -0.018   3.520  0.2978 -0.3227  0.2035
 5982TIP3    H117903   5.814   0.063   3.502  3.5038 -1.2576  3.4938
 5982TIP3    H217904   5.756  -0.020   3.615 -1.6185 -2.8308  0.0731
 5983TIP3   OH217905   5.211   1.648   4.618  0.1608 -0.0958  0.0725
 5983TIP3    H117906   5.281   1.659   4.683 -0.8519 -0.2315  1.2266
 5983TIP3    H217907   5.175   1.561   4.635 -1.9738  0.9315  1.2608
 5984TIP3   OH217908   5.644   2.243   1.702  0.1409  0.0344  0.7474
 5984TIP3    H117909   5.587   2.263   1.628  1.2504  1.1514  0.1379
 5984TIP3    H217910   5.672   2.329   1.735  1.2530 -0.4629  1.1786
 5985TIP3   OH217911   7.382   6.894   0.495  0.2541  0.7456  0.0455
 5985TIP3    H117912   7.460   6.917   0.444 -1.6198  2.7122 -2.2025
 5985TIP3    H217913   7.386   6.952   0.571  0.6722  1.3023 -0.3876
 5986TIP3   OH217914   2.571   6.782   0.397 -0.3143 -0.3691 -0.3721
 5986TIP3    H117915   2.650   6.811   0.443 -0.1870 -1.0631 -0.1443
 5986TIP3    H217916   2.581   6.818   0.309 -1.2173  2.1755  0.4520
 5987TIP3   OH217917   2.506   4.117   0.442  0.3924 -0.1853  0.3764
 5987TIP3    H117918   2.427   4.064   0.429  1.0972 -1.2568  0.3258
 5987TIP3    H217919   2.491   4.196   0.390 -1.2737  0.3295  1.5369
 5988TIP3   OH217920   2.104   6.075   5.952 -0.2489 -0.0896  0.2842
 5988TIP3    H117921   2.181   6.060   5.897  0.9638  0.4456  1.7579
 5988TIP3    H217922   2.061   6.150   5.911  1.2065  0.9696  0.5902
 5989TIP3   OH217923   5.451   3.586   2.066  0.3248 -0.2253  0.1022
 5989TIP3    H117924   5.363   3.571   2.102  0.0593  0.4408 -0.2481
 5989TIP3    H217925   5.479   3.668   2.106  0.9779 -0.6540  0.5489
 5990TIP3   OH217926   7.181   5.924   1.199  0.1253  0.8763  0.0053
 5990TIP3    H117927   7.138   5.981   1.263  1.2250  1.7642 -0.0053
 5990TIP3    H217928   7.156   5.836   1.225  0.9185  1.1759  1.9644
 5991TIP3   OH217929   1.457   4.357   4.639  0.7534 -0.3496 -0.5933
 5991TIP3    H117930   1.393   4.321   4.700  0.3235 -0.4493 -1.0962
 5991TIP3    H217931   1.407   4.420   4.586  1.6008  1.4461  0.6368
 5992TIP3   OH217932   7.932   4.545   2.904 -0.0001 -0.6011  0.1306
 5992TIP3    H117933   7.870   4.515   2.970  0.9075 -0.5872  1.0091
 5992TIP3    H217934   7.925   4.640   2.906  1.0070 -0.5239  1.2170
 5993TIP3   OH217935   3.440   4.836   0.571 -0.9118 -0.5214  0.6097
 5993TIP3    H117936   3.394   4.847   0.654 -3.0010 -0.4098 -0.4883
 5993TIP3    H217937   3.379   4.787   0.516  0.0913  0.0366 -1.0996
 5994TIP3   OH217938   6.423   7.758   6.200  0.6849 -0.4205 -0.4734
 5994TIP3    H117939   6.342   7.766   6.251 -0.2836  0.0891 -2.0444
 5994TIP3    H217940   6.469   7.841   6.216  0.0783  0.0090 -0.9361
 5995TIP3   OH217941   0.583   7.793   3.870  0.1930  0.0488 -0.0308
 5995TIP3    H117942   0.582   7.779   3.775 -2.0224  0.7832 -0.1821
 5995TIP3    H217943   0.667   7.834   3.888  1.0466 -0.9660 -1.5246
 5996TIP3   OH217944   0.681   0.777   5.732 -0.4723  0.2839 -0.1507
 5996TIP3    H117945   0.770   0.772   5.766 -0.3778 -1.0836 -0.5400
 5996TIP3    H217946   0.689   0.827   5.651  0.3171 -1.5202 -1.2485
 5997TIP3   OH217947   2.324   4.958   4.285 -0.4254 -0.2964 -0.1947
 5997TIP3    H117948   2.294   5.019   4.352  1.7785  0.8998 -0.2001
 5997TIP3    H217949   2.343   4.877   4.332  1.6747  0.7160  0.8158
 5998TIP3   OH217950   3.263   5.174   5.241 -0.0088 -0.6474  0.0788
 5998TIP3    H117951   3.216   5.111   5.296  0.3007  0.1271  1.2648
 5998TIP3    H217952   3.208   5.252   5.241 -1.2009 -1.3585 -2.7117
 5999TIP3   OH217953   5.691   5.999   4.350 -0.5967  0.2964 -0.2654
 5999TIP3    H117954   5.668   6.031   4.437  1.3749 -1.7721  1.1237
 5999TIP3    H217955   5.687   5.904   4.357 -0.4009  0.0720 -2.4681
 6000TIP3   OH217956   4.133   6.325   2.452  0.0002 -1.1129  0.2860
 6000TIP3    H117957   4.101   6.356   2.536  3.5763 -0.9004  1.7695
 6000TIP3    H217958   4.131   6.230   2.458 -3.8995 -1.2968 -1.3015
 6001TIP3   OH217959   3.690   3.309   6.673 -0.2898  0.0518  0.2163
 6001TIP3    H117960   3.723   3.282   6.759 -0.4038 -0.3256  0.1448
 6001TIP3    H217961   3.727   3.245   6.612 -1.3086 -0.5107  0.1633
 6002TIP3   OH217962   4.507   7.178   1.113  0.3732 -0.4478 -0.2210
 6002TIP3    H117963   4.419   7.156   1.084  1.1467 -0.9616 -2.3604
 6002TIP3    H217964   4.519   7.129   1.194 -1.1089 -0.7992 -0.1947
 6003TIP3   OH217965   0.754   7.166   5.110  0.3541 -0.0260 -0.2066
 6003TIP3    H117966   0.679   7.108   5.123  1.1769 -0.9130  0.7053
 6003TIP3    H217967   0.736   7.241   5.167  1.2993 -1.3799  2.0132
 6004TIP3   OH217968   3.383   1.670   0.798 -0.0841  0.0536 -0.1315
 6004TIP3    H117969   3.472   1.669   0.832 -0.6890  0.6476  1.6013
 6004TIP3    H217970   3.362   1.763   0.789 -0.1224 -0.0763 -1.7676
 6005TIP3   OH217971   1.451   5.364   4.152  0.7174  0.3307  0.4815
 6005TIP3    H117972   1.451   5.300   4.081 -0.3431 -0.6305  1.3032
 6005TIP3    H217973   1.432   5.448   4.109 -0.3905 -0.3008 -0.3344
 6006TIP3   OH217974   4.469   7.013   5.940  0.2162  0.0920  0.0898
 6006TIP3    H117975   4.497   7.055   5.858 -0.8410  2.1088  0.7049
 6006TIP3    H217976   4.388   7.058   5.964  0.1413 -0.9204  1.9067
 6007TIP3   OH217977   2.482   7.198   4.790  0.6362 -0.1740 -0.1523
 6007TIP3    H117978   2.577   7.194   4.803  0.7875 -0.7129 -1.3062
 6007TIP3    H217979   2.445   7.175   4.876  1.5679 -3.4020 -0.4561
 6008TIP3   OH217980   5.472   6.897   1.090 -0.3824  0.0095  0.2635
 6008TIP3    H117981   5.471   6.847   1.172  3.1254 -0.8934 -0.0604
 6008TIP3    H217982   5.565   6.907   1.070 -1.0937  0.5800 -3.4000
 6009TIP3   OH217983   1.771   1.664   1.972 -0.1044  0.1925 -0.0932
 6009TIP3    H117984   1.780   1.647   2.066  0.9045 -0.7325 -0.3413
 6009TIP3    H217985   1.793   1.581   1.930  2.2066  1.3230 -1.2673
 6010TIP3   OH217986   1.074   5.263   3.857  0.0959  0.0645  0.1760
 6010TIP3    H117987   1.088   5.310   3.774 -2.9625  3.5139  1.3236
 6010TIP3    H217988   1.003   5.202   3.838 -0.3111  0.5479  0.1067
 6011TIP3   OH217989   0.177   2.907   5.154 -0.0589  0.2217 -0.3479
 6011TIP3    H117990   0.227   2.988   5.160 -1.6499  1.3779 -1.7133
 6011TIP3    H217991   0.162   2.895   5.060 -0.1572 -1.4813 -0.1506
 6012TIP3   OH217992   5.563   4.767   4.999 -0.4157  0.0969 -0.2786
 6012TIP3    H117993   5.577   4.787   5.092 -0.8728 -0.4521 -0.0877
 6012TIP3    H217994   5.484   4.816   4.976 -0.4163  0.0724 -0.3287
 6013TIP3   OH217995   4.003   7.246   3.658  0.4486  0.7304  0.2899
 6013TIP3    H117996   4.016   7.153   3.674 -0.5489  0.7533  1.3526
 6013TIP3    H217997   4.055   7.264   3.579 -1.4784 -1.3088 -1.5956
 6014TIP3   OH217998   5.214   6.641   6.166 -0.3199 -0.1867  0.8845
 6014TIP3    H117999   5.194   6.560   6.119  0.2708 -0.4388  1.0697
 6014TIP3    H218000   5.306   6.658   6.147 -0.2308  0.0151  1.4778
 6015TIP3   OH218001   4.242   6.392   1.221 -0.5600  0.5045  0.6845
 6015TIP3    H118002   4.238   6.452   1.146 -2.1384 -2.6519 -2.0348
 6015TIP3    H218003   4.164   6.411   1.272 -1.8764 -0.1309 -1.0023
 6016TIP3   OH218004   0.312   6.499   0.906  0.2437  0.3604  0.5986
 6016TIP3    H118005   0.378   6.495   0.837  0.3301 -0.8283  0.7331
 6016TIP3    H218006   0.229   6.490   0.860  0.2180  0.8758  0.5318
 6017TIP3   OH218007   4.222   5.629   0.797 -0.1373  0.4844 -0.0345
 6017TIP3    H118008   4.180   5.605   0.715 -0.1593  1.2396 -0.2489
 6017TIP3    H218009   4.261   5.715   0.780  0.5715  0.2764  0.4878
 6018TIP3   OH218010   3.775   1.258   2.332 -0.0881  0.0826 -0.1166
 6018TIP3    H118011   3.817   1.313   2.266  0.5286 -0.0335  0.1647
 6018TIP3    H218012   3.729   1.320   2.389  1.3449  0.4166  0.7287
 6019TIP3   OH218013   0.184   3.197   5.455 -0.2117 -0.3410 -0.4987
 6019TIP3    H118014   0.195   3.183   5.360  3.4346  0.5332 -0.3600
 6019TIP3    H218015   0.221   3.283   5.471 -0.8125 -0.4435  1.7430
 6020TIP3   OH218016   2.726   6.116   5.087 -0.1529 -0.5518 -0.3948
 6020TIP3    H118017   2.691   6.135   5.174 -1.0526 -2.5789 -0.2784
 6020TIP3    H218018   2.724   6.201   5.042 -1.1151  0.2302  1.0401
 6021TIP3   OH218019   6.031   0.071   3.210  0.0613  0.2874 -0.1087
 6021TIP3    H118020   5.990  -0.015   3.205  0.0276  0.1884  1.2977
 6021TIP3    H218021   5.991   0.122   3.140 -2.4826  0.1787  1.1430
 6022TIP3   OH218022   3.342   6.056   6.573 -0.3228 -0.2524 -0.4804
 6022TIP3    H118023   3.381   6.108   6.502 -0.3921 -1.1342 -1.1800
 6022TIP3    H218024   3.286   5.993   6.528 -0.5832 -0.6385  0.3817
 6023TIP3   OH218025   4.862   5.943   3.320  0.5562 -0.1625  0.0597
 6023TIP3    H118026   4.928   5.911   3.382 -0.8432 -1.0792  1.1454
 6023TIP3    H218027   4.783   5.953   3.372 -0.7039 -1.0442 -1.5828
 6024TIP3   OH218028   7.027   6.069   4.288 -0.4845  0.8537 -0.3021
 6024TIP3    H118029   7.002   6.036   4.201  1.6761 -1.5573 -0.1459
 6024TIP3    H218030   7.069   6.153   4.271 -0.5304  0.6463 -1.5142
 6025TIP3   OH218031   8.153   7.420   0.628 -0.6747 -0.1197 -0.8588
 6025TIP3    H118032   8.236   7.374   0.616  0.0062  0.8632 -0.1014
 6025TIP3    H218033   8.177   7.512   0.623 -1.6551  0.1769 -0.2563
 6026TIP3   OH218034   2.044   0.513   0.942  0.3543  0.2862 -0.3034
 6026TIP3    H118035   2.049   0.462   1.023 -1.4134 -1.3881 -1.1707
 6026TIP3    H218036   1.956   0.548   0.941  0.5829  0.8669 -1.1749
 6027TIP3   OH218037   1.656   3.324   2.494  0.5412 -0.4637  0.3406
 6027TIP3    H118038   1.676   3.320   2.401  1.0336  1.5897  0.3036
 6027TIP3    H218039   1.709   3.397   2.526 -1.4011  0.4185  1.7388
 6028TIP3   OH218040   4.512   5.502   4.312 -0.6302  0.2478 -0.4686
 6028TIP3    H118041   4.591   5.451   4.326 -0.4642  0.4424 -0.6807
 6028TIP3    H218042   4.444   5.456   4.361  0.0151  1.1403  1.3558
 6029TIP3   OH218043   0.338   0.442   6.061  0.2372  0.1194 -0.1712
 6029TIP3    H118044   0.429   0.425   6.036  0.6557  2.3930 -0.4589
 6029TIP3    H218045   0.334   0.422   6.154  1.1601  0.4037 -0.0588
 6030TIP3   OH218046   3.179   7.577   1.330 -0.0329 -0.5013  0.2780
 6030TIP3    H118047   3.166   7.512   1.399 -0.5735 -1.5398 -0.7702
 6030TIP3    H218048   3.097   7.577   1.281 -0.0474  1.0031  0.2735
 6031TIP3   OH218049   4.582   6.880   2.546 -0.0421  0.1129 -0.5965
 6031TIP3    H118050   4.569   6.812   2.479 -0.3022 -2.0046  1.4703
 6031TIP3    H218051   4.547   6.841   2.626 -0.3460  2.8041  0.6687
 6032TIP3   OH218052   2.965   3.146   4.965  0.3706 -0.1713  0.4314
 6032TIP3    H118053   2.956   3.094   5.045 -0.6911  0.4432  0.7417
 6032TIP3    H218054   2.995   3.232   4.995  0.5072 -0.1062  0.1126
 6033TIP3   OH218055   4.779   5.831   1.642  0.7309 -0.2399  0.0142
 6033TIP3    H118056   4.862   5.827   1.593  1.4201 -1.2736  1.2058
 6033TIP3    H218057   4.713   5.805   1.578  1.4103 -0.0407 -0.7892
 6034TIP3   OH218058   4.164   2.294   0.818  0.0173  0.0846 -0.9581
 6034TIP3    H118059   4.208   2.217   0.781  1.3716  1.0934 -1.4960
 6034TIP3    H218060   4.154   2.354   0.745  0.8293  1.2564 -0.1370
 6035TIP3   OH218061   4.493   4.491   3.783 -0.3342 -0.1404  0.5552
 6035TIP3    H118062   4.572   4.441   3.803 -0.4034 -0.2244  0.6173
 6035TIP3    H218063   4.421   4.432   3.804 -0.4425 -1.5650 -3.2347
 6036TIP3   OH218064   7.604   2.046   3.930  0.2215 -0.3815  0.3064
 6036TIP3    H118065   7.604   2.091   3.846  0.5668 -0.3657  0.3129
 6036TIP3    H218066   7.634   2.112   3.993 -2.0822  0.2786  0.8238
 6037TIP3   OH218067   1.596   2.598   3.193 -0.4720 -0.0311 -0.0778
 6037TIP3    H118068   1.689   2.586   3.177 -0.2494 -0.0364  1.0955
 6037TIP3    H218069   1.566   2.656   3.123  0.8832  1.7435  0.7433
 6038TIP3   OH218070   1.607   5.431   0.771 -0.8392 -0.4856 -0.1296
 6038TIP3    H118071   1.635   5.357   0.826  0.8047  0.4294  0.3406
 6038TIP3    H218072   1.545   5.479   0.825 -1.1417 -0.9574 -0.0500
 6039TIP3   OH218073   7.123   6.651   1.720  0.0238 -0.6849  0.3328
 6039TIP3    H118074   7.101   6.674   1.629  0.4815  0.2644  0.4467
 6039TIP3    H218075   7.099   6.728   1.770  1.0992 -0.6505  0.8217
 6040TIP3   OH218076   2.554   6.845   1.293  0.1429 -0.1954  0.3285
 6040TIP3    H118077   2.484   6.781   1.286 -0.4815  0.6154 -1.3379
 6040TIP3    H218078   2.527   6.902   1.365 -2.5964  1.9489 -2.1497
 6041TIP3   OH218079   1.886   1.452   4.906  0.0409  0.6227  0.3188
 6041TIP3    H118080   1.907   1.534   4.951 -2.1953  1.0622  0.6624
 6041TIP3    H218081   1.954   1.444   4.840  1.3421  1.8203  1.4337
 6042TIP3   OH218082   0.359   7.114   0.526  0.0176  0.4111  0.1000
 6042TIP3    H118083   0.399   7.134   0.441  0.1934 -0.4178 -0.0202
 6042TIP3    H218084   0.381   7.189   0.581  0.0415  0.8779 -0.5433
 6043TIP3   OH218085   1.606   0.862   6.101 -0.3612 -1.1960 -0.1671
 6043TIP3    H118086   1.591   0.905   6.186 -0.1692 -0.3868 -0.5360
 6043TIP3    H218087   1.682   0.907   6.065 -1.2769 -0.5717 -1.3975
 6044TIP3   OH218088   3.045   0.217   2.562  0.1722  0.5200 -0.0814
 6044TIP3    H118089   3.051   0.193   2.470  0.3733 -2.3580  0.5723
 6044TIP3    H218090   2.959   0.185   2.590  0.9708 -0.6588  1.1790
 6045TIP3   OH218091   5.959   3.281   5.034  0.3679 -0.3238  0.0128
 6045TIP3    H118092   5.969   3.205   4.977 -1.5175 -0.5656 -0.0506
 6045TIP3    H218093   5.920   3.348   4.978 -0.1528 -0.0787  0.6589
 6046TIP3   OH218094   5.167   5.245   2.865  0.3420 -0.0412  0.2610
 6046TIP3    H118095   5.147   5.309   2.797 -1.3762 -1.5561 -0.7574
 6046TIP3    H218096   5.096   5.253   2.928  0.9082  0.0469  0.8968
 6047TIP3   OH218097   0.182   2.485   0.077 -0.1181 -0.2696 -0.2037
 6047TIP3    H118098   0.256   2.445   0.032  0.8096  0.3302  0.7381
 6047TIP3    H218099   0.114   2.418   0.076  0.3534 -0.7622 -1.2575
 6048TIP3   OH218100   4.486   5.464   5.772  0.2913 -0.3641 -0.6872
 6048TIP3    H118101   4.513   5.375   5.750 -0.5810 -0.7316 -0.3296
 6048TIP3    H218102   4.405   5.453   5.822 -0.5200  0.6787 -1.7233
 6049TIP3   OH218103   1.500   2.428   3.871 -0.0549  0.6343 -0.1861
 6049TIP3    H118104   1.577   2.472   3.836  0.0717  1.3086  0.9083
 6049TIP3    H218105   1.426   2.480   3.840  0.0057  0.7485 -0.1359
 6050TIP3   OH218106   0.658   1.231   1.814  0.3045 -0.1084 -0.2785
 6050TIP3    H118107   0.685   1.238   1.723 -2.5270 -0.5769 -1.2592
 6050TIP3    H218108   0.698   1.150   1.845  0.6349 -0.3734 -1.3647
 6051TIP3   OH218109   7.098   0.614   1.763  0.0539 -0.2079  0.3120
 6051TIP3    H118110   7.110   0.644   1.853  0.9245 -0.1221  0.1833
 6051TIP3    H218111   7.025   0.666   1.729 -0.0313  0.0270  0.8497
 6052TIP3   OH218112   2.801   7.398   3.239  0.1630 -0.6721 -0.7799
 6052TIP3    H118113   2.813   7.333   3.309  0.0560 -2.3401 -2.2376
 6052TIP3    H218114   2.719   7.443   3.262  0.6576 -0.4602  0.6850
 6053TIP3   OH218115   6.242   2.765   6.439  0.2348 -0.5017  0.0636
 6053TIP3    H118116   6.270   2.674   6.433  1.5373 -0.0156 -2.2816
 6053TIP3    H218117   6.317   2.816   6.406 -2.0389  1.1006 -3.0598
 6054TIP3   OH218118   1.561   1.727   1.181 -0.0079  0.1580 -0.8218
 6054TIP3    H118119   1.598   1.769   1.259 -1.1510 -0.6404  0.1969
 6054TIP3    H218120   1.552   1.798   1.117  1.3051  0.7577 -0.3824
 6055TIP3   OH218121   2.960   7.534   6.222  0.6726  0.2590 -0.0794
 6055TIP3    H118122   2.866   7.538   6.240  0.7776  0.2156  0.4767
 6055TIP3    H218123   2.992   7.461   6.275  1.1554  0.7740  0.3428
 6056TIP3   OH218124   3.434   1.581   3.836 -0.0738 -0.6418  0.1069
 6056TIP3    H118125   3.374   1.647   3.871  0.7784  0.0961  0.2063
 6056TIP3    H218126   3.401   1.564   3.747 -1.1142 -1.1232  0.5670
 6057TIP3   OH218127   7.040   1.341   4.604  0.7574 -0.4060  0.3898
 6057TIP3    H118128   7.071   1.411   4.547  1.0328 -0.1668  0.8298
 6057TIP3    H218129   6.970   1.381   4.655 -1.0660 -1.2250 -1.3473
 6058TIP3   OH218130   4.343   4.984   3.750  0.0798 -0.3678 -0.3328
 6058TIP3    H118131   4.356   5.039   3.827  0.1858 -0.8479 -0.0063
 6058TIP3    H218132   4.386   5.032   3.679 -1.5403  0.9701 -0.4912
 6059TIP3   OH218133   0.415   1.911   1.456  0.3889 -0.4690  0.0509
 6059TIP3    H118134   0.490   1.905   1.515 -0.1630  1.3622  1.0160
 6059TIP3    H218135   0.339   1.902   1.513 -0.1381 -0.7467 -0.6919
 6060TIP3   OH218136   0.621   6.373   3.361 -0.4914 -0.6114  0.2471
 6060TIP3    H118137   0.611   6.416   3.446  1.6258 -0.8332  0.6801
 6060TIP3    H218138   0.534   6.338   3.341 -1.8013  2.0808  0.8230
 6061TIP3   OH218139   6.833   7.598   2.008  0.0752  0.2588 -0.1287
 6061TIP3    H118140   6.886   7.522   1.985 -1.3897 -0.2180 -2.1998
 6061TIP3    H218141   6.886   7.673   1.982  0.9559 -0.0686  0.6526
 6062TIP3   OH218142   6.200   5.958   6.539 -0.0153  0.1350 -0.4105
 6062TIP3    H118143   6.141   5.893   6.501  0.9910 -0.7604 -0.4597
 6062TIP3    H218144   6.287   5.931   6.512  0.5088  0.9158  0.4382
 6063TIP3   OH218145   5.869   1.297   1.518 -0.4679  0.2497  0.6666
 6063TIP3    H118146   5.949   1.335   1.482 -0.4706 -1.2517 -1.0541
 6063TIP3    H218147   5.882   1.203   1.512 -1.6760 -0.0460  2.0066
 6064TIP3   OH218148   4.011   4.586   0.067  0.2168 -0.2037  0.1555
 6064TIP3    H118149   3.953   4.543   0.130 -1.8301 -0.3788 -1.7635
 6064TIP3    H218150   3.973   4.673   0.054  0.5052 -0.2332 -0.9784
 6065TIP3   OH218151   5.358   5.350   5.148 -0.0807  0.2912 -0.4383
 6065TIP3    H118152   5.382   5.441   5.131  0.7182  0.6666  2.2381
 6065TIP3    H218153   5.264   5.346   5.133 -0.1036  1.5378 -0.6996
 6066TIP3   OH218154   0.228   4.472   0.388 -0.2722  0.1901  0.5436
 6066TIP3    H118155   0.270   4.480   0.474 -0.0789 -2.2540  0.7374
 6066TIP3    H218156   0.155   4.533   0.392 -0.0453  0.4078  2.3012
 6067TIP3   OH218157   4.478   7.457   5.010  0.5030  0.6631 -0.3588
 6067TIP3    H118158   4.407   7.509   5.048  1.1120  1.1441  0.1420
 6067TIP3    H218159   4.533   7.520   4.964  0.4818  0.2596 -0.9537
 6068TIP3   OH218160   3.397   2.104   4.925 -0.0490  0.1771 -0.2228
 6068TIP3    H118161   3.354   2.037   4.977  1.1961 -0.5202 -0.0429
 6068TIP3    H218162   3.345   2.183   4.940 -0.2533 -0.2193  1.3643
 6069TIP3   OH218163   0.525   4.981   3.692 -0.1863  0.1740 -0.1670
 6069TIP3    H118164   0.607   4.963   3.646 -0.0900 -0.6078  0.2932
 6069TIP3    H218165   0.488   4.895   3.711 -1.2525  0.5174 -0.5871
 6070TIP3   OH218166   0.667   1.287   6.442  0.4270  0.1962 -0.3886
 6070TIP3    H118167   0.725   1.363   6.448 -0.0236  0.5575 -0.5756
 6070TIP3    H218168   0.579   1.322   6.456  0.4516 -0.8281  3.4422
 6071TIP3   OH218169   0.731   4.825   2.525 -0.1565  0.1760 -1.0247
 6071TIP3    H118170   0.782   4.886   2.471  1.2097 -0.2066 -0.2174
 6071TIP3    H218171   0.793   4.756   2.549 -0.5819  0.5032  1.3193
 6072TIP3   OH218172   3.615   1.789   5.646 -0.7727 -0.0921  0.2106
 6072TIP3    H118173   3.551   1.787   5.718 -2.3583 -3.6140 -1.0814
 6072TIP3    H218174   3.563   1.802   5.567  0.4190 -0.4539 -0.6714
 6073TIP3   OH218175   3.062   3.890   3.135 -0.0044 -0.2636  0.3810
 6073TIP3    H118176   3.093   3.977   3.160  0.7667 -0.2240 -0.6352
 6073TIP3    H218177   3.079   3.884   3.041 -2.6054 -0.4832 -0.1380
 6074TIP3   OH218178   2.762   3.180   5.396  0.1903  0.0235  0.6366
 6074TIP3    H118179   2.798   3.106   5.347  2.4339 -0.0094  2.1986
 6074TIP3    H218180   2.790   3.257   5.347 -0.4694 -0.0902  0.0702
 6075TIP3   OH218181   7.620   2.660   6.003 -0.3512 -0.2748 -0.5211
 6075TIP3    H118182   7.594   2.633   5.914  1.1337  0.0159 -1.0769
 6075TIP3    H218183   7.715   2.643   6.005 -0.1946  0.7045  0.6597
 6076TIP3   OH218184   6.989   4.158   5.537 -0.1882 -0.2789 -0.5750
 6076TIP3    H118185   6.939   4.239   5.548 -1.4339 -1.1033  0.0514
 6076TIP3    H218186   7.029   4.142   5.623  3.4656  1.7458 -1.6735
 6077TIP3   OH218187   0.452   0.574   4.032 -0.2636  0.0554 -0.2940
 6077TIP3    H118188   0.375   0.593   4.085  1.4130  0.7538  2.0671
 6077TIP3    H218189   0.485   0.491   4.066  0.7232  0.3924 -0.3934
 6078TIP3   OH218190   4.163   4.706   1.161  0.7393  0.0094 -0.0199
 6078TIP3    H118191   4.242   4.663   1.130 -0.5346 -1.0911 -1.9901
 6078TIP3    H218192   4.147   4.776   1.097  0.9203  1.2292  1.2233
 6079TIP3   OH218193   8.149   0.505   5.011  0.1157  0.3628 -0.4056
 6079TIP3    H118194   8.107   0.591   5.020  1.9551  1.4017 -1.1564
 6079TIP3    H218195   8.194   0.491   5.094  0.7446  0.6665 -0.6907
 6080TIP3   OH218196   1.464   0.123   0.008  0.2752  0.4420  0.0957
 6080TIP3    H118197   1.373   0.093   0.012  0.8522 -1.6630 -1.2510
 6080TIP3    H218198   1.463   0.207   0.053 -2.1513  0.0355  0.9476
 6081TIP3   OH218199   2.481   6.901   2.363  0.2421  0.1757  0.3606
 6081TIP3    H118200   2.405   6.897   2.421 -0.8481 -0.2182 -1.0181
 6081TIP3    H218201   2.507   6.993   2.364 -1.8358  0.8620 -1.0040
 6082TIP3   OH218202   5.808   5.335   1.622 -0.0551 -0.3704  0.1385
 6082TIP3    H118203   5.870   5.262   1.622 -0.0661 -0.4330  2.5683
 6082TIP3    H218204   5.755   5.323   1.701  0.3986  2.6406  1.0318
 6083TIP3   OH218205   0.819   3.855   2.515 -0.1504  0.0039 -0.0861
 6083TIP3    H118206   0.761   3.779   2.514  0.9996 -0.9109 -0.0142
 6083TIP3    H218207   0.891   3.830   2.457  1.2143  0.2326  1.4253
 6084TIP3   OH218208   1.092   0.751   3.149 -0.1144  0.5604 -0.0992
 6084TIP3    H118209   1.072   0.842   3.170  1.6111  1.1349 -0.7769
 6084TIP3    H218210   1.162   0.756   3.084  0.1406 -1.2596 -0.0218
 6085TIP3   OH218211   0.932   5.948   1.729 -0.0205  0.4201 -0.3037
 6085TIP3    H118212   0.875   5.898   1.670 -0.3038 -0.3812  0.6221
 6085TIP3    H218213   1.018   5.907   1.719  0.0042  0.4952 -0.4004
 6086TIP3   OH218214   4.145   2.004   4.545  0.0034  0.0575  0.1640
 6086TIP3    H118215   4.233   2.042   4.548 -0.4862  1.2705  3.3457
 6086TIP3    H218216   4.086   2.079   4.554 -1.3158 -0.8570 -0.5598
 6087TIP3   OH218217   0.730   5.798   3.112 -0.0851  0.0728  0.4674
 6087TIP3    H118218   0.713   5.749   3.192  0.4430  0.3104  0.7267
 6087TIP3    H218219   0.786   5.871   3.139  0.6970 -0.2560 -0.2354
 6088TIP3   OH218220   6.585   0.447   0.946 -0.4766  0.1427  0.6684
 6088TIP3    H118221   6.596   0.517   0.881 -0.0809  0.6300  1.2575
 6088TIP3    H218222   6.632   0.477   1.023 -0.5056 -0.6679  1.0181
 6089TIP3   OH218223   7.820   5.698   1.207  0.7845  0.0635 -0.0479
 6089TIP3    H118224   7.793   5.606   1.198 -0.3289  0.4222 -0.5187
 6089TIP3    H218225   7.751   5.748   1.164  0.4124  1.2374  1.7734
 6090TIP3   OH218226   7.797   2.071   3.328 -0.3783  0.3432 -0.0200
 6090TIP3    H118227   7.769   1.982   3.305  1.2263 -0.7112  1.8384
 6090TIP3    H218228   7.779   2.122   3.249 -1.1511 -1.6488 -1.2234
 6091TIP3   OH218229   5.480   3.409   2.430  0.2259 -0.4706 -0.1328
 6091TIP3    H118230   5.454   3.322   2.398 -0.2440  0.5068 -2.5939
 6091TIP3    H218231   5.398   3.459   2.430 -0.0055 -0.5500  3.5366
 6092TIP3   OH218232   8.270   3.673   2.096 -0.0492 -0.2500 -0.3823
 6092TIP3    H118233   8.206   3.638   2.035 -1.9752 -0.0302  1.4050
 6092TIP3    H218234   8.304   3.752   2.053 -2.4064  0.7028 -0.6570
 6093TIP3   OH218235   3.624   1.882   3.576  0.4938  0.1945  0.3326
 6093TIP3    H118236   3.713   1.848   3.563  0.7955  0.3532  1.7689
 6093TIP3    H218237   3.568   1.824   3.525  1.4792  0.5109 -1.1812
 6094TIP3   OH218238   5.518   7.298   5.305  0.8653 -0.4850 -0.2433
 6094TIP3    H118239   5.467   7.312   5.385 -1.0361  0.3657 -1.5173
 6094TIP3    H218240   5.575   7.375   5.299 -0.0962  0.2283 -0.4581
 6095TIP3   OH218241   4.243   0.834   0.930  1.1788  0.1532  1.0007
 6095TIP3    H118242   4.208   0.813   1.017  0.7724  0.5048  0.9256
 6095TIP3    H218243   4.200   0.916   0.906  0.6510 -0.3554  0.1267
 6096TIP3   OH218244   2.955   1.916   1.284 -0.3956  0.1110 -0.1568
 6096TIP3    H118245   2.974   1.829   1.249 -1.1773 -0.1631  0.0663
 6096TIP3    H218246   2.983   1.912   1.375 -0.8666 -0.0697 -0.0157
 6097TIP3   OH218247   6.991   7.341   0.405  0.1519  0.7346 -0.2925
 6097TIP3    H118248   7.041   7.286   0.346  0.4793  1.3653 -0.6102
 6097TIP3    H218249   6.899   7.321   0.385  0.2635  0.1562 -0.2511
 6098TIP3   OH218250   5.128   4.927   2.518 -0.6888  0.0300 -0.5417
 6098TIP3    H118251   5.125   4.872   2.440  0.2995 -1.8884  0.6791
 6098TIP3    H218252   5.215   4.967   2.516  1.2191 -3.4507  1.5970
 6099TIP3   OH218253   1.607   7.343   0.889  0.4935  0.1788  0.0619
 6099TIP3    H118254   1.559   7.292   0.823 -0.9225  0.9620  0.4404
 6099TIP3    H218255   1.693   7.359   0.850  0.0777 -0.3351 -1.1034
 6100TIP3   OH218256   4.539   0.133   1.176  0.0409  0.0392  0.3411
 6100TIP3    H118257   4.529   0.053   1.227  1.4463 -0.5843 -0.3107
 6100TIP3    H218258   4.561   0.200   1.241  0.8968 -0.5461  0.6704
 6101TIP3   OH218259   8.007   2.074   1.009  0.0178  0.0868 -0.0590
 6101TIP3    H118260   8.023   2.031   0.925 -0.6029  0.9241 -0.6162
 6101TIP3    H218261   7.996   2.002   1.071  0.5715 -0.5378 -0.6697
 6102TIP3   OH218262   4.148   0.163   1.685  0.1069  0.2372  0.4031
 6102TIP3    H118263   4.231   0.148   1.730 -0.4242  1.0229  1.7249
 6102TIP3    H218264   4.150   0.256   1.661  0.5068 -0.2367 -1.5260
 6103TIP3   OH218265   3.232   1.416   6.453 -0.1267  0.1651 -0.1965
 6103TIP3    H118266   3.140   1.415   6.429 -0.3774 -0.6593  0.7024
 6103TIP3    H218267   3.255   1.508   6.456 -0.5610  0.3420 -1.7039
 6104TIP3   OH218268   2.665   0.237   2.892  0.0901 -0.3325  0.3584
 6104TIP3    H118269   2.578   0.277   2.889 -0.0658 -0.5848 -3.1781
 6104TIP3    H218270   2.649   0.146   2.918 -0.3383  0.1747  2.0137
 6105TIP3   OH218271   5.657   2.935   3.847 -0.3214  0.5495  0.1581
 6105TIP3    H118272   5.562   2.934   3.852 -0.3117 -0.9400  0.4589
 6105TIP3    H218273   5.686   2.929   3.939  0.0820  1.6777  0.1241
 6106TIP3   OH218274   0.764   0.694   2.268  0.6787  0.2109 -0.1618
 6106TIP3    H118275   0.805   0.685   2.182 -1.4138 -1.2969 -1.0983
 6106TIP3    H218276   0.742   0.604   2.293  0.0870  0.7439  1.3718
 6107TIP3   OH218277   0.851   6.209   2.929  0.0821  0.1244  0.3499
 6107TIP3    H118278   0.822   6.290   2.887  0.4681 -0.6974 -1.6060
 6107TIP3    H218279   0.946   6.218   2.934  0.1547 -0.3018 -0.1431
 6108TIP3   OH218280   0.195   2.664   1.546  0.0852 -0.2004 -0.1602
 6108TIP3    H118281   0.165   2.598   1.607  0.5301 -1.3171 -1.1081
 6108TIP3    H218282   0.286   2.640   1.528  0.0606  0.2851 -1.0016
 6109TIP3   OH218283   0.430   5.545   3.086  0.1154 -0.0502  1.0431
 6109TIP3    H118284   0.378   5.500   3.019 -0.2802  2.8161 -0.7839
 6109TIP3    H218285   0.513   5.499   3.087 -0.5906 -1.4224  0.0236
 6110TIP3   OH218286   3.005   5.734   5.012 -0.5236 -0.9404  0.0411
 6110TIP3    H118287   3.064   5.667   4.977 -0.4876 -1.5198  1.1627
 6110TIP3    H218288   2.991   5.709   5.104  1.4462  1.8809  1.2643
 6111TIP3   OH218289   3.895   3.880   6.600 -0.6802 -0.2039 -0.2649
 6111TIP3    H118290   3.919   3.971   6.614 -0.3479 -0.3013 -0.1995
 6111TIP3    H218291   3.810   3.884   6.556 -0.3578  0.1507 -0.8757
 6112TIP3   OH218292   7.078   5.526   6.371 -0.1371  0.2580 -0.3226
 6112TIP3    H118293   7.056   5.541   6.279  3.6394  1.9637 -1.1417
 6112TIP3    H218294   7.055   5.608   6.415  1.9482  1.1197 -0.7129
 6113TIP3   OH218295   6.508   4.705   0.133  0.0569 -0.1328 -0.5857
 6113TIP3    H118296   6.598   4.717   0.101  0.5595 -1.9144 -0.0015
 6113TIP3    H218297   6.499   4.610   0.143 -1.8034  0.0274 -0.3251
 6114TIP3   OH218298   3.702   2.863   0.712 -0.1273 -0.2794  0.7275
 6114TIP3    H118299   3.680   2.821   0.795 -0.0412 -0.2435  0.7684
 6114TIP3    H218300   3.794   2.841   0.697  0.1101  0.4255  1.0696
 6115TIP3   OH218301   3.846   0.709   5.497  0.3433  0.0716 -0.4929
 6115TIP3    H118302   3.799   0.789   5.522  2.2075  1.7230 -1.8881
 6115TIP3    H218303   3.910   0.696   5.567 -0.5204 -0.7216  0.1614
 6116TIP3   OH218304   6.641   5.184   5.395 -0.0064  0.1289  0.1631
 6116TIP3    H118305   6.651   5.095   5.428  0.3650  0.1021 -0.0143
 6116TIP3    H218306   6.731   5.213   5.376 -0.3032 -0.5135 -2.5335
 6117TIP3   OH218307   1.426   3.596   2.289  0.6397  0.1261 -0.0368
 6117TIP3    H118308   1.391   3.577   2.202  1.9222  0.5945 -0.6723
 6117TIP3    H218309   1.432   3.691   2.293  0.0615  0.1420  0.7928
 6118TIP3   OH218310   6.812   2.572   1.104  0.6143  0.2014 -0.2393
 6118TIP3    H118311   6.781   2.658   1.075 -0.0631 -0.3291 -1.1781
 6118TIP3    H218312   6.836   2.584   1.195 -1.5270  0.8969  0.2963
 6119TIP3   OH218313   1.625   5.870   6.358  0.4569 -0.0317  0.4763
 6119TIP3    H118314   1.682   5.795   6.339  0.0604  0.0401 -1.1668
 6119TIP3    H218315   1.684   5.945   6.354  0.5032 -0.0820  0.1538
 6120TIP3   OH218316   4.674   7.373   2.651 -0.5649  0.3232 -0.4763
 6120TIP3    H118317   4.721   7.441   2.700  1.0622 -0.4946 -0.8428
 6120TIP3    H218318   4.601   7.348   2.708  1.0950 -0.3995  1.4537
 6121TIP3   OH218319   0.609   7.492   1.738  0.0825 -0.2460  0.2909
 6121TIP3    H118320   0.647   7.407   1.761 -0.8988 -2.2867 -4.4648
 6121TIP3    H218321   0.515   7.476   1.736 -0.2253  1.3878  0.6018
 6122TIP3   OH218322   3.296   3.683   2.461 -0.0837 -0.0147 -0.0278
 6122TIP3    H118323   3.364   3.622   2.490  0.2370 -0.3176 -1.3506
 6122TIP3    H218324   3.273   3.654   2.373 -1.0823  0.8105 -0.0614
 6123TIP3   OH218325   4.459   3.975   1.304 -0.2511 -0.0547 -0.3235
 6123TIP3    H118326   4.365   3.991   1.299 -0.0252  1.5732 -0.1356
 6123TIP3    H218327   4.470   3.923   1.384 -1.0794 -1.2772 -0.9797
 6124TIP3   OH218328   0.864   2.963   0.760 -0.8113  0.2665  0.2578
 6124TIP3    H118329   0.854   2.903   0.686 -3.0204 -0.8249  1.3231
 6124TIP3    H218330   0.944   2.935   0.804 -0.6872 -0.5351 -0.4654
 6125TIP3   OH218331   3.564   1.555   0.325  0.0934  0.1461 -0.6309
 6125TIP3    H118332   3.622   1.510   0.386  0.2192 -0.2269 -1.0238
 6125TIP3    H218333   3.476   1.542   0.360 -0.2061 -2.8417 -2.2028
 6126TIP3   OH218334   2.813   4.784   4.863  0.1358 -0.7311  0.1667
 6126TIP3    H118335   2.894   4.739   4.887  0.0695 -2.2770 -2.1284
 6126TIP3    H218336   2.841   4.871   4.835  0.7836 -0.6990  0.8868
 6127TIP3   OH218337   0.120   7.140   0.973  0.0565  0.1349  0.0361
 6127TIP3    H118338   0.209   7.160   1.001 -0.1100 -0.2758  0.8889
 6127TIP3    H218339   0.093   7.217   0.923 -0.6012  2.1879  3.2343
 6128TIP3   OH218340   4.845   2.607   5.887  0.0852  0.2725  0.1557
 6128TIP3    H118341   4.846   2.612   5.791 -0.1568  0.2999  0.1548
 6128TIP3    H218342   4.921   2.657   5.914  1.0182 -0.9620 -0.0849
 6129TIP3   OH218343   3.876   6.738   0.343  0.1441  0.2519 -0.2450
 6129TIP3    H118344   3.894   6.752   0.436 -0.2531 -0.2318 -0.0899
 6129TIP3    H218345   3.946   6.679   0.314 -1.1012 -1.6138  0.3536
 6130TIP3   OH218346   6.091   4.666   0.550 -0.5038 -0.1268 -0.2517
 6130TIP3    H118347   6.181   4.682   0.521 -0.1811 -2.3941 -0.7006
 6130TIP3    H218348   6.065   4.587   0.503 -2.2631 -0.2595  0.8803
 6131TIP3   OH218349   3.686   2.480   3.675 -0.1621 -0.2729  0.1325
 6131TIP3    H118350   3.747   2.445   3.610  1.4689  0.8174  1.0044
 6131TIP3    H218351   3.599   2.458   3.641  0.4848  1.8215 -3.4237
 6132TIP3   OH218352   0.329   2.850   6.335 -0.0060  0.8187  0.5491
 6132TIP3    H118353   0.235   2.867   6.344 -0.6913 -1.3696 -1.4133
 6132TIP3    H218354   0.356   2.903   6.259  0.2506  1.1288  0.8561
 6133TIP3   OH218355   7.248   2.717   6.147 -0.3678  0.0751  0.1475
 6133TIP3    H118356   7.259   2.638   6.200 -0.5417  0.3791  0.6561
 6133TIP3    H218357   7.290   2.697   6.064 -0.3270 -0.5167  0.3027
 6134TIP3   OH218358   2.895   0.128   2.181 -0.6280 -0.5753  0.3111
 6134TIP3    H118359   2.817   0.178   2.208 -0.5298 -0.4421  0.3514
 6134TIP3    H218360   2.881   0.041   2.218 -0.1244 -0.1834  1.4858
 6135TIP3   OH218361   4.396   7.313   6.301 -0.3173 -0.3530  0.3458
 6135TIP3    H118362   4.375   7.320   6.208  1.2271  0.0724  0.0059
 6135TIP3    H218363   4.366   7.225   6.325 -0.3378 -0.6364 -0.6612
 6136TIP3   OH218364   2.240   3.927   5.321 -0.6146 -0.2007 -0.2381
 6136TIP3    H118365   2.192   3.924   5.238 -3.0701 -1.3380  1.1218
 6136TIP3    H218366   2.251   3.835   5.345 -0.9973  0.1294  1.2519
 6137TIP3   OH218367   4.875   0.305   4.261 -0.0938 -0.3950  0.0877
 6137TIP3    H118368   4.949   0.283   4.318 -0.5560 -1.7769  0.1714
 6137TIP3    H218369   4.798   0.276   4.310 -0.5501 -0.9040 -0.9146
 6138TIP3   OH218370   2.436   5.477   2.082 -0.4182  0.2332 -0.5821
 6138TIP3    H118371   2.347   5.470   2.047 -0.9426  0.3039  0.6902
 6138TIP3    H218372   2.472   5.555   2.040 -0.9330  0.1716 -1.1542
 6139TIP3   OH218373   6.390   7.104   3.851 -0.2955 -0.2133 -0.1817
 6139TIP3    H118374   6.421   7.190   3.824 -1.5078  0.3099 -0.0019
 6139TIP3    H218375   6.448   7.042   3.807  1.4160  0.6926  0.7201
 6140TIP3   OH218376   0.383   0.654   2.378  0.4350 -0.2017 -0.1977
 6140TIP3    H118377   0.352   0.734   2.420  0.7023 -0.0535 -0.2795
 6140TIP3    H218378   0.432   0.608   2.446  1.2284  0.2420 -0.4578
 6141TIP3   OH218379   4.432   4.064   5.890  0.1909 -0.5223 -0.3400
 6141TIP3    H118380   4.373   4.099   5.824 -0.7296 -1.9695 -0.3433
 6141TIP3    H218381   4.450   3.974   5.860  0.0563 -1.0796  1.1612
 6142TIP3   OH218382   8.101   1.727   5.050 -0.2385  0.5370 -0.5525
 6142TIP3    H118383   8.163   1.766   5.112 -0.0745  0.2544 -0.5353
 6142TIP3    H218384   8.071   1.647   5.094 -0.7131  0.7360 -0.5039
 6143TIP3   OH218385   4.733   5.380   1.037  0.1114 -0.1372 -0.0605
 6143TIP3    H118386   4.673   5.307   1.025 -0.1705 -0.1270  1.1637
 6143TIP3    H218387   4.677   5.458   1.033  0.2014 -0.0658  0.0647
 6144TIP3   OH218388   6.203   5.578   2.748  0.1730 -0.2231  0.4208
 6144TIP3    H118389   6.132   5.639   2.729  0.3793 -0.6178 -1.9009
 6144TIP3    H218390   6.232   5.602   2.836 -1.8479  0.9004  0.8420
 6145TIP3   OH218391   1.730   6.171   5.588 -0.2104 -0.2585  0.1780
 6145TIP3    H118392   1.742   6.222   5.668  1.0710 -1.3138  0.6869
 6145TIP3    H218393   1.786   6.214   5.523 -0.6798  0.1605  0.0480
 6146TIP3   OH218394   0.408   1.864   6.397  0.6291 -0.3033  0.9574
 6146TIP3    H118395   0.480   1.901   6.448 -0.6775  0.9737  1.9662
 6146TIP3    H218396   0.345   1.936   6.390  0.3158 -0.7647 -1.6350
 6147TIP3   OH218397   1.588   4.879   4.023  0.0737  0.4745 -0.0637
 6147TIP3    H118398   1.516   4.873   4.085  1.0757  1.5165  1.2663
 6147TIP3    H218399   1.661   4.913   4.075  1.4398 -0.2593 -1.4265
 6148TIP3   OH218400   5.653   1.996   4.124  0.7936  0.2207  0.2255
 6148TIP3    H118401   5.670   2.086   4.153  1.0616  1.0981 -2.3490
 6148TIP3    H218402   5.739   1.962   4.100  0.6121 -0.5172  0.6044
 6149TIP3   OH218403   7.741   3.087   5.246 -0.5113  0.1892  0.6699
 6149TIP3    H118404   7.707   3.176   5.257 -1.0986 -0.1828  2.0772
 6149TIP3    H218405   7.829   3.090   5.283 -0.4765  0.2106  0.5867
 6150TIP3   OH218406   5.469   4.738   3.094 -0.3639 -0.0039  0.2937
 6150TIP3    H118407   5.517   4.657   3.114 -0.0025  0.5077  1.5555
 6150TIP3    H218408   5.441   4.771   3.179 -1.1793  0.8059 -0.2736
 6151TIP3   OH218409   1.350   1.901   6.226 -0.1396 -0.2621  0.4328
 6151TIP3    H118410   1.390   1.970   6.173 -1.1623 -0.6122 -0.8392
 6151TIP3    H218411   1.423   1.862   6.274  1.1053 -0.8365 -1.7638
 6152TIP3   OH218412   7.017   4.938   3.291  0.0284 -0.1701  0.1349
 6152TIP3    H118413   7.061   4.864   3.249 -0.7713 -1.0345  0.7524
 6152TIP3    H218414   7.012   5.005   3.223  0.5035 -0.8012 -0.5428
 6153TIP3   OH218415   3.474   4.200   3.622 -0.4083 -0.2409  0.6616
 6153TIP3    H118416   3.527   4.274   3.653 -2.1718  1.3154  0.1092
 6153TIP3    H218417   3.539   4.137   3.590  1.1475  1.6455 -0.1439
 6154TIP3   OH218418   6.501   5.554   5.029  0.0534  0.0096  0.6419
 6154TIP3    H118419   6.430   5.614   5.005  1.6592  1.1976 -1.5885
 6154TIP3    H218420   6.488   5.536   5.121 -2.2893  1.3558  0.6402
 6155TIP3   OH218421   4.263   3.192   6.773  0.2308 -0.0311 -0.5052
 6155TIP3    H118422   4.297   3.153   6.692  0.3901 -0.9452 -0.0139
 6155TIP3    H218423   4.223   3.118   6.820  0.5877  0.3810  0.4782
 6156TIP3   OH218424   3.776   3.364   4.206 -0.0518 -0.0143  0.1684
 6156TIP3    H118425   3.780   3.457   4.228  1.8853  0.1562 -0.6309
 6156TIP3    H218426   3.846   3.352   4.141 -1.7113 -1.5887 -1.4666
 6157TIP3   OH218427   6.181   5.914   6.117  0.6901 -0.0870 -0.2109
 6157TIP3    H118428   6.197   6.006   6.098  0.7019  0.0538  0.4426
 6157TIP3    H218429   6.170   5.873   6.032  1.2892  0.4080 -0.5322
 6158TIP3   OH218430   0.763   6.839   6.394  0.5914  0.2261 -0.0425
 6158TIP3    H118431   0.753   6.788   6.314  0.4780  0.0125  0.1068
 6158TIP3    H218432   0.844   6.889   6.381  0.7804 -0.1020 -0.1295
 6159TIP3   OH218433   4.134   0.261   5.520  0.1138 -0.4462  0.0303
 6159TIP3    H118434   4.189   0.184   5.525  0.2387 -0.3104  0.9487
 6159TIP3    H218435   4.165   0.309   5.443  1.2504 -0.3901  0.5149
 6160TIP3   OH218436   3.906   6.150   1.647  0.4186 -0.1608 -0.3273
 6160TIP3    H118437   3.985   6.200   1.626  0.4442 -0.0696 -0.0227
 6160TIP3    H218438   3.839   6.186   1.589 -0.0926  1.6947  1.3047
 6161TIP3   OH218439   1.370   3.131   0.267  0.3397 -0.3832 -0.7336
 6161TIP3    H118440   1.314   3.119   0.344  0.1370 -0.7580 -0.9354
 6161TIP3    H218441   1.443   3.070   0.281  0.3007 -0.4548 -0.8401
 6162TIP3   OH218442   3.097   6.608   5.372 -0.0167 -1.0356 -0.1855
 6162TIP3    H118443   3.030   6.674   5.353  2.0544  0.7408 -1.8214
 6162TIP3    H218444   3.091   6.594   5.467 -2.2890 -0.5646 -0.2040
 6163TIP3   OH218445   2.281   2.145   1.221  0.1126 -0.3487  1.4565
 6163TIP3    H118446   2.262   2.113   1.133 -1.0410  0.1353  1.5075
 6163TIP3    H218447   2.357   2.202   1.211 -0.0128 -0.3026  0.7747
 6164TIP3   OH218448   0.187   4.251   1.528 -0.7749  0.1245 -0.2482
 6164TIP3    H118449   0.230   4.218   1.449 -1.2638 -1.7555  0.2121
 6164TIP3    H218450   0.102   4.283   1.497  0.3331  2.5708 -0.9499
 6165TIP3   OH218451   5.946   7.638   6.717 -0.0693  0.4562 -0.3459
 6165TIP3    H118452   5.899   7.557   6.700  1.9543 -0.6457 -0.9498
 6165TIP3    H218453   6.038   7.612   6.724  0.4180  2.3830  1.6365
 6166TIP3   OH218454   7.225   5.335   0.692 -0.8470  0.0998 -0.1175
 6166TIP3    H118455   7.240   5.252   0.738 -0.9124  0.7233  1.0534
 6166TIP3    H218456   7.159   5.380   0.744 -0.3314  1.1833 -0.3640
 6167TIP3   OH218457   1.052   6.987   6.744  0.2910  0.6049  0.8644
 6167TIP3    H118458   0.962   6.955   6.753  0.4613 -0.3469 -0.4562
 6167TIP3    H218459   1.105   6.920   6.787  0.4283  0.6521  0.7692
 6168TIP3   OH218460   6.553   1.876   4.754 -0.4011  0.0271 -0.5408
 6168TIP3    H118461   6.594   1.792   4.732 -0.6686 -0.2855  0.1235
 6168TIP3    H218462   6.548   1.875   4.849 -0.2749  0.8659 -0.5253
 6169TIP3   OH218463   3.612   2.475   3.951  0.4645 -0.1990  0.0356
 6169TIP3    H118464   3.577   2.392   3.919 -0.8931  0.6936 -0.9445
 6169TIP3    H218465   3.563   2.493   4.031  0.3573 -0.0752 -0.0574
 6170TIP3   OH218466   1.070   7.652   0.547  0.0242  0.1328  0.1508
 6170TIP3    H118467   0.996   7.623   0.495 -0.8693  1.5602  0.5786
 6170TIP3    H218468   1.069   7.596   0.624  0.5593 -1.1078 -0.7053
 6171TIP3   OH218469   2.509   0.885   1.568 -0.0776  0.4718 -0.6627
 6171TIP3    H118470   2.576   0.945   1.536 -0.0275 -0.5962 -2.7182
 6171TIP3    H218471   2.556   0.802   1.579 -0.7506  0.0875 -0.6771
 6172TIP3   OH218472   0.576   6.927   5.364 -0.0671  0.6732  0.4150
 6172TIP3    H118473   0.549   7.018   5.354  1.2066  1.1614  1.1691
 6172TIP3    H218474   0.504   6.876   5.326 -0.2012  2.0250 -1.2404
 6173TIP3   OH218475   6.832   7.185   6.652  0.0575  0.0632 -0.0960
 6173TIP3    H118476   6.842   7.245   6.726 -1.7856  0.0717  0.1990
 6173TIP3    H218477   6.822   7.099   6.692 -0.4896  0.0083 -0.3341
 6174TIP3   OH218478   5.586   5.244   5.479  0.6754  1.2006 -0.0987
 6174TIP3    H118479   5.635   5.168   5.511 -0.5537  0.8753  1.1420
 6174TIP3    H218480   5.582   5.232   5.384 -1.1881 -1.4004  0.1993
 6175TIP3   OH218481   2.386   0.255   5.534 -0.5096  0.0249  0.6119
 6175TIP3    H118482   2.335   0.260   5.614 -0.5913 -1.4622  0.6936
 6175TIP3    H218483   2.322   0.230   5.467 -0.1811 -0.2526  0.3986
 6176TIP3   OH218484   3.247   6.201   3.693  0.0284  0.0282 -0.2581
 6176TIP3    H118485   3.166   6.202   3.641 -0.6826  0.9203  0.8127
 6176TIP3    H218486   3.317   6.191   3.628 -0.9495 -1.3113 -1.1627
 6177TIP3   OH218487   3.750   7.262   1.522 -0.3464  0.6976  0.5706
 6177TIP3    H118488   3.771   7.276   1.430 -1.9285  2.7466  0.4446
 6177TIP3    H218489   3.684   7.194   1.522 -0.8031  1.1374  0.1162
 6178TIP3   OH218490   7.816   7.501   4.123 -0.1646 -0.3777  0.3091
 6178TIP3    H118491   7.852   7.582   4.160  0.2401  0.0161 -0.9043
 6178TIP3    H218492   7.729   7.526   4.091  0.2171 -0.2462 -0.6500
 6179TIP3   OH218493   5.707   6.861   1.950 -0.4518  0.3206  0.2370
 6179TIP3    H118494   5.634   6.842   2.008 -0.1738  0.9811  0.8154
 6179TIP3    H218495   5.770   6.790   1.966 -1.2160 -0.6269 -0.7444
 6180TIP3   OH218496   7.640   3.074   1.777  0.2091 -0.0774  0.1346
 6180TIP3    H118497   7.696   3.080   1.854  0.5087  0.0822 -0.0980
 6180TIP3    H218498   7.605   2.984   1.780 -0.9518  0.3754  1.2691
 6181TIP3   OH218499   3.858   3.255   1.298 -0.1826 -0.6148  0.2871
 6181TIP3    H118500   3.947   3.259   1.334  0.2561  4.1647 -0.6695
 6181TIP3    H218501   3.831   3.164   1.311  5.4899 -2.9015 -1.0632
 6182TIP3   OH218502   6.126   6.927   5.074  0.0460  0.3677  0.3035
 6182TIP3    H118503   6.134   6.833   5.059  2.2766  0.4921  0.3944
 6182TIP3    H218504   6.151   6.966   4.990 -0.2062  0.8881  0.4704
 6183TIP3   OH218505   1.813   3.054   2.923 -0.1079 -0.4349 -0.1349
 6183TIP3    H118506   1.849   3.049   2.834 -0.6299  0.9233 -0.4480
 6183TIP3    H218507   1.877   3.009   2.978 -0.3878 -2.4726 -1.3555
 6184TIP3   OH218508   7.546   3.584   5.704  0.0137 -0.0740 -0.1500
 6184TIP3    H118509   7.534   3.511   5.643  0.4856  0.6226 -1.0975
 6184TIP3    H218510   7.623   3.559   5.756 -1.3016 -1.3822  1.2595
 6185TIP3   OH218511   8.026   4.681   4.063  0.3804 -0.0292 -0.0417
 6185TIP3    H118512   8.052   4.683   4.155 -0.1854  0.4515  0.1119
 6185TIP3    H218513   8.076   4.609   4.026  1.0004  0.1004  0.5248
 6186TIP3   OH218514   8.095   7.556   2.267 -0.1598  0.2479  0.0829
 6186TIP3    H118515   8.179   7.581   2.305  0.8258 -1.3770 -0.8672
 6186TIP3    H218516   8.113   7.545   2.174 -1.2969 -0.5712 -0.0719
 6187TIP3   OH218517   5.956   2.004   1.933 -0.2940  0.3768 -0.1239
 6187TIP3    H118518   5.920   1.923   1.970  2.2714 -0.7215  0.1924
 6187TIP3    H218519   5.938   1.998   1.839  0.6534 -1.0659 -0.2527
 6188TIP3   OH218520   1.147   1.690   1.216  0.1155  0.6085 -0.2811
 6188TIP3    H118521   1.132   1.774   1.171  0.3546  1.0789  0.4905
 6188TIP3    H218522   1.116   1.624   1.154 -0.8151  1.3085 -0.5917
 6189TIP3   OH218523   3.548   7.703   0.824  0.2125 -0.1312  0.6837
 6189TIP3    H118524   3.539   7.673   0.915 -1.5835 -0.4290  0.4338
 6189TIP3    H218525   3.612   7.643   0.785  1.6410  0.5032  1.9347
 6190TIP3   OH218526   6.241   0.380   5.063  0.4827 -0.8600 -0.2690
 6190TIP3    H118527   6.162   0.355   5.111  0.4513  1.0631  0.7490
 6190TIP3    H218528   6.293   0.429   5.126  1.7417 -0.6649 -1.4220
 6191TIP3   OH218529   6.504   6.435   1.909 -0.3205 -0.9344  0.4229
 6191TIP3    H118530   6.430   6.393   1.866 -0.7656 -0.5030  0.7581
 6191TIP3    H218531   6.486   6.423   2.003  0.0648 -0.8810  0.5032
 6192TIP3   OH218532   6.362   7.488   6.182 -0.5692 -0.2063  0.1384
 6192TIP3    H118533   6.383   7.581   6.184 -0.5554 -0.2070  0.0568
 6192TIP3    H218534   6.293   7.480   6.116 -1.4543 -0.0814  1.0448
 6193TIP3   OH218535   5.804   6.474   0.527 -0.0016  0.1672 -0.0655
 6193TIP3    H118536   5.802   6.408   0.458 -0.6230  0.4499 -0.3255
 6193TIP3    H218537   5.712   6.498   0.540  0.0964  0.0323  0.9438
 6194TIP3   OH218538   4.584   4.807   4.234 -0.4098 -0.2547  0.2654
 6194TIP3    H118539   4.623   4.891   4.209  0.7083 -1.0553 -0.8149
 6194TIP3    H218540   4.613   4.746   4.166 -0.4391 -1.7132  1.5136
 6195TIP3   OH218541   7.498   1.339   4.959 -0.0362  0.0115 -0.1259
 6195TIP3    H118542   7.550   1.261   4.979  1.1086  0.9428  0.6417
 6195TIP3    H218543   7.408   1.308   4.958  0.3257 -1.1628  1.0259
 6196TIP3   OH218544   0.485   0.414   3.498 -0.2287 -0.3348  0.6773
 6196TIP3    H118545   0.509   0.421   3.405 -1.3890  0.2784  0.4127
 6196TIP3    H218546   0.390   0.411   3.498 -0.2195 -1.5849  1.7818
 6197TIP3   OH218547   7.417   3.489   4.293  0.4786 -0.2813  0.1631
 6197TIP3    H118548   7.328   3.522   4.308  0.3831 -0.9018  1.0040
 6197TIP3    H218549   7.456   3.553   4.234 -0.2808  0.3916  0.3698
 6198TIP3   OH218550   4.231   1.147   3.139  0.0719 -0.0251  0.5781
 6198TIP3    H118551   4.163   1.089   3.104 -0.4285  0.5622  0.5711
 6198TIP3    H218552   4.201   1.169   3.227  0.9821 -0.9319  1.1389
 6199TIP3   OH218553   4.589   2.328   0.534  1.3664  0.0280  0.0249
 6199TIP3    H118554   4.638   2.387   0.592 -0.8531  1.0983  0.9524
 6199TIP3    H218555   4.593   2.243   0.579  1.3965  0.3709  0.6940
 6200TIP3   OH218556   7.565   3.984   6.417  0.4848 -0.0762 -0.4185
 6200TIP3    H118557   7.488   3.962   6.366 -0.1689 -0.4999  0.7103
 6200TIP3    H218558   7.585   4.075   6.392 -1.4051  0.6505  0.4916
 6201TIP3   OH218559   8.138   3.145   3.082 -0.1044 -0.1393 -0.4221
 6201TIP3    H118560   8.097   3.059   3.093 -2.5301  0.7966 -1.3892
 6201TIP3    H218561   8.212   3.145   3.143 -0.5045 -2.6107  0.1495
 6202TIP3   OH218562   0.882   0.348   0.613  0.3792  0.7478 -0.1375
 6202TIP3    H118563   0.937   0.423   0.590 -0.2990  1.3228  0.0968
 6202TIP3    H218564   0.811   0.385   0.664  0.2620 -0.1225  0.3428
 6203TIP3   OH218565   1.556   0.746   5.400 -0.2112  0.2233 -0.2916
 6203TIP3    H118566   1.469   0.742   5.441  0.1151  0.6832  0.4603
 6203TIP3    H218567   1.583   0.655   5.392 -1.0718  0.0347 -1.2116
 6204TIP3   OH218568   5.653   1.264   0.643 -0.0427 -0.3724 -0.1818
 6204TIP3    H118569   5.650   1.283   0.549  0.9023 -0.5179 -0.2554
 6204TIP3    H218570   5.743   1.285   0.668 -0.5239  0.5273  0.8841
 6205TIP3   OH218571   5.856   3.190   1.127  0.1058 -0.4399 -0.2782
 6205TIP3    H118572   5.924   3.168   1.190  0.7216 -2.1962 -1.4786
 6205TIP3    H218573   5.778   3.146   1.159  0.4987 -1.6089 -0.8742
 6206TIP3   OH218574   0.369   7.289   2.662  0.8310 -0.0227  0.2275
 6206TIP3    H118575   0.321   7.237   2.726  2.7316 -0.9277  0.9739
 6206TIP3    H218576   0.372   7.234   2.583  1.7365 -0.5362  0.6056
 6207TIP3   OH218577   5.368   0.358   5.938  0.0532 -0.1336  0.4516
 6207TIP3    H118578   5.278   0.328   5.926  0.1330 -0.7522  1.3318
 6207TIP3    H218579   5.417   0.280   5.961  0.8076  0.2145  0.0747
 6208TIP3   OH218580   2.011   6.055   3.925 -0.0240  0.1606 -0.3403
 6208TIP3    H118581   2.099   6.083   3.898  0.4895 -0.5151  0.5901
 6208TIP3    H218582   2.013   6.058   4.021 -1.2563  0.8404 -0.3193
 6209TIP3   OH218583   5.049   1.617   4.238  0.2073 -0.2593  0.2974
 6209TIP3    H118584   5.090   1.533   4.217  0.3448 -0.5080  1.5254
 6209TIP3    H218585   4.963   1.594   4.272 -0.4466  0.1991 -0.9653
 6210TIP3   OH218586   3.391   2.760   2.159 -0.3083  0.1562 -0.0504
 6210TIP3    H118587   3.329   2.818   2.114  0.1767  1.0597  0.4069
 6210TIP3    H218588   3.460   2.819   2.189  0.5815 -0.7820 -0.2297
 6211TIP3   OH218589   5.954   6.771   3.515  0.5419  0.2770  0.8630
 6211TIP3    H118590   5.932   6.695   3.569 -3.2207 -0.8877 -1.9310
 6211TIP3    H218591   5.881   6.831   3.527  1.1315  1.3535 -0.6018
 6212TIP3   OH218592   5.163   0.064   5.070  0.1082 -0.2336  0.4658
 6212TIP3    H118593   5.234   0.010   5.105  0.9200 -0.1637 -1.0183
 6212TIP3    H218594   5.128   0.013   4.998 -0.7115  0.1770  0.5666
 6213TIP3   OH218595   5.164   6.878   1.707  0.0101 -0.2348  0.5151
 6213TIP3    H118596   5.201   6.816   1.645  0.0210  1.1198 -0.9024
 6213TIP3    H218597   5.233   6.944   1.719 -0.7397  0.5993  0.3474
 6214TIP3   OH218598   4.473   5.128   6.447 -0.1177 -0.0040 -0.1813
 6214TIP3    H118599   4.552   5.088   6.411  1.0798  0.6333  1.6233
 6214TIP3    H218600   4.486   5.127   6.542 -0.2616  4.0905  0.0391
 6215TIP3   OH218601   6.735   0.155   0.847 -0.1104  0.5703 -0.0576
 6215TIP3    H118602   6.692   0.100   0.782  0.7664  1.0279 -1.0377
 6215TIP3    H218603   6.664   0.203   0.889 -0.9683 -1.5754  1.1277
 6216TIP3   OH218604   6.470   7.171   1.560  0.7231  0.1721  0.1978
 6216TIP3    H118605   6.415   7.240   1.596  0.8737 -0.3742  1.5394
 6216TIP3    H218606   6.409   7.099   1.542  0.8490 -0.0513  0.6703
 6217TIP3   OH218607   1.971   0.473   1.961 -0.3575 -0.6729  0.2718
 6217TIP3    H118608   2.005   0.432   1.882  1.0383 -0.5394  0.7766
 6217TIP3    H218609   2.039   0.537   1.986 -0.0493 -1.7507  2.3891
 6218TIP3   OH218610   3.489   1.594   4.122 -0.6951  0.0230 -0.1889
 6218TIP3    H118611   3.515   1.577   4.031 -0.6677  1.1717 -0.4076
 6218TIP3    H218612   3.560   1.558   4.174  0.7950  1.9888 -0.7430
 6219TIP3   OH218613   5.777   3.020   4.296  0.1499 -0.3837  0.7762
 6219TIP3    H118614   5.831   3.012   4.375  0.8914 -2.6151  0.1063
 6219TIP3    H218615   5.811   3.098   4.252  0.3604  0.3446  2.1502
 6220TIP3   OH218616   2.005   4.764   5.677 -0.0608  0.0816  0.0540
 6220TIP3    H118617   2.039   4.731   5.594  0.4211  1.7082 -0.4208
 6220TIP3    H218618   1.927   4.814   5.653 -0.5480 -0.3389  0.7167
 6221TIP3   OH218619   0.067   7.638   5.498  0.1717 -0.4144  0.3814
 6221TIP3    H118620   0.113   7.721   5.487  0.2613 -0.5501 -0.2970
 6221TIP3    H218621   0.070   7.596   5.412 -0.4911 -0.8042  0.5322
 6222TIP3   OH218622   4.060   0.172   4.900  0.5572 -0.1840  0.5840
 6222TIP3    H118623   4.079   0.136   4.986  0.8065 -1.9183 -0.1527
 6222TIP3    H218624   3.965   0.183   4.899  0.5002 -0.6059  0.9243
 6223TIP3   OH218625   3.422   3.137   0.569 -0.0009 -0.3720  0.6714
 6223TIP3    H118626   3.486   3.078   0.531  1.6177 -0.0653  2.7687
 6223TIP3    H218627   3.429   3.123   0.663 -2.0884  0.6607  1.0449
 6224TIP3   OH218628  -0.001   5.765   0.225 -0.1222  0.1509 -0.1428
 6224TIP3    H118629   0.045   5.699   0.173 -0.2401 -0.4174  0.4628
 6224TIP3    H218630   0.067   5.804   0.280 -0.3168 -0.5131  0.5714
 6225TIP3   OH218631   7.169   6.280   2.561 -0.1378 -0.2174  0.1738
 6225TIP3    H118632   7.116   6.255   2.485 -1.0494 -1.9863  1.3182
 6225TIP3    H218633   7.255   6.302   2.524  0.1150 -3.0586 -1.2569
 6226TIP3   OH218634   2.474   7.238   3.473  0.3488 -0.2632  0.0117
 6226TIP3    H118635   2.504   7.200   3.390  0.7550  2.0621 -0.9779
 6226TIP3    H218636   2.386   7.271   3.453  0.8475  1.2187  0.1699
 6227TIP3   OH218637   3.914   6.737   2.067 -0.7146  0.2300 -0.6770
 6227TIP3    H118638   3.824   6.707   2.068 -1.1199  1.3752 -0.7725
 6227TIP3    H218639   3.907   6.832   2.057  0.5304  0.2139 -2.1057
 6228TIP3   OH218640   2.147   1.184   4.428 -0.0722 -0.6245 -0.0044
 6228TIP3    H118641   2.136   1.090   4.444 -1.2297 -0.7022 -1.1331
 6228TIP3    H218642   2.233   1.191   4.386 -0.9656 -1.4961 -2.1145
 6229TIP3   OH218643   6.731   7.455   2.698  0.6833 -0.7885  0.5821
 6229TIP3    H118644   6.762   7.544   2.678  0.8963 -0.8937  0.4450
 6229TIP3    H218645   6.809   7.409   2.728  0.6640 -1.0651  0.2005
 6230TIP3   OH218646   4.170   5.851   6.456 -0.1342  0.1312  0.3869
 6230TIP3    H118647   4.190   5.761   6.484  1.5546  0.6422  0.9852
 6230TIP3    H218648   4.080   5.847   6.424 -0.4546 -1.5518  1.3677
 6231TIP3   OH218649   4.000   0.315   0.681 -0.0519 -0.2335  0.5731
 6231TIP3    H118650   4.063   0.376   0.642  0.1769 -0.1125  1.1284
 6231TIP3    H218651   3.923   0.322   0.625  0.9178 -1.5066 -1.0453
 6232TIP3   OH218652   4.036   1.253   4.587  0.5483 -0.4179 -0.8806
 6232TIP3    H118653   4.111   1.311   4.568  1.1579 -1.0137 -0.3332
 6232TIP3    H218654   3.996   1.290   4.665  0.0343  0.1140 -1.3820
 6233TIP3   OH218655   6.630   7.563   6.376 -0.2153 -0.1866 -1.1116
 6233TIP3    H118656   6.580   7.624   6.430  0.7079  0.5443 -1.0659
 6233TIP3    H218657   6.563   7.506   6.337 -0.8988 -0.8072  0.8528
 6234TIP3   OH218658   1.611   3.760   6.104 -0.3127 -0.1393  0.7395
 6234TIP3    H118659   1.602   3.830   6.040  1.8999 -1.3777 -1.0676
 6234TIP3    H218660   1.522   3.728   6.117 -0.8349  0.0114 -1.9370
 6235TIP3   OH218661   1.657   7.761   4.141 -0.7865  0.5334  0.1077
 6235TIP3    H118662   1.601   7.803   4.076 -1.6771  3.8235  2.7124
 6235TIP3    H218663   1.597   7.712   4.197 -0.6755  1.4116  1.0203
 6236TIP3   OH218664   3.989   5.655   1.086 -0.0803 -0.0929 -0.3133
 6236TIP3    H118665   4.014   5.747   1.079 -0.2980 -0.0562 -0.6342
 6236TIP3    H218666   4.050   5.608   1.030  1.1917 -0.3740  1.2361
 6237TIP3   OH218667   0.145   2.539   4.220  0.6181 -0.4183 -0.4652
 6237TIP3    H118668   0.154   2.622   4.174 -0.4755  0.1798  0.3582
 6237TIP3    H218669   0.234   2.519   4.250  0.6536  1.2953  0.7132
 6238TIP3   OH218670   0.567   0.425   3.207 -0.3116 -0.6727  0.0175
 6238TIP3    H118671   0.526   0.345   3.175  1.7293 -1.7931  0.0458
 6238TIP3    H218672   0.630   0.449   3.138  1.3678 -0.9226  1.3933
 6239TIP3   OH218673   8.208   3.134   6.707 -0.0476  0.3322  0.0641
 6239TIP3    H118674   8.245   3.222   6.708  3.0475 -0.7957  2.8365
 6239TIP3    H218675   8.264   3.084   6.649 -1.9914  0.1444 -1.7711
 6240TIP3   OH218676   5.276   7.143   2.569  0.2226 -0.1843 -0.8572
 6240TIP3    H118677   5.232   7.229   2.569 -1.3207 -0.8896  1.1928
 6240TIP3    H218678   5.369   7.164   2.560  0.1654  1.9559  2.0408
 6241TIP3   OH218679   4.926   4.538   2.522  0.5938 -0.2321  0.0258
 6241TIP3    H118680   4.872   4.600   2.571  2.1486  1.1348  0.1225
 6241TIP3    H218681   4.931   4.575   2.433  0.9068 -0.6162 -0.1226
 6242TIP3   OH218682   1.055   2.278   1.583 -0.0445  0.0292 -0.4111
 6242TIP3    H118683   1.043   2.337   1.509  1.6678  0.2586 -0.5504
 6242TIP3    H218684   1.118   2.323   1.640 -2.0863  0.3591  1.7789
 6243TIP3   OH218685   5.564   1.791   2.242  0.1942 -0.2331 -0.2523
 6243TIP3    H118686   5.593   1.859   2.303  2.2468 -0.0271 -1.3783
 6243TIP3    H218687   5.511   1.838   2.178  0.7955  0.1369 -0.4831
 6244TIP3   OH218688   5.189   3.552   3.374  0.2735  0.3240 -0.1508
 6244TIP3    H118689   5.129   3.480   3.355  0.5106  0.0768  0.0274
 6244TIP3    H218690   5.270   3.509   3.403 -0.2713  0.6753  2.0490
 6245TIP3   OH218691   3.835   5.893   3.973  0.5761  1.0189  0.4294
 6245TIP3    H118692   3.780   5.825   4.010 -1.3455  0.8926 -2.3993
 6245TIP3    H218693   3.920   5.850   3.959 -0.3118 -0.5403 -0.4132
 6246TIP3   OH218694   2.502   1.712   2.339  0.2488  0.5876  0.0217
 6246TIP3    H118695   2.421   1.761   2.355 -0.3431  0.0613 -1.2283
 6246TIP3    H218696   2.486   1.666   2.256  0.6506 -1.9505  1.2463
 6247TIP3   OH218697   1.962   5.817   6.376 -0.0666  0.4309 -0.6498
 6247TIP3    H118698   2.010   5.818   6.294 -1.3420 -2.3504 -1.5362
 6247TIP3    H218699   2.002   5.747   6.427 -0.0614  1.3360  0.6543
 6248TIP3   OH218700   3.300   5.175   3.906 -0.0016  0.1814  0.2756
 6248TIP3    H118701   3.344   5.126   3.976 -1.5697 -0.9026  0.5508
 6248TIP3    H218702   3.237   5.114   3.870  0.0595  1.0600 -1.4374
 6249TIP3   OH218703   3.509   6.727   0.548 -0.4246 -0.1947 -0.2730
 6249TIP3    H118704   3.568   6.657   0.519  0.1187 -0.0874  0.5657
 6249TIP3    H218705   3.509   6.790   0.475 -2.0258 -1.6838 -1.6819
 6250TIP3   OH218706   7.299   3.429   3.534 -0.2323  0.4151  0.3672
 6250TIP3    H118707   7.357   3.484   3.482  1.9526  0.4215  2.6159
 6250TIP3    H218708   7.325   3.339   3.513  0.9484  0.4218  1.6427
 6251TIP3   OH218709   1.986   2.919   0.322  0.2455 -0.2452 -0.4151
 6251TIP3    H118710   1.919   2.861   0.358  1.0624 -0.9543  0.0218
 6251TIP3    H218711   1.945   2.960   0.246  0.4490 -3.4976 -2.5113
 6252TIP3   OH218712   4.230   6.979   2.284  0.2718  0.9927  0.1689
 6252TIP3    H118713   4.303   7.010   2.337  0.5864  0.8916 -0.2005
 6252TIP3    H218714   4.255   6.890   2.258 -0.8581  0.1700  1.6748
 6253TIP3   OH218715   6.467   4.130   2.545  0.7920 -0.0834 -0.2423
 6253TIP3    H118716   6.424   4.072   2.482 -0.1802 -0.6936  0.9443
 6253TIP3    H218717   6.396   4.177   2.588  1.4762  0.7861 -0.0230
 6254TIP3   OH218718   8.119   1.406   2.044 -0.0638  0.3541 -0.6818
 6254TIP3    H118719   8.128   1.311   2.034 -0.8962  0.1283  0.5616
 6254TIP3    H218720   8.102   1.437   1.955  1.6273 -0.4647 -1.3392
 6255TIP3   OH218721   1.229   5.035   4.545  0.9270  0.0642  0.4986
 6255TIP3    H118722   1.306   5.070   4.590  1.7097 -1.2514  0.2372
 6255TIP3    H218723   1.229   5.079   4.460  2.0529 -0.7104  0.0658
 6256TIP3   OH218724   4.311   6.325   4.362 -0.4036 -0.1145 -0.1026
 6256TIP3    H118725   4.353   6.298   4.280 -2.1489 -0.9507 -0.7783
 6256TIP3    H218726   4.267   6.246   4.394  2.1719 -0.4922  2.9881
 6257TIP3   OH218727   2.275   7.099   4.532  0.1206  0.2156 -0.0940
 6257TIP3    H118728   2.326   7.052   4.598 -1.0440 -1.2732 -0.1978
 6257TIP3    H218729   2.269   7.038   4.458 -0.0937  1.1600 -0.8716
 6258TIP3   OH218730   6.091   4.526   1.539  0.4906  0.2841  0.1336
 6258TIP3    H118731   6.131   4.473   1.608 -1.7367  1.7087  2.7349
 6258TIP3    H218732   6.023   4.471   1.502  0.0381  0.3309  0.8728
 6259TIP3   OH218733   3.640   6.164   4.180 -0.2480 -0.4939  0.5894
 6259TIP3    H118734   3.712   6.221   4.209  0.8052 -0.5497 -1.6527
 6259TIP3    H218735   3.653   6.082   4.228 -0.3776  0.3428  2.1062
 6260TIP3   OH218736   4.052   5.206   2.415  0.0134 -0.1792  0.3655
 6260TIP3    H118737   3.968   5.160   2.410  0.2916 -0.6005 -0.8817
 6260TIP3    H218738   4.067   5.238   2.326  1.2407 -0.2486  0.5338
 6261TIP3   OH218739   3.079   6.318   6.263 -0.1170 -0.0132 -0.3142
 6261TIP3    H118740   3.074   6.352   6.353 -0.0306 -1.1837  0.1522
 6261TIP3    H218741   3.054   6.226   6.271 -3.2490  0.5508 -1.9403
 6262TIP3   OH218742   4.199   6.830   1.914 -0.2803  0.0344 -0.0750
 6262TIP3    H118743   4.127   6.847   1.853 -0.0855  1.0605 -0.0282
 6262TIP3    H218744   4.232   6.744   1.888 -0.4286  0.2968 -1.1922
 6263TIP3   OH218745   2.415   4.840   5.146 -0.4139 -0.1097  0.1900
 6263TIP3    H118746   2.391   4.861   5.237 -1.2320  0.2714 -0.1079
 6263TIP3    H218747   2.338   4.863   5.095  0.9171  2.2100 -0.9500
 6264TIP3   OH218748   7.821   3.725   6.261 -0.4566 -0.2990  0.5950
 6264TIP3    H118749   7.832   3.634   6.286 -0.5772 -0.5486 -0.2344
 6264TIP3    H218750   7.738   3.727   6.213 -0.1274  0.1270  0.0355
 6265TIP3   OH218751   3.168   0.488   2.495  0.3667 -0.1598  0.1498
 6265TIP3    H118752   3.131   0.402   2.476 -0.7358  0.9785 -3.4980
 6265TIP3    H218753   3.256   0.484   2.459  1.1007 -0.3155  1.8325
 6266TIP3   OH218754   1.273   4.986   3.709  0.2272  0.1784 -0.3239
 6266TIP3    H118755   1.300   4.895   3.719 -0.0717  0.1121 -0.1023
 6266TIP3    H218756   1.178   4.981   3.695  0.2745  0.4273 -0.7301
 6267TIP3   OH218757   6.514   7.310   3.061 -0.2431 -0.1693  0.8238
 6267TIP3    H118758   6.461   7.390   3.064 -0.4092 -0.2396 -0.0194
 6267TIP3    H218759   6.602   7.338   3.085  0.4520  0.9246 -2.4980
 6268TIP3   OH218760   3.162   6.098   1.981  0.2187 -0.3687  0.4247
 6268TIP3    H118761   3.193   6.011   1.958  0.0250 -0.0567 -1.1181
 6268TIP3    H218762   3.242   6.150   1.990  0.3279 -0.6593  1.2314
 6269TIP3   OH218763   1.240   2.622   2.233  0.6079  0.5446  0.3391
 6269TIP3    H118764   1.258   2.715   2.247 -0.3931  0.7026  0.6819
 6269TIP3    H218765   1.221   2.589   2.321 -2.1600  0.7290 -0.0989
 6270TIP3   OH218766   4.146   3.448   1.770 -0.2762  0.2863  0.0529
 6270TIP3    H118767   4.185   3.533   1.753  0.2687 -0.0786 -0.6202
 6270TIP3    H218768   4.065   3.448   1.719 -1.0244  0.9299  1.2079
 6271TIP3   OH218769   2.958   2.447   3.369 -0.5640 -0.5575  0.0961
 6271TIP3    H118770   2.908   2.527   3.354 -0.9260 -0.7582  0.2128
 6271TIP3    H218771   2.928   2.388   3.300  1.1895  0.0736 -1.2980
 6272TIP3   OH218772   2.085   6.508   1.242  0.1171  0.0122 -0.0856
 6272TIP3    H118773   2.045   6.427   1.211  0.2645  0.6635 -2.1454
 6272TIP3    H218774   2.014   6.572   1.242  0.5189  0.4785 -0.9727
 6273TIP3   OH218775   1.062   0.917   6.186  0.4862 -0.5663  0.4713
 6273TIP3    H118776   1.065   0.986   6.120  2.3710 -0.8584  0.1948
 6273TIP3    H218777   1.129   0.854   6.158  1.5311 -0.5798  2.7544
 6274TIP3   OH218778   5.951   6.500   6.230  0.2931  0.1598  0.0321
 6274TIP3    H118779   6.024   6.492   6.168 -0.3336  1.5010 -0.9347
 6274TIP3    H218780   5.975   6.574   6.286  0.1936 -0.1341  0.4723
 6275TIP3   OH218781   6.510   2.130   5.972 -0.0642 -0.4772 -0.0842
 6275TIP3    H118782   6.457   2.187   6.027 -1.0789 -1.1851 -0.3000
 6275TIP3    H218783   6.569   2.189   5.925 -2.2963  0.6441 -1.6584
 6276TIP3   OH218784   3.947   2.642   1.862  0.1423 -0.5905  0.7058
 6276TIP3    H118785   3.966   2.681   1.947 -0.3127  0.5007  0.3221
 6276TIP3    H218786   3.971   2.709   1.799  2.3258 -2.0920 -0.1778
 6277TIP3   OH218787   3.619   3.997   2.400 -0.3136 -0.0044  0.5686
 6277TIP3    H118788   3.714   3.996   2.413 -0.0109 -0.5275 -1.4088
 6277TIP3    H218789   3.588   3.920   2.448  0.5401 -1.0352 -0.4839
 6278TIP3   OH218790   1.062   1.056   2.765  0.4134  0.3238  0.0089
 6278TIP3    H118791   1.143   1.063   2.815  1.0411  0.3180 -0.9715
 6278TIP3    H218792   1.045   1.145   2.734 -0.3239  0.4520  0.7522
 6279TIP3   OH218793   6.330   0.899   4.963 -0.5111 -0.2332 -0.9298
 6279TIP3    H118794   6.341   0.862   4.875 -1.5996 -0.7566 -0.8551
 6279TIP3    H218795   6.323   0.823   5.021 -0.5950  0.1067 -0.4853
 6280TIP3   OH218796   1.550   6.957   3.385 -0.0283  0.5801 -0.4362
 6280TIP3    H118797   1.466   6.913   3.371  0.8095 -1.7706  1.2777
 6280TIP3    H218798   1.578   6.928   3.472  1.6892  2.8339 -0.1324
 6281TIP3   OH218799   0.131   2.757   0.106  0.1339  0.0016  0.1487
 6281TIP3    H118800   0.153   2.664   0.102 -0.1555 -0.0693  0.1184
 6281TIP3    H218801   0.045   2.762   0.064  0.4626  0.3871 -0.4902
 6282TIP3   OH218802   6.194   7.794   1.345  0.5778  0.4855  0.0747
 6282TIP3    H118803   6.248   7.799   1.423  0.0737  0.0840  0.4593
 6282TIP3    H218804   6.245   7.839   1.277  1.0285  0.8164  0.6234
 6283TIP3   OH218805   5.420   6.232   4.269  0.5443 -0.3452 -0.0280
 6283TIP3    H118806   5.476   6.246   4.345 -0.2903 -1.1355  0.7556
 6283TIP3    H218807   5.349   6.175   4.301  0.6988 -1.4993 -1.6170
 6284TIP3   OH218808   2.008   3.922   2.695  0.7556  0.2779 -0.0382
 6284TIP3    H118809   2.028   4.014   2.713  0.8801  0.2474 -0.0212
 6284TIP3    H218810   1.965   3.891   2.775 -1.1631  0.8713 -0.7828
 6285TIP3   OH218811   1.537   0.301   2.471 -0.0960  0.0128  0.0324
 6285TIP3    H118812   1.539   0.301   2.566  0.0472 -0.4294  0.0301
 6285TIP3    H218813   1.449   0.332   2.449 -0.8842 -1.8663  0.3367
 6286TIP3   OH218814   3.461   0.108   5.041 -0.0634 -0.1628 -0.0844
 6286TIP3    H118815   3.374   0.096   5.003 -0.4042  1.9828 -0.0964
 6286TIP3    H218816   3.517   0.048   4.992 -1.3309 -0.8149 -0.7972
 6287TIP3   OH218817   6.413   5.097   4.194  0.1322  0.5131  0.5107
 6287TIP3    H118818   6.344   5.108   4.260  2.5730  0.2733  3.2896
 6287TIP3    H218819   6.451   5.011   4.213  0.7881  0.3200 -1.4131
 6288TIP3   OH218820   1.152   3.741   4.897  0.2180  0.2711 -0.4405
 6288TIP3    H118821   1.205   3.664   4.874  0.2425  0.4024 -0.8342
 6288TIP3    H218822   1.112   3.719   4.981  0.4052 -0.0813 -0.4434
 6289TIP3   OH218823   3.081   0.156   5.003 -0.6252  0.4126 -0.2277
 6289TIP3    H118824   2.992   0.188   5.016 -1.4940 -1.1946 -1.8500
 6289TIP3    H218825   3.090   0.147   4.909  0.2714 -2.1182  0.0412
 6290TIP3   OH218826   4.368   5.735   4.251  0.6422  0.1986 -0.1059
 6290TIP3    H118827   4.404   5.647   4.262  0.2786  0.0715  0.0725
 6290TIP3    H218828   4.413   5.787   4.318 -0.1205 -0.1470  0.6872
 6291TIP3   OH218829   1.972   2.993   2.706  0.3315  0.2025  0.4862
 6291TIP3    H118830   1.922   2.992   2.624 -0.9797  2.7007  1.1371
 6291TIP3    H218831   2.063   3.000   2.679 -0.1568  2.4706 -0.8519
 6292TIP3   OH218832   0.247   1.011   1.463  0.2591 -0.3061 -1.0006
 6292TIP3    H118833   0.257   1.019   1.368 -2.1716  2.7376 -1.1619
 6292TIP3    H218834   0.195   0.931   1.475  0.6355 -0.7500 -2.2014
 6293TIP3   OH218835   4.981   6.800   2.912  0.0574 -0.2567  0.4259
 6293TIP3    H118836   4.955   6.794   2.820  2.7444  0.1538 -0.4494
 6293TIP3    H218837   5.013   6.713   2.934 -1.2722 -0.5661  1.2606
 6294TIP3   OH218838   2.708   1.077   5.385 -0.0219 -0.3955 -0.6990
 6294TIP3    H118839   2.621   1.058   5.419 -0.7263 -1.2650 -2.8213
 6294TIP3    H218840   2.692   1.134   5.309  1.5381  2.3910  0.9011
 6295TIP3   OH218841   3.814   4.791   5.114  0.0042  0.1478 -0.1280
 6295TIP3    H118842   3.773   4.845   5.046  0.5313  1.9333  0.9155
 6295TIP3    H218843   3.749   4.725   5.135 -1.2586  1.2604 -0.4432
 6296TIP3   OH218844   7.876   4.070   6.769  0.7106 -0.0572 -0.0033
 6296TIP3    H118845   7.804   4.078   6.706  0.6711 -0.0479  0.0431
 6296TIP3    H218846   7.860   3.987   6.814  0.0115  0.5447  0.9004
 6297TIP3   OH218847   4.718   5.095   4.167  0.1320  0.0678 -0.1324
 6297TIP3    H118848   4.726   5.189   4.150 -1.3017 -0.0474 -1.7020
 6297TIP3    H218849   4.790   5.056   4.117  0.8884  0.3377  0.7326
 6298TIP3   OH218850   6.226   6.994   0.822 -0.3489 -0.1624  0.8322
 6298TIP3    H118851   6.242   7.015   0.914  1.0689 -1.1612  0.8352
 6298TIP3    H218852   6.298   7.035   0.774 -0.8289 -0.0358  0.1961
 6299TIP3   OH218853   0.848   0.665   2.575  0.1698 -0.1129 -0.2723
 6299TIP3    H118854   0.855   0.591   2.635 -1.0006  0.1015  0.1530
 6299TIP3    H218855   0.835   0.741   2.632 -0.5065  0.1482 -0.7551
 6300TIP3   OH218856   2.845   3.421   6.200 -0.3945  0.0671 -0.6653
 6300TIP3    H118857   2.784   3.493   6.185 -0.2249  0.7638  1.6865
 6300TIP3    H218858   2.794   3.356   6.249  0.8508  0.9739  1.9834
 6301TIP3   OH218859   1.554   0.199   6.026  0.1766  0.1148 -0.1239
 6301TIP3    H118860   1.498   0.205   5.949 -0.2594 -3.7497 -0.3280
 6301TIP3    H218861   1.493   0.190   6.100  0.4652 -1.7450 -0.0670
 6302TIP3   OH218862   6.537   5.099   1.430  0.2833  0.3242  0.1533
 6302TIP3    H118863   6.556   5.025   1.488  3.4868  0.3715 -0.6032
 6302TIP3    H218864   6.617   5.152   1.432 -1.2817  2.8997 -0.6401
 6303TIP3   OH218865   5.748   4.006   0.695  0.7186  0.0730  0.1526
 6303TIP3    H118866   5.803   3.981   0.620  4.4491  1.9005  2.0131
 6303TIP3    H218867   5.750   3.929   0.752 -0.1285 -0.4774 -0.5475
 6304TIP3   OH218868   0.241   1.676   6.488  0.2878  0.0365 -0.1813
 6304TIP3    H118869   0.313   1.727   6.450 -0.1631  2.6524  2.1063
 6304TIP3    H218870   0.167   1.694   6.430  0.5140  0.7594 -0.2656
 6305TIP3   OH218871   0.448   6.633   3.885 -0.1485  0.9786 -0.1458
 6305TIP3    H118872   0.390   6.574   3.932  0.6962  1.6461  1.8210
 6305TIP3    H218873   0.390   6.686   3.830 -1.2404  0.5994  0.6139
 6306TIP3   OH218874   4.128   0.439   1.604  0.0497  0.7637 -0.4505
 6306TIP3    H118875   4.057   0.502   1.608 -2.4886 -1.8909 -0.5702
 6306TIP3    H218876   4.149   0.431   1.511  1.0224  2.0230 -0.3612
 6307TIP3   OH218877   6.905   1.906   4.723 -0.2945  0.1172  0.5039
 6307TIP3    H118878   6.845   1.858   4.667 -0.3991  2.1845 -1.3217
 6307TIP3    H218879   6.982   1.920   4.668  1.1279 -0.8660  2.1607
 6308TIP3   OH218880   0.058   6.002   1.077 -0.0224  0.1460 -0.1176
 6308TIP3    H118881   0.072   5.909   1.061 -1.9939 -0.2623  0.3735
 6308TIP3    H218882   0.019   6.035   0.996  0.3586  0.4816 -0.1678
 6309TIP3   OH218883   6.956   3.807   0.811  0.0859  0.1496  0.5119
 6309TIP3    H118884   6.914   3.784   0.894 -1.0757  2.7388  0.7439
 6309TIP3    H218885   7.041   3.764   0.814 -1.0380 -2.1565  1.7389
 6310TIP3   OH218886   5.919   4.730   1.570 -0.3582  0.4517  0.2395
 6310TIP3    H118887   5.994   4.672   1.568 -0.3318  0.4959 -0.0466
 6310TIP3    H218888   5.945   4.806   1.518 -0.2530  0.8878  0.9184
 6311TIP3   OH218889   4.523   0.220   3.398  0.7360  0.3089  0.2776
 6311TIP3    H118890   4.558   0.133   3.417  0.9634  0.8869  2.9152
 6311TIP3    H218891   4.432   0.217   3.428  0.9444  1.1500  1.0363
 6312TIP3   OH218892   1.728   2.442   0.002  0.5580 -0.0879 -0.3483
 6312TIP3    H118893   1.782   2.442   0.081 -0.6557 -0.8358  0.5188
 6312TIP3    H218894   1.756   2.364  -0.045  0.9348  0.0803 -0.4055
 6313TIP3   OH218895   4.092   3.930   5.617  0.1102 -0.4097  0.0695
 6313TIP3    H118896   4.015   3.978   5.586  0.9960 -0.0750 -1.7830
 6313TIP3    H218897   4.101   3.857   5.556  1.7815  0.0974 -0.3431
 6314TIP3   OH218898   4.176   6.135   5.053  0.2056 -0.0624  0.4621
 6314TIP3    H118899   4.199   6.183   4.973 -0.3516  1.6664  1.2982
 6314TIP3    H218900   4.243   6.161   5.116  0.2538 -0.9017  0.7696
 6315TIP3   OH218901   1.449   3.691   5.729  0.1267  0.0558 -0.3659
 6315TIP3    H118902   1.490   3.778   5.731 -1.0580  0.6363 -0.2347
 6315TIP3    H218903   1.522   3.630   5.728  0.9959  1.0189  1.1218
 6316TIP3   OH218904   3.154   5.782   0.848 -0.0775  0.4246 -0.4914
 6316TIP3    H118905   3.157   5.862   0.795  0.4503  0.3544 -0.5811
 6316TIP3    H218906   3.132   5.713   0.786  1.4203  0.2024 -0.8206
 6317TIP3   OH218907   4.379   4.611   2.268  0.0668  0.6659  0.2344
 6317TIP3    H118908   4.295   4.564   2.265  1.7800 -2.9122  2.1977
 6317TIP3    H218909   4.387   4.641   2.359  0.4797  1.9338 -0.2010
 6318TIP3   OH218910   7.224   3.985   0.996  0.4629  0.0534 -0.0146
 6318TIP3    H118911   7.255   3.899   0.968 -1.1470 -0.8209  0.7321
 6318TIP3    H218912   7.144   3.999   0.946 -0.5667  0.0257  1.5449
 6319TIP3   OH218913   5.063   5.010   5.881 -0.1247  0.1000  0.0048
 6319TIP3    H118914   5.090   4.928   5.839  0.6799  0.8307 -0.9505
 6319TIP3    H218915   5.004   5.051   5.817 -0.0916  0.5175  0.2432
 6320TIP3   OH218916   1.587   3.369   3.991 -0.0103  0.6536 -0.4108
 6320TIP3    H118917   1.562   3.417   4.071  0.9598  1.9861 -0.8827
 6320TIP3    H218918   1.505   3.331   3.960 -0.2833 -0.6768  1.6914
 6321TIP3   OH218919   4.845   5.942   4.738 -0.1130 -0.0168 -0.3700
 6321TIP3    H118920   4.762   5.965   4.696 -0.5354 -1.4718 -0.4122
 6321TIP3    H218921   4.820   5.912   4.825  0.6077  1.5083  0.3923
 6322TIP3   OH218922   1.374   1.532   1.346  0.0995 -0.4115 -0.4206
 6322TIP3    H118923   1.295   1.557   1.299  0.0855 -1.3053 -0.8888
 6322TIP3    H218924   1.434   1.606   1.334  0.1133 -0.6420 -1.8878
 6323TIP3   OH218925   4.391   4.539   2.877  0.4770 -0.4820  0.1670
 6323TIP3    H118926   4.300   4.562   2.853  0.9273  1.2294 -0.0820
 6323TIP3    H218927   4.443   4.569   2.802  1.4078  0.1267  1.0353
 6324TIP3   OH218928   1.251   5.735   1.146  0.4586  0.2665  0.2729
 6324TIP3    H118929   1.271   5.828   1.141 -0.7942  0.5249 -0.0615
 6324TIP3    H218930   1.175   5.729   1.203 -1.0646 -0.2861 -1.7011
 6325TIP3   OH218931   0.530   4.657   1.906  0.1377  0.2837  0.7031
 6325TIP3    H118932   0.473   4.715   1.855 -1.9992 -0.7488  1.7871
 6325TIP3    H218933   0.512   4.679   1.997  1.6839  0.0657  1.0919
 6326TIP3   OH218934   8.085   1.255   0.616  0.4364 -0.2748  0.2117
 6326TIP3    H118935   8.044   1.176   0.582  0.5965 -0.0842 -0.4349
 6326TIP3    H218936   8.130   1.226   0.696  1.8094 -1.1843 -0.8420
 6327TIP3   OH218937   6.656   3.983   6.556  0.4050 -0.1357  0.7246
 6327TIP3    H118938   6.625   3.964   6.644  1.8272  2.1812  1.8063
 6327TIP3    H218939   6.577   4.011   6.509 -0.5855 -2.4983  0.8301
 6328TIP3   OH218940   5.342   3.859   4.403 -0.4853  0.4264 -0.5387
 6328TIP3    H118941   5.331   3.820   4.317  0.9818 -0.0355 -0.5426
 6328TIP3    H218942   5.411   3.808   4.444  1.1038  2.6127 -0.3170
 6329TIP3   OH218943   2.779   1.267   2.863  0.2714  0.1481  0.2758
 6329TIP3    H118944   2.845   1.322   2.906  0.6346  0.8164 -1.0757
 6329TIP3    H218945   2.829   1.193   2.828 -0.2630 -1.3061  2.3941
 6330TIP3   OH218946   0.142   0.912   3.799 -0.4946 -0.1821 -0.0731
 6330TIP3    H118947   0.232   0.938   3.781 -1.5715  1.3403 -4.5284
 6330TIP3    H218948   0.096   0.995   3.815 -0.9874 -1.0401  3.8674
 6331TIP3   OH218949   7.009   0.796   4.021 -0.1105  0.0049  0.1663
 6331TIP3    H118950   6.965   0.730   3.967 -0.3744  0.3707 -0.0705
 6331TIP3    H218951   6.956   0.875   4.011 -1.0971 -0.3356  2.2539
 6332TIP3   OH218952   4.568   6.881   6.177 -0.1795  0.2623 -0.4742
 6332TIP3    H118953   4.539   6.940   6.246  0.0808 -1.1117  0.8731
 6332TIP3    H218954   4.531   6.918   6.096 -0.1141  2.1486  0.3119
 6333TIP3   OH218955   1.099   1.103   5.983 -0.0340  0.5496 -0.4847
 6333TIP3    H118956   1.192   1.106   5.961 -0.3193 -1.1598 -2.2576
 6333TIP3    H218957   1.065   1.187   5.952  0.4382  0.0220 -2.5995
 6334TIP3   OH218958   6.362   5.574   5.849  0.5618  0.6150  0.3183
 6334TIP3    H118959   6.300   5.515   5.891  1.3172 -0.6617 -0.2912
 6334TIP3    H218960   6.404   5.520   5.781  1.7028  1.6894  0.1335
 6335TIP3   OH218961   7.151   4.433   1.860 -0.0022 -0.2368  0.0336
 6335TIP3    H118962   7.145   4.353   1.808  0.3847  0.3511 -0.9322
 6335TIP3    H218963   7.144   4.504   1.796 -1.2732  0.5219  0.9706
 6336TIP3   OH218964   7.924   7.444   0.815  0.0432 -0.0229  0.0457
 6336TIP3    H118965   7.994   7.455   0.751 -0.3340  0.3498 -0.3004
 6336TIP3    H218966   7.898   7.533   0.838  0.9087 -0.1221  1.5355
 6337TIP3   OH218967   0.277   4.037   2.726  0.5626 -0.2098 -0.2740
 6337TIP3    H118968   0.243   4.040   2.636  0.8559 -1.1051 -0.4321
 6337TIP3    H218969   0.312   4.124   2.742 -0.8844  0.4420 -0.4688
 6338TIP3   OH218970   3.044   2.516   4.870  0.4043  0.0317 -0.1330
 6338TIP3    H118971   2.972   2.563   4.826  1.1377 -0.0235 -1.4357
 6338TIP3    H218972   3.039   2.545   4.961 -1.7371 -0.5553 -0.0138
 6339TIP3   OH218973   2.670   6.860   3.950  0.3273 -0.2423 -0.8036
 6339TIP3    H118974   2.708   6.913   3.880  0.0547 -1.6147 -2.0685
 6339TIP3    H218975   2.644   6.922   4.017  1.9476  1.0044 -1.2651
 6340TIP3   OH218976   5.593   2.142   3.020  0.7133  0.0698  0.3041
 6340TIP3    H118977   5.654   2.194   2.968  0.7470 -0.6288 -0.3654
 6340TIP3    H218978   5.507   2.165   2.986  0.6506  0.4720  0.7238
 6341TIP3   OH218979   6.473   6.985   5.134 -0.2290  0.0761  0.2831
 6341TIP3    H118980   6.389   6.981   5.088 -0.1267  3.9749 -0.6195
 6341TIP3    H218981   6.538   6.965   5.067 -0.3298  0.0565  0.1901
 6342TIP3   OH218982   1.891   1.509   3.400 -0.0304 -0.2483 -0.6891
 6342TIP3    H118983   1.942   1.434   3.369 -0.8608 -0.1721 -2.2933
 6342TIP3    H218984   1.828   1.471   3.461  1.6727 -0.3800  1.1173
 6343TIP3   OH218985   7.317   4.966   2.948  0.1082 -0.0463 -0.5454
 6343TIP3    H118986   7.288   4.995   3.034  1.3045 -0.2907 -0.0439
 6343TIP3    H218987   7.307   5.043   2.892 -0.9994  0.0166 -0.2776
 6344TIP3   OH218988   4.364   3.224   3.203  0.1262 -0.1638 -0.1448
 6344TIP3    H118989   4.457   3.236   3.184 -0.0854 -0.6824 -1.5932
 6344TIP3    H218990   4.361   3.150   3.263  0.6829  0.3660  0.5642
 6345TIP3   OH218991   7.949   6.991   6.023 -0.3584  0.6631 -0.3459
 6345TIP3    H118992   8.014   7.026   6.084  2.9489 -0.4979 -2.8587
 6345TIP3    H218993   7.967   7.037   5.941 -2.2739 -0.2623 -1.3543
 6346TIP3   OH218994   5.156   5.172   6.056 -0.4539 -0.3941 -0.2063
 6346TIP3    H118995   5.127   5.103   5.996 -2.4991  0.4235 -0.2416
 6346TIP3    H218996   5.148   5.253   6.005 -1.7911  0.2615  0.9650
 6347TIP3   OH218997   7.724   2.572   3.536 -0.5142 -0.5162 -0.2151
 6347TIP3    H118998   7.679   2.631   3.476  1.4006  0.4900 -0.7348
 6347TIP3    H218999   7.783   2.629   3.586  2.2368 -2.0475 -1.5130
 6348TIP3   OH219000   0.786   1.941   6.090  0.3530 -0.2434  0.7859
 6348TIP3    H119001   0.708   1.946   6.145  0.0064  0.1619  0.2725
 6348TIP3    H219002   0.762   1.880   6.020  0.5689 -0.2760  0.7394
 6349TIP3   OH219003   6.859   4.875   6.070  0.2421 -0.1249 -0.2885
 6349TIP3    H119004   6.799   4.800   6.069 -1.4426  1.1355  0.9032
 6349TIP3    H219005   6.910   4.863   6.150 -1.6480  1.1517  1.1722
 6350TIP3   OH219006   0.588   2.797   5.664  0.1078 -0.0966  0.0257
 6350TIP3    H119007   0.598   2.806   5.758  2.0168  2.7285 -0.3342
 6350TIP3    H219008   0.672   2.763   5.633 -0.9663 -2.3984 -0.6229
 6351TIP3   OH219009   5.324   4.188   5.420  0.1212  0.3933 -0.5043
 6351TIP3    H119010   5.293   4.277   5.404  0.4603  0.5184 -0.4754
 6351TIP3    H219011   5.252   4.132   5.391  0.2182  0.6518 -1.2650
 6352TIP3   OH219012   3.735   3.998   1.890  0.1151  0.4008  0.0429
 6352TIP3    H119013   3.656   4.042   1.859 -0.3761  0.2675  1.0381
 6352TIP3    H219014   3.720   3.988   1.984  1.2504  0.2214  0.2114
 6353TIP3   OH219015   3.831   5.035   0.188  0.2055  0.0582 -0.1526
 6353TIP3    H119016   3.814   4.948   0.224 -0.9281 -0.4686 -1.8146
 6353TIP3    H219017   3.925   5.048   0.199  0.4493 -1.5017 -0.1196
 6354TIP3   OH219018   4.994   5.126   6.352 -0.4514 -0.6627  0.4063
 6354TIP3    H119019   5.088   5.108   6.363 -0.4982 -0.1640  1.9830
 6354TIP3    H219020   4.992   5.208   6.302 -0.0562 -0.7898  0.1715
 6355TIP3   OH219021   5.852   0.332   3.717 -0.8956  0.2145  0.0637
 6355TIP3    H119022   5.779   0.276   3.747 -0.6190  0.0636  0.4612
 6355TIP3    H219023   5.809   0.411   3.686 -1.3673 -0.5357 -1.2855
 6356TIP3   OH219024   6.098   1.367   1.390  0.2134 -0.3822  1.0114
 6356TIP3    H119025   6.172   1.330   1.341 -1.1820 -0.0521 -1.4962
 6356TIP3    H219026   6.139   1.428   1.452  2.1482 -1.8272  1.2496
 6357TIP3   OH219027   1.998   1.600   5.878  0.3392 -0.2785  0.6600
 6357TIP3    H119028   1.962   1.688   5.870  0.7823 -0.1313  0.2517
 6357TIP3    H219029   1.925   1.547   5.910  0.4422  0.5081  2.3208
 6358TIP3   OH219030   7.516   7.015   5.407  0.9918  0.1196 -0.0407
 6358TIP3    H119031   7.555   6.930   5.388  1.3953  0.0176  1.1584
 6358TIP3    H219032   7.422   7.000   5.405  1.0192  0.0125 -1.3866
 6359TIP3   OH219033   0.526   1.470   1.068 -0.4132  0.1458 -0.5070
 6359TIP3    H119034   0.531   1.564   1.052 -2.1295  0.3962  0.2002
 6359TIP3    H219035   0.563   1.458   1.156  0.2316  0.0827 -0.7818
 6360TIP3   OH219036   2.739   1.447   3.498 -0.3838  0.8618 -0.5844
 6360TIP3    H119037   2.695   1.440   3.413  1.6665  0.2068 -1.6700
 6360TIP3    H219038   2.688   1.390   3.556 -1.9459  1.4822 -1.2959
 6361TIP3   OH219039   7.720   6.177  -0.007 -0.2769 -0.0464  0.3847
 6361TIP3    H119040   7.655   6.177   0.064  1.5131 -1.1059  2.1280
 6361TIP3    H219041   7.804   6.185   0.038  0.9406 -0.6967 -1.6536
 6362TIP3   OH219042   4.900   1.193   4.047  0.2101 -0.6725  0.1473
 6362TIP3    H119043   4.852   1.117   4.016 -0.6496 -0.1032  0.0242
 6362TIP3    H219044   4.839   1.238   4.105  0.9667 -0.4687  0.8086
 6363TIP3   OH219045   5.583   3.175   0.761  0.0151 -0.1531  0.1270
 6363TIP3    H119046   5.652   3.237   0.738  1.1334 -1.1340  0.7980
 6363TIP3    H219047   5.567   3.126   0.680 -1.1103  1.1821 -0.5047
 6364TIP3   OH219048   1.770   0.682   2.707  0.3465 -0.5520  0.4203
 6364TIP3    H119049   1.842   0.647   2.760  1.3776 -0.1720 -0.7037
 6364TIP3    H219050   1.808   0.756   2.660 -0.7050 -0.5296 -0.4267
 6365TIP3   OH219051   5.247   6.621   5.421  0.0358 -0.0425  0.3196
 6365TIP3    H119052   5.320   6.682   5.414  0.3497 -0.4455 -0.0572
 6365TIP3    H219053   5.181   6.667   5.472  0.8979  0.0044  1.4160
 6366TIP3   OH219054   4.529   2.834   1.916 -0.0806 -0.8294 -0.5670
 6366TIP3    H119055   4.611   2.825   1.868 -0.8867  1.8483 -2.7010
 6366TIP3    H219056   4.548   2.899   1.984 -0.0581 -1.3655 -0.0539
 6367TIP3   OH219057   3.772   0.241   4.658  0.5545 -0.3284 -0.2585
 6367TIP3    H119058   3.773   0.202   4.745  0.4275  2.3125  1.0349
 6367TIP3    H219059   3.690   0.292   4.655  2.1201  2.3677 -0.5254
 6368TIP3   OH219060   5.869   4.682   3.562  0.0039  0.1701 -0.4203
 6368TIP3    H119061   5.800   4.711   3.622 -0.3287 -2.7696  0.7809
 6368TIP3    H219062   5.873   4.751   3.495 -2.6239  1.4673  0.6152
 6369TIP3   OH219063   3.762   4.608   3.436  0.0154  0.2433  0.5290
 6369TIP3    H119064   3.839   4.612   3.493  0.1647  0.1962  0.3347
 6369TIP3    H219065   3.789   4.655   3.357 -0.5695  1.2795  0.9330
 6370TIP3   OH219066   5.525   0.544   0.675 -0.2924 -0.6141  0.0545
 6370TIP3    H119067   5.484   0.459   0.693 -2.2099  0.5874  1.7764
 6370TIP3    H219068   5.457   0.595   0.633  0.2545  0.6577  0.6679
 6371TIP3   OH219069   6.894   4.999   0.967 -0.0337 -0.1740  0.2530
 6371TIP3    H119070   6.899   4.903   0.965 -1.4278 -0.2730  0.1736
 6371TIP3    H219071   6.921   5.027   0.880 -2.1295 -0.6930 -0.6310
 6372TIP3   OH219072   6.289   5.290   3.677 -0.4396 -0.5972  0.2323
 6372TIP3    H119073   6.313   5.233   3.750  0.3235  0.5591  0.9146
 6372TIP3    H219074   6.344   5.367   3.688 -1.1292  0.0851 -0.9283
 6373TIP3   OH219075   0.401   1.600   1.550  0.0372 -0.7010 -0.5292
 6373TIP3    H119076   0.494   1.604   1.530  0.4212 -0.5380  1.1494
 6373TIP3    H219077   0.374   1.691   1.558 -0.3805 -0.7352 -1.4106
 6374TIP3   OH219078   6.912   1.402   1.195  0.2435 -0.0726  0.2226
 6374TIP3    H119079   6.964   1.441   1.125 -1.6283  1.5336 -0.3610
 6374TIP3    H219080   6.906   1.310   1.173 -0.9470  0.5250 -2.2088
 6375TIP3   OH219081   5.902   0.560   1.251  0.9206 -0.3291  0.2444
 6375TIP3    H119082   5.943   0.603   1.176 -1.6051 -1.0386 -1.6913
 6375TIP3    H219083   5.886   0.471   1.221 -0.9178 -0.3953  1.2756
 6376TIP3   OH219084   2.322   6.170   2.774 -0.3088  0.3717 -0.5571
 6376TIP3    H119085   2.348   6.261   2.762 -1.7720  0.8713 -0.1667
 6376TIP3    H219086   2.402   6.120   2.759  0.4950  1.7054 -0.8948
 6377TIP3   OH219087   6.555   4.022   2.110 -0.2136 -0.7377 -0.7518
 6377TIP3    H119088   6.561   3.933   2.146  2.5860 -1.3274 -2.3699
 6377TIP3    H219089   6.583   4.078   2.183 -0.6111 -1.3075 -0.1445
 6378TIP3   OH219090   7.955   1.484   6.740 -0.2045  0.3837  0.2064
 6378TIP3    H119091   7.919   1.552   6.797  0.1133  0.4716  0.3024
 6378TIP3    H219092   7.902   1.407   6.759  0.4837  0.1635  1.2950
 6379TIP3   OH219093   5.394   3.016   3.896  0.0736  0.0887  0.6010
 6379TIP3    H119094   5.357   2.939   3.853  1.1658  0.4204 -1.0087
 6379TIP3    H219095   5.334   3.087   3.874  1.0488  0.4207 -1.1430
 6380TIP3   OH219096   7.172   6.563   2.073 -0.4325  0.0055  0.2767
 6380TIP3    H119097   7.266   6.547   2.076 -0.5519 -0.5726  1.1833
 6380TIP3    H219098   7.164   6.656   2.051  0.3490  0.1427  0.5578
 6381TIP3   OH219099   6.540   2.620   5.267 -0.5046 -0.0043 -0.4123
 6381TIP3    H119100   6.548   2.660   5.354  0.7856 -0.0438 -0.4824
 6381TIP3    H219101   6.627   2.583   5.251 -0.5679  0.4683 -1.9519
 6382TIP3   OH219102   5.090   3.872   3.706  0.2873  0.8418 -0.0707
 6382TIP3    H119103   5.150   3.902   3.638 -0.5220  1.1870 -0.6508
 6382TIP3    H219104   5.035   3.948   3.726  0.3533  0.6713  0.7920
 6383TIP3   OH219105   6.577   4.844   3.933 -0.1055  0.0504 -0.4424
 6383TIP3    H119106   6.540   4.889   3.856  2.5308  1.0897 -1.1917
 6383TIP3    H219107   6.625   4.770   3.897  0.0139 -0.2584  0.3343
 6384TIP3   OH219108   2.676   1.594   0.741  0.0289 -0.2477  0.0775
 6384TIP3    H119109   2.731   1.582   0.819 -0.0543 -1.6341 -0.0383
 6384TIP3    H219110   2.712   1.671   0.698  1.4429 -0.6898  0.3803
 6385TIP3   OH219111   2.915   6.235   3.596 -0.0013  0.3682 -0.5576
 6385TIP3    H119112   2.855   6.161   3.586 -1.8817  1.8471 -0.9847
 6385TIP3    H219113   2.931   6.241   3.690 -0.6800  0.0468 -0.4170
 6386TIP3   OH219114   8.303   5.663   2.207 -0.1326 -0.0597  0.0771
 6386TIP3    H119115   8.225   5.636   2.255 -1.0352  1.7136 -0.3194
 6386TIP3    H219116   8.290   5.756   2.189  2.1430  0.3353  0.1018
 6387TIP3   OH219117   6.362   6.851   0.263 -0.8467 -0.5614 -0.1948
 6387TIP3    H119118   6.361   6.940   0.297 -2.1074 -1.0328  1.1125
 6387TIP3    H219119   6.446   6.815   0.291 -1.0195 -0.2867  0.7197
 6388TIP3   OH219120   0.977   5.444   5.818 -0.5280  1.1240 -0.4148
 6388TIP3    H119121   0.897   5.392   5.827 -0.5975  0.9663 -1.6963
 6388TIP3    H219122   0.964   5.494   5.737  1.5373 -0.5389 -1.8822
 6389TIP3   OH219123   7.750   6.170   6.188  0.4654 -0.2445  0.3727
 6389TIP3    H119124   7.769   6.161   6.095 -2.6871  2.2560 -0.6995
 6389TIP3    H219125   7.715   6.085   6.214  1.3558 -0.9614 -0.6838
 6390TIP3   OH219126   6.146   1.694   6.612  0.5217  0.0128 -0.3353
 6390TIP3    H119127   6.107   1.645   6.685  2.0635 -0.1671  0.4147
 6390TIP3    H219128   6.240   1.692   6.629  0.8803  0.4903 -2.0281
 6391TIP3   OH219129   7.479   7.673   1.167 -0.2048  0.3971  0.5218
 6391TIP3    H119130   7.507   7.595   1.120 -1.3352  0.2245  0.0928
 6391TIP3    H219131   7.550   7.692   1.228  0.1276 -0.9032  0.5653
 6392TIP3   OH219132   3.487   6.860   3.985 -0.0343 -0.0632 -0.0161
 6392TIP3    H119133   3.510   6.847   3.892  2.3211 -0.1052  0.5147
 6392TIP3    H219134   3.494   6.954   3.998 -0.5278 -0.0422  0.0757
 6393TIP3   OH219135   2.387   5.633   0.096 -0.3327 -0.0488  0.6897
 6393TIP3    H119136   2.403   5.678   0.013  0.3216 -0.4796  0.5675
 6393TIP3    H219137   2.475   5.606   0.125 -0.2997  1.9110  2.5706
 6394TIP3   OH219138   7.554   6.516   6.038 -0.5260  0.3331  0.3465
 6394TIP3    H119139   7.606   6.595   6.054 -0.2656  0.1450  0.4432
 6394TIP3    H219140   7.523   6.490   6.125  0.3474 -0.3185  0.4805
 6395TIP3   OH219141   7.950   2.872   5.943  0.2799 -0.4320  0.2760
 6395TIP3    H119142   7.946   2.868   5.848  0.3740  0.2315  0.2434
 6395TIP3    H219143   8.017   2.937   5.962  0.8964 -1.1917  0.8002
 6396TIP3   OH219144   3.550   6.923   0.348 -0.3907 -0.2617 -0.1110
 6396TIP3    H119145   3.538   6.870   0.269 -0.6396 -0.7035  0.2152
 6396TIP3    H219146   3.463   6.957   0.367 -0.2598  0.1474 -0.2324
 6397TIP3   OH219147   8.047   2.058   5.175  0.4293 -0.1374 -0.3664
 6397TIP3    H119148   8.138   2.069   5.147  1.1995 -1.9707  1.1569
 6397TIP3    H219149   8.043   2.102   5.260  0.3554 -1.3912  0.2985
 6398TIP3   OH219150   7.393   1.240   5.885 -0.3721  0.3298 -0.2387
 6398TIP3    H119151   7.310   1.279   5.911  0.0165  0.8598  0.2158
 6398TIP3    H219152   7.411   1.174   5.952 -0.7739 -0.3015 -0.7304
 6399TIP3   OH219153   1.439   2.941   1.052  0.1103 -0.5548 -0.0381
 6399TIP3    H119154   1.485   2.935   0.968  0.1546 -0.3784 -0.0258
 6399TIP3    H219155   1.475   3.019   1.094  2.8080 -2.5793  1.7764
 6400TIP3   OH219156   5.361   4.386   3.340 -0.3326 -0.2982  0.2173
 6400TIP3    H119157   5.431   4.329   3.306  0.3088 -0.4129  1.6614
 6400TIP3    H219158   5.280   4.344   3.311  0.1742 -0.7469 -0.5847
 6401TIP3   OH219159   6.900   6.631   5.378  0.2186 -0.2483  0.1944
 6401TIP3    H119160   6.971   6.639   5.442  0.0358  1.2559  0.2488
 6401TIP3    H219161   6.826   6.596   5.428  0.7432 -1.3315  0.2509
 6402TIP3   OH219162   3.018   5.341   5.974  0.3537 -0.1955  0.5438
 6402TIP3    H119163   3.042   5.253   6.004 -0.5940  0.0760  2.2405
 6402TIP3    H219164   3.009   5.392   6.055  0.7073  1.4261 -0.4024
 6403TIP3   OH219165   0.859   6.771   4.971  0.2846 -0.4891  0.2898
 6403TIP3    H119166   0.774   6.794   4.933  0.5349 -0.4121 -0.2347
 6403TIP3    H219167   0.855   6.805   5.060 -0.2589 -0.5428  0.2892
 6404TIP3   OH219168   2.010   5.434   5.974  0.2727 -0.2795 -0.0337
 6404TIP3    H119169   1.944   5.468   6.034  0.5156  0.7591 -0.3283
 6404TIP3    H219170   1.961   5.415   5.894  0.2231 -0.0939 -0.0488
 6405TIP3   OH219171   3.240   2.160   2.544 -0.2294  0.6567  0.0585
 6405TIP3    H119172   3.169   2.139   2.483  0.6126 -0.9508 -0.4135
 6405TIP3    H219173   3.200   2.150   2.630 -0.3414 -1.3467 -0.1809
 6406TIP3   OH219174   4.906   4.912   4.408  0.1554 -0.5050  0.4986
 6406TIP3    H119175   4.841   4.981   4.391  0.4319 -0.5457 -0.8167
 6406TIP3    H219176   4.990   4.957   4.406  0.3085 -0.8045  0.0652
 6407TIP3   OH219177   7.200   4.444   5.705  0.1547  0.4339  0.2573
 6407TIP3    H119178   7.272   4.508   5.707  0.3009  0.2590  0.6607
 6407TIP3    H219179   7.217   4.392   5.627 -0.2920  1.2626 -0.4071
 6408TIP3   OH219180   6.136   7.700   1.991  0.9803  0.4096 -0.2893
 6408TIP3    H119181   6.147   7.745   1.907 -0.7723 -1.1363 -1.4304
 6408TIP3    H219182   6.224   7.692   2.026  1.4882  3.8739 -0.3912
 6409TIP3   OH219183   0.890   1.044   2.268  0.4760 -0.5091  0.6161
 6409TIP3    H119184   0.966   0.992   2.245  1.4004  0.6360  1.0179
 6409TIP3    H219185   0.909   1.077   2.356 -0.3041  0.1049  0.5663
 6410TIP3   OH219186   2.753   2.533   3.885 -0.1996  0.2107  0.2717
 6410TIP3    H119187   2.736   2.615   3.839  0.6878  0.1776 -0.1332
 6410TIP3    H219188   2.731   2.552   3.976 -0.5315  0.7227  0.0911
 6411TIP3   OH219189   4.300   1.051   1.954 -0.6666  0.1512 -0.1402
 6411TIP3    H119190   4.351   1.089   2.026 -0.8176  2.0898 -0.9806
 6411TIP3    H219191   4.231   1.002   1.998 -1.4153  2.1739  1.1191
 6412TIP3   OH219192   2.512   2.909   0.023  0.1176 -0.2560 -0.0969
 6412TIP3    H119193   2.434   2.894   0.077  0.1883 -0.2602  0.0055
 6412TIP3    H219194   2.486   2.882  -0.065  0.2099 -0.8909  0.0633
 6413TIP3   OH219195   2.233   2.525   4.845 -0.0370 -0.2494  0.0047
 6413TIP3    H119196   2.229   2.604   4.791 -2.2746 -0.7611 -0.6645
 6413TIP3    H219197   2.201   2.552   4.931  1.3250  0.0458  0.4351
 6414TIP3   OH219198   2.231   1.983   0.881  0.1290 -0.4694 -0.3867
 6414TIP3    H119199   2.160   2.039   0.849  0.8511  0.9673  0.4295
 6414TIP3    H219200   2.307   2.041   0.887  1.2168 -1.8233 -0.6130
 6415TIP3   OH219201   7.433   1.519   3.842  0.0823  0.1724  0.1966
 6415TIP3    H119202   7.503   1.464   3.876 -0.4928 -1.1832 -0.7272
 6415TIP3    H219203   7.419   1.488   3.753 -1.9534  0.1268  0.4848
 6416TIP3   OH219204   4.343   7.468   1.210 -0.4912  0.0623  0.2961
 6416TIP3    H119205   4.378   7.449   1.297 -0.2368 -2.2010 -0.2273
 6416TIP3    H219206   4.345   7.384   1.165 -1.1935  1.0568 -1.7115
 6417TIP3   OH219207   2.435   4.134   1.047  0.3998 -0.3260  0.6763
 6417TIP3    H119208   2.447   4.170   0.959  1.6927  0.0460  0.9943
 6417TIP3    H219209   2.341   4.146   1.064  0.6179  2.1287  0.4355
 6418TIP3   OH219210   0.250   1.605   4.108 -0.8522 -0.0905 -0.3177
 6418TIP3    H119211   0.177   1.586   4.048 -0.9390 -0.2511 -0.1654
 6418TIP3    H219212   0.207   1.624   4.192 -0.7967  1.3644 -0.5921
 6419TIP3   OH219213   4.153   3.010   1.296  0.1822  0.5177  0.6840
 6419TIP3    H119214   4.238   3.022   1.337  0.5206  0.1687  0.0923
 6419TIP3    H219215   4.161   2.928   1.247 -1.3662 -1.1111  2.8958
 6420TIP3   OH219216   1.017   3.496   1.280  0.9828 -0.4118  0.4887
 6420TIP3    H119217   1.103   3.454   1.283  1.2374  0.1550  1.3630
 6420TIP3    H219218   1.022   3.553   1.203  0.1478 -2.9078 -1.5971
 6421TIP3   OH219219   6.913   7.594   4.763 -0.4344  0.4138  0.1002
 6421TIP3    H119220   6.839   7.653   4.755  0.6913  1.8968  0.1202
 6421TIP3    H219221   6.976   7.642   4.817  0.5840 -0.7430 -0.0094
 6422TIP3   OH219222   2.645   6.244   6.207  0.4614 -0.1630 -0.5575
 6422TIP3    H119223   2.696   6.194   6.271  1.4617  1.6641  0.1544
 6422TIP3    H219224   2.582   6.181   6.173  0.5467 -1.4789  1.4998
 6423TIP3   OH219225   1.202   1.806   3.452 -0.5154 -0.1453  0.4231
 6423TIP3    H119226   1.194   1.897   3.479 -0.2753 -0.2156  0.7477
 6423TIP3    H219227   1.154   1.757   3.519 -2.1849 -0.1291 -0.7265
 6424TIP3   OH219228   2.427   0.166   4.665 -0.5772  0.1232 -0.3722
 6424TIP3    H119229   2.498   0.137   4.607 -0.1614  1.1585 -0.4107
 6424TIP3    H219230   2.434   0.109   4.742  1.6806  1.5396  0.5681
 6425TIP3   OH219231   8.225   3.737   4.115 -0.0534 -0.0463  0.0279
 6425TIP3    H119232   8.169   3.718   4.191 -1.5217 -0.5026 -1.1184
 6425TIP3    H219233   8.166   3.780   4.053  0.3422 -2.2452 -1.9987
 6426TIP3   OH219234   7.213   0.740   3.624  0.6288 -0.1920  0.1586
 6426TIP3    H119235   7.206   0.809   3.558 -2.7895 -1.6433 -1.2288
 6426TIP3    H219236   7.221   0.787   3.707 -2.5135  2.0275 -0.6167
 6427TIP3   OH219237   7.472   2.649   4.113 -0.2030  0.3436  0.3162
 6427TIP3    H119238   7.506   2.608   4.034 -2.7959 -1.8989  0.1966
 6427TIP3    H219239   7.434   2.732   4.083  1.1681  0.8059 -0.2456
 6428TIP3   OH219240   7.542   1.702   2.370 -0.2325 -0.1935  0.3470
 6428TIP3    H119241   7.447   1.695   2.380 -0.2651 -2.5539 -0.9845
 6428TIP3    H219242   7.554   1.780   2.316 -1.3510  0.4097  0.9145
 6429TIP3   OH219243   1.838   3.662   6.199  0.3194 -0.4694  0.1954
 6429TIP3    H119244   1.906   3.729   6.195  0.9664 -1.1347  0.0335
 6429TIP3    H219245   1.759   3.707   6.168  0.1980  0.8867  2.2470
 6430TIP3   OH219246   6.012   1.129   0.599 -0.3152  0.7560 -0.1762
 6430TIP3    H119247   5.974   1.196   0.655  1.1493  1.6581 -0.2033
 6430TIP3    H219248   5.943   1.109   0.535 -1.2010  1.3428  0.5709
 6431TIP3   OH219249   3.283   1.753   3.080 -0.2238 -0.7821  0.4947
 6431TIP3    H119250   3.351   1.757   3.013  1.4176  0.6482  2.1290
 6431TIP3    H219251   3.223   1.824   3.058 -1.0514 -1.8267 -0.7559
 6432TIP3   OH219252   5.098   1.342   6.664 -0.2723 -0.1272  0.0719
 6432TIP3    H119253   5.052   1.269   6.706  1.0780  0.4618  2.7645
 6432TIP3    H219254   5.185   1.341   6.704  0.7125  1.2805 -1.8956
 6433TIP3   OH219255   5.654   1.418   0.143 -0.2128 -0.0328 -0.3774
 6433TIP3    H119256   5.598   1.398   0.067 -0.5416  2.4237 -0.8846
 6433TIP3    H219257   5.740   1.433   0.105 -0.6657  2.6340 -0.6044
 6434TIP3   OH219258   3.007   6.570   6.194  0.2814  0.0260 -0.7542
 6434TIP3    H119259   3.039   6.481   6.207  0.3656 -0.1081 -1.7858
 6434TIP3    H219260   3.021   6.613   6.278  2.4092 -0.2472 -0.9168
 6435TIP3   OH219261   0.319   1.228   1.137  0.0087  0.2662 -0.3269
 6435TIP3    H119262   0.337   1.272   1.220  0.9745  1.7899 -1.2911
 6435TIP3    H219263   0.238   1.268   1.105  0.1246  0.3328 -0.5410
 6436TIP3   OH219264   7.216   0.387   1.616  0.4048  0.4606  0.2388
 6436TIP3    H119265   7.183   0.453   1.678  0.3724  0.6607  0.0093
 6436TIP3    H219266   7.236   0.436   1.537  0.5842  0.2255  0.1370
 6437TIP3   OH219267   3.591   5.340   3.943 -0.5812 -0.6545  0.0471
 6437TIP3    H119268   3.673   5.382   3.916 -1.4206  1.8545  1.1699
 6437TIP3    H219269   3.619   5.269   4.002  0.8807 -1.9512 -2.0288
 6438TIP3   OH219270   5.638   2.082   6.098  0.1010 -0.3567  0.4360
 6438TIP3    H119271   5.607   2.054   6.012 -0.1151  2.1843 -0.3979
 6438TIP3    H219272   5.722   2.124   6.080 -0.3148  0.9092  1.2988
 6439TIP3   OH219273   4.471   1.434   6.654 -0.1801 -0.2517 -0.5389
 6439TIP3    H119274   4.528   1.369   6.696 -0.2418  0.6107  0.9523
 6439TIP3    H219275   4.481   1.417   6.560  0.7656 -1.5951 -0.2295
 6440TIP3   OH219276   6.409   7.603   0.518 -0.0939 -0.2417  0.8182
 6440TIP3    H119277   6.503   7.618   0.523  0.1999 -0.8149 -1.6554
 6440TIP3    H219278   6.384   7.574   0.606  2.0075 -0.0207  1.5379
 6441TIP3   OH219279   2.405   7.015   1.486 -0.5390 -0.3678  0.4432
 6441TIP3    H119280   2.384   7.097   1.442  0.6485 -1.1830 -1.7587
 6441TIP3    H219281   2.473   7.038   1.549 -0.9242  0.4862  0.5655
 6442TIP3   OH219282   6.135   6.049   0.048  0.1592 -0.1849  0.8110
 6442TIP3    H119283   6.147   6.044  -0.047 -0.3591 -0.4209  0.7528
 6442TIP3    H219284   6.114   6.141   0.065  2.9153  0.4730  1.0411
 6443TIP3   OH219285   4.916   7.623   6.466  0.0288  0.4305  0.3924
 6443TIP3    H119286   4.999   7.578   6.479 -0.4719 -0.8318 -0.5660
 6443TIP3    H219287   4.888   7.648   6.554 -0.0161 -1.7891  1.0716
 6444TIP3   OH219288   0.290   5.566   6.365 -0.2726  0.4791 -1.0959
 6444TIP3    H119289   0.198   5.541   6.359 -0.2591  0.3866 -0.9180
 6444TIP3    H219290   0.337   5.493   6.325 -0.3090  0.7828 -1.7156
 6445TIP3   OH219291   2.967   2.139   0.663 -0.6394 -0.3599 -0.2525
 6445TIP3    H119292   2.986   2.213   0.605  3.1316 -0.7771  0.1592
 6445TIP3    H219293   2.965   2.176   0.751  0.7018 -0.5950 -0.0969
 6446TIP3   OH219294   4.676   1.561   3.340  0.0928 -0.4190 -0.0079
 6446TIP3    H119295   4.582   1.552   3.359 -0.0944 -0.6750 -1.0067
 6446TIP3    H219296   4.712   1.599   3.420 -0.7183 -1.0940  0.7125
 6447TIP3   OH219297   2.614   7.140   0.383  0.4430  0.3263  0.0891
 6447TIP3    H119298   2.633   7.161   0.474 -0.2687 -1.8294  0.8159
 6447TIP3    H219299   2.689   7.089   0.353 -0.2193 -0.7616  0.1909
 6448TIP3   OH219300   5.309   7.639   6.395 -0.1108  0.6400  0.0801
 6448TIP3    H119301   5.329   7.549   6.369 -0.0792  1.2309 -2.2056
 6448TIP3    H219302   5.292   7.684   6.312  0.8901  2.9879  1.0724
 6449TIP3   OH219303   4.603   7.547   4.564  0.1659 -0.1110 -0.5342
 6449TIP3    H119304   4.678   7.575   4.512 -0.2642  2.7881  0.2367
 6449TIP3    H219305   4.641   7.494   4.635  1.8549  2.8002  0.9278
 6450TIP3   OH219306   5.435   3.374   1.091 -0.6628 -0.0122 -0.3116
 6450TIP3    H119307   5.458   3.282   1.079  2.3241  0.3603  1.6537
 6450TIP3    H219308   5.480   3.419   1.019 -2.1000 -0.0037 -1.2553
 6451TIP3   OH219309   8.096   0.706   4.107  0.2911  0.4753  0.3378
 6451TIP3    H119310   8.067   0.618   4.081  0.3516  0.5412  0.0469
 6451TIP3    H219311   8.060   0.718   4.194 -3.0559  1.6789 -1.0372
 6452TIP3   OH219312   4.089   0.109   5.182  0.0122 -0.3888  0.0569
 6452TIP3    H119313   4.031   0.096   5.257  0.0303 -1.4210 -0.0985
 6452TIP3    H219314   4.175   0.081   5.214 -0.1542 -1.7448 -0.6179
 6453TIP3   OH219315   2.492   7.565   4.055  0.1790 -0.7727 -0.6368
 6453TIP3    H119316   2.531   7.479   4.071 -0.4754 -1.1323 -0.9140
 6453TIP3    H219317   2.566   7.623   4.037  0.8659 -0.6709  2.1243
 6454TIP3   OH219318   0.263   6.620   1.426  0.0196  0.0498  0.6129
 6454TIP3    H119319   0.294   6.555   1.363 -0.5808 -1.5509  1.8963
 6454TIP3    H219320   0.205   6.572   1.485 -1.9727  2.1470  0.5366
 6455TIP3   OH219321   4.235   3.841   1.049  0.9399  0.3631 -0.0810
 6455TIP3    H119322   4.192   3.919   1.085 -0.9433 -0.2534 -0.8557
 6455TIP3    H219323   4.220   3.774   1.115 -2.8380 -0.8676 -1.9018
 6456TIP3   OH219324   2.709   5.775   6.724 -0.0933 -0.0912  0.5068
 6456TIP3    H119325   2.617   5.752   6.708 -0.5996  1.1997  1.3774
 6456TIP3    H219326   2.742   5.703   6.779  0.2122 -1.8958 -1.8616
 6457TIP3   OH219327   5.363   4.004   4.723  0.1103 -0.0573  0.0111
 6457TIP3    H119328   5.366   3.945   4.798  2.2188 -1.3283 -0.9726
 6457TIP3    H219329   5.277   3.988   4.684 -0.1164 -1.0654  0.8613
 6458TIP3   OH219330   3.916   5.981   0.837 -0.4905 -0.0475  0.2238
 6458TIP3    H119331   3.871   5.903   0.803  0.2015 -0.0001 -0.8352
 6458TIP3    H219332   3.909   6.046   0.767  2.6136 -0.5700 -0.7425
 6459TIP3   OH219333   5.297   2.615   0.093 -0.0806 -0.2907  0.0875
 6459TIP3    H119334   5.370   2.582   0.041  0.3103  2.9291 -1.6780
 6459TIP3    H219335   5.338   2.641   0.176  0.5024  0.0670 -0.3040
 6460TIP3   OH219336   4.683   6.888   0.993 -0.3410  0.4269  0.1587
 6460TIP3    H119337   4.704   6.849   0.908  0.2963 -2.6052  1.5673
 6460TIP3    H219338   4.606   6.841   1.023 -0.2988  1.1356  1.4592
 6461TIP3   OH219339   4.072   4.229   3.312 -0.0504  0.1666 -0.4796
 6461TIP3    H119340   4.113   4.256   3.394  0.7417 -1.7666 -0.1645
 6461TIP3    H219341   3.981   4.257   3.320  0.0727  0.2366  0.9592
 6462TIP3   OH219342   6.829   1.576   3.317 -0.0883 -0.0014  0.3021
 6462TIP3    H119343   6.837   1.561   3.411  0.2701  0.7413  0.3951
 6462TIP3    H219344   6.824   1.671   3.308 -0.3961 -0.0778 -0.4100
 6463TIP3   OH219345   7.749   6.426   6.599  0.6789 -0.0446 -0.0391
 6463TIP3    H119346   7.718   6.517   6.599 -1.5135 -0.7375 -0.3210
 6463TIP3    H219347   7.776   6.411   6.509 -2.4893 -0.7023 -1.0031
 6464TIP3   OH219348   2.402   4.275   0.814  0.3857  0.7729  0.5360
 6464TIP3    H119349   2.467   4.340   0.786 -0.5598  0.6494 -2.1979
 6464TIP3    H219350   2.417   4.200   0.756 -2.6741  1.0559 -0.7780
 6465TIP3   OH219351   4.417   1.560   3.376  0.4487  0.0193 -0.4054
 6465TIP3    H119352   4.369   1.532   3.453  0.6704 -1.3185 -0.7387
 6465TIP3    H219353   4.370   1.638   3.345  0.5283  0.7603  1.2209
 6466TIP3   OH219354   7.519   2.043   5.832  0.2087 -0.3143  0.0441
 6466TIP3    H119355   7.557   2.120   5.789 -2.8435  0.1922 -2.0978
 6466TIP3    H219356   7.556   1.969   5.784 -0.3129  0.0823 -1.0023
 6467TIP3   OH219357   4.311   6.717   6.330 -0.1164 -0.1235 -0.1519
 6467TIP3    H119358   4.369   6.643   6.351  0.2076  0.3046  0.4638
 6467TIP3    H219359   4.252   6.724   6.405 -0.0398  0.3519 -0.1337
 6468TIP3   OH219360   7.311   4.476   4.848 -0.3311 -0.0683  0.2710
 6468TIP3    H119361   7.389   4.473   4.792 -0.2774 -1.6094  0.3776
 6468TIP3    H219362   7.274   4.388   4.841 -0.4000 -0.2750  2.5558
 6469TIP3   OH219363   1.902   7.452   1.205 -0.0193  0.2491 -0.1183
 6469TIP3    H119364   1.994   7.477   1.214 -0.0571  0.3283  0.0502
 6469TIP3    H219365   1.895   7.419   1.116  0.7519 -2.1351  0.6109
 6470TIP3   OH219366   5.480   3.979   0.485  0.0100  0.0444  0.2674
 6470TIP3    H119367   5.434   3.914   0.538  1.9695 -1.5085  0.1683
 6470TIP3    H219368   5.421   3.996   0.412 -0.7394 -1.2956  0.5288
 6471TIP3   OH219369   6.889   5.147   2.941 -0.3275 -0.1949 -0.3412
 6471TIP3    H119370   6.813   5.123   2.994  1.6399 -1.5858  2.0409
 6471TIP3    H219371   6.887   5.243   2.939 -0.9783 -0.1325  1.5127
 6472TIP3   OH219372   0.870   7.603   3.788 -0.1604  0.0150 -0.7038
 6472TIP3    H119373   0.802   7.536   3.780  0.6544 -0.8170 -0.8569
 6472TIP3    H219374   0.941   7.559   3.835  0.0165  1.0750  0.0496
 6473TIP3   OH219375   5.398   7.148   5.624  0.2394 -0.6323  0.1732
 6473TIP3    H119376   5.481   7.195   5.632  0.0389 -0.2795  0.1840
 6473TIP3    H219377   5.421   7.068   5.575  0.7851 -1.0670  1.1172
 6474TIP3   OH219378   1.534   2.866   1.444 -0.7339  0.1683  0.1025
 6474TIP3    H119379   1.602   2.923   1.479 -1.9424  1.2088  0.8228
 6474TIP3    H219380   1.567   2.777   1.460  1.0330  0.6194 -0.7609
 6475TIP3   OH219381   4.859   0.927   2.096 -0.2019  0.2574 -0.5265
 6475TIP3    H119382   4.892   0.878   2.171 -0.3080  1.0973  0.0729
 6475TIP3    H219383   4.923   0.996   2.082  0.5310 -0.6622 -2.0611
 6476TIP3   OH219384   3.249   4.306   3.507  0.0721  0.6807 -0.3068
 6476TIP3    H119385   3.309   4.266   3.570 -0.4895  1.5079  0.7741
 6476TIP3    H219386   3.300   4.311   3.426  1.2749  0.8540  0.4301
 6477TIP3   OH219387   5.886   0.086   2.708 -0.0583  0.0230 -0.3004
 6477TIP3    H119388   5.961   0.111   2.655  0.7529 -1.2017  0.2172
 6477TIP3    H219389   5.889   0.146   2.783  0.3400  0.0647 -0.3457
 6478TIP3   OH219390   1.269   6.039   6.657 -0.0636 -0.1280 -0.5979
 6478TIP3    H119391   1.274   5.953   6.615 -0.2508 -0.6332  0.3781
 6478TIP3    H219392   1.322   6.030   6.737 -1.7556 -0.0071  0.5998
 6479TIP3   OH219393   4.263   0.364   6.272  0.2217 -0.6216  0.3284
 6479TIP3    H119394   4.295   0.452   6.252 -1.2354 -0.0752  0.2711
 6479TIP3    H219395   4.178   0.379   6.314  0.5367 -1.9661  1.5068
 6480TIP3   OH219396   1.211   0.592   6.569  0.2518  0.5311  0.4689
 6480TIP3    H119397   1.304   0.594   6.547  0.1785  1.2828  0.1719
 6480TIP3    H219398   1.209   0.596   6.665  0.5551 -1.7896  0.6354
 6481TIP3   OH219399   3.674   5.393   0.908 -0.4939  0.6918 -0.8488
 6481TIP3    H119400   3.592   5.425   0.945 -0.7591 -1.6928  0.8462
 6481TIP3    H219401   3.649   5.318   0.854  0.5515 -0.6544  0.4183
 6482TIP3   OH219402   3.106   7.008   1.021 -0.1765 -1.2653  0.2047
 6482TIP3    H119403   3.122   7.072   0.952  0.4081 -0.6628  0.8756
 6482TIP3    H219404   3.019   6.974   1.004 -0.1413 -0.9332 -0.6721
 6483TIP3   OH219405   1.330   4.871   5.264  0.3454 -0.2004  0.3254
 6483TIP3    H119406   1.340   4.926   5.186 -1.2367 -0.6359 -0.2377
 6483TIP3    H219407   1.250   4.821   5.247  1.0295 -1.7191  1.3916
 6484TIP3   OH219408   4.829   6.992   6.038 -0.2157  0.6985 -0.1353
 6484TIP3    H119409   4.838   6.973   6.131  1.9555  1.7473 -0.0635
 6484TIP3    H219410   4.735   6.984   6.020 -0.5892 -0.2163  1.9590
 6485TIP3   OH219411   0.943   7.210   6.539  0.3298  0.3459 -0.1908
 6485TIP3    H119412   0.990   7.143   6.590  2.9243  1.5371 -0.8630
 6485TIP3    H219413   0.902   7.265   6.605 -0.1644 -0.7126  0.4248
 6486TIP3   OH219414   2.628   1.275   0.712 -0.3429 -0.5601  0.6760
 6486TIP3    H119415   2.583   1.357   0.693  1.5755  0.3765 -0.1188
 6486TIP3    H219416   2.612   1.261   0.805 -4.1281 -1.5457  0.0497
 6487TIP3   OH219417   0.251   6.892   4.646 -0.1913 -0.3590  0.1875
 6487TIP3    H119418   0.330   6.898   4.592 -0.2704 -0.4980  0.0531
 6487TIP3    H219419   0.235   6.982   4.675 -3.3825  1.0246 -4.6585
 6488TIP3   OH219420   1.302   3.130   2.657 -0.0968  0.1456 -0.1126
 6488TIP3    H119421   1.265   3.217   2.672 -0.8337 -0.3149  0.8843
 6488TIP3    H219422   1.397   3.142   2.669 -0.0048  1.1156 -1.5963
 6489TIP3   OH219423   1.912   3.120   6.262 -0.0583  0.5732 -0.0278
 6489TIP3    H119424   1.842   3.122   6.326 -0.9981 -1.1027 -0.9364
 6489TIP3    H219425   1.944   3.211   6.258 -1.4312  1.1447  1.1866
 6490TIP3   OH219426   3.240   3.323   6.274 -0.2858 -0.0293  0.0337
 6490TIP3    H119427   3.218   3.285   6.189 -2.2087 -0.6265  0.7629
 6490TIP3    H219428   3.158   3.325   6.322  0.8886 -0.4896  2.1956
 6491TIP3   OH219429   0.307   7.230   1.361 -0.8291  0.3419  0.1660
 6491TIP3    H119430   0.375   7.215   1.296 -1.1019 -2.2411  0.3634
 6491TIP3    H219431   0.288   7.324   1.355  1.3960  0.7744 -1.1836
 6492TIP3   OH219432   4.475   5.803   4.476  0.1444  0.3670 -0.3834
 6492TIP3    H119433   4.409   5.755   4.527  0.7858 -0.2995 -0.1723
 6492TIP3    H219434   4.525   5.851   4.541  0.2763  0.3646 -0.4825
 6493TIP3   OH219435   3.452   3.760   4.862 -0.2387  0.1970  0.2518
 6493TIP3    H119436   3.419   3.689   4.806  1.0613  0.5755 -1.0687
 6493TIP3    H219437   3.457   3.721   4.949 -1.1911 -0.7937 -0.1095
 6494TIP3   OH219438   6.167   4.085   3.888  0.0391 -0.1744 -0.1302
 6494TIP3    H119439   6.171   3.989   3.891 -3.0317 -0.4962 -1.6800
 6494TIP3    H219440   6.166   4.105   3.794 -0.9735  1.2103  0.1529
 6495TIP3   OH219441   0.207   3.490   4.816 -0.3989 -0.2062 -0.2958
 6495TIP3    H119442   0.193   3.582   4.794 -1.7678 -0.3467 -0.0865
 6495TIP3    H219443   0.295   3.471   4.782 -1.6818  0.0332 -4.2854
 6496TIP3   OH219444   2.418   1.526   2.158 -0.0931 -0.2389  0.2861
 6496TIP3    H119445   2.356   1.496   2.224 -0.3253 -2.6147 -0.9103
 6496TIP3    H219446   2.487   1.461   2.158  1.5210  1.3802  0.2933
 6497TIP3   OH219447   4.136   5.921   1.498 -0.0240 -0.3974  0.4773
 6497TIP3    H119448   4.225   5.913   1.463  0.3048 -0.5566  1.3245
 6497TIP3    H219449   4.148   5.945   1.590 -0.8868  1.1336  0.2270
 6498TIP3   OH219450   1.899   0.701   5.423  1.0049 -0.0369  0.1817
 6498TIP3    H119451   1.892   0.608   5.403 -3.0285 -0.6279  3.1144
 6498TIP3    H219452   1.866   0.745   5.344  0.7136 -1.2551 -0.3932
 6499TIP3   OH219453   1.889   0.413   5.396 -0.0030 -0.3124 -0.2141
 6499TIP3    H119454   1.897   0.421   5.491 -0.0493 -0.9840 -0.1450
 6499TIP3    H219455   1.864   0.322   5.382 -1.3775  0.1359 -0.7943
 6500TIP3   OH219456   1.019   5.980   0.988  0.3201  0.2937 -0.0500
 6500TIP3    H119457   0.942   5.970   0.931  0.2500 -0.2998  0.1479
 6500TIP3    H219458   0.986   6.024   1.066  0.2225  0.2437 -0.0629
 6501TIP3   OH219459   3.543   2.179   2.552  0.3733 -0.3876  0.2915
 6501TIP3    H119460   3.452   2.153   2.537  0.5002 -0.3024 -0.7010
 6501TIP3    H219461   3.544   2.274   2.541  0.5702 -0.3835  0.3339
 6502TIP3   OH219462   1.451   0.468   5.439  0.2824 -0.6149  0.0905
 6502TIP3    H119463   1.393   0.412   5.491 -0.8781  0.3804 -0.0881
 6502TIP3    H219464   1.489   0.409   5.374 -1.5729 -1.0695 -0.6384
 6503TIP3   OH219465   1.262   3.793   4.204 -0.0788 -0.3605 -0.3032
 6503TIP3    H119466   1.190   3.845   4.238 -0.0828  0.0822 -0.9793
 6503TIP3    H219467   1.301   3.847   4.135  0.4760 -0.8762 -0.4050
 6504TIP3   OH219468   0.958   0.292   1.427 -0.1092 -0.5657  0.3925
 6504TIP3    H119469   1.047   0.304   1.394 -0.3898 -1.3975 -0.7324
 6504TIP3    H219470   0.913   0.374   1.404 -0.0591 -0.7872 -0.5140
 6505TIP3   OH219471   1.266   0.956   1.246  0.6344  0.0195 -0.2399
 6505TIP3    H119472   1.340   0.999   1.290  0.6472 -1.7019  1.5569
 6505TIP3    H219473   1.303   0.916   1.168  0.6825  2.8666 -1.8159
 6506TIP3   OH219474   6.472   2.804   6.259  0.2893 -0.0826 -0.6683
 6506TIP3    H119475   6.542   2.750   6.224  1.3244  1.1963 -0.6519
 6506TIP3    H219476   6.517   2.868   6.314 -0.9518  0.4389 -0.2220
 6507TIP3   OH219477   1.483   5.357   0.325  0.4967 -0.5988  0.1494
 6507TIP3    H119478   1.559   5.388   0.375  0.5801  0.8857 -0.8378
 6507TIP3    H219479   1.515   5.279   0.279  1.2619 -0.3040  0.1684
 6508TIP3   OH219480   5.779   1.345   6.698 -0.1409 -0.1373 -0.0554
 6508TIP3    H119481   5.777   1.257   6.661  0.1617 -0.5578  0.9075
 6508TIP3    H219482   5.695   1.383   6.673 -0.1110 -0.5455 -0.8227
 6509TIP3   OH219483   7.175   5.672   1.336 -0.6419 -0.3549 -0.4885
 6509TIP3    H119484   7.217   5.600   1.289 -1.6160 -0.7303 -0.7989
 6509TIP3    H219485   7.100   5.632   1.379 -1.3226  0.5173 -0.8414
 6510TIP3   OH219486   2.745   2.044   3.283  0.3306  0.5224 -0.3925
 6510TIP3    H119487   2.676   2.050   3.217 -0.0438 -1.3525 -0.2426
 6510TIP3    H219488   2.727   2.116   3.344 -2.7443 -1.0167  0.7428
 6511TIP3   OH219489   2.229   5.338   3.165 -0.1594  0.2450  0.3456
 6511TIP3    H119490   2.311   5.376   3.133  0.0315 -1.4915 -1.3904
 6511TIP3    H219491   2.161   5.401   3.140  0.4815  0.9939  0.4690
 6512TIP3   OH219492   3.791   3.075   5.872  0.2608  0.0039  0.2435
 6512TIP3    H119493   3.763   2.994   5.830 -0.3481 -1.0396  2.4980
 6512TIP3    H219494   3.803   3.137   5.800  0.1925 -1.9074 -1.4913
 6513TIP3   OH219495   6.906   0.132   1.132 -0.3217 -0.5008 -0.2886
 6513TIP3    H119496   6.959   0.169   1.203 -1.9559 -2.2304  1.9564
 6513TIP3    H219497   6.869   0.209   1.087  0.6219  0.6393  0.8079
 6514TIP3   OH219498   4.293   2.470   1.334 -0.3356 -0.5086  0.2208
 6514TIP3    H119499   4.343   2.394   1.364 -2.0494 -1.8301 -0.1234
 6514TIP3    H219500   4.243   2.437   1.259 -1.3810  0.8847  0.2778
 6515TIP3   OH219501   4.332   6.191   3.715 -0.0842  0.0748  0.5088
 6515TIP3    H119502   4.292   6.117   3.762  0.5520 -0.2772  0.5070
 6515TIP3    H219503   4.328   6.264   3.777  0.3861 -0.2820  0.9722
 6516TIP3   OH219504   5.790   0.938   1.205 -0.7098 -0.5666 -0.0937
 6516TIP3    H119505   5.848   0.881   1.256 -0.6375  0.8231  1.4492
 6516TIP3    H219506   5.842   0.963   1.129  0.1384 -0.5966  0.4640
 6517TIP3   OH219507   0.890   7.095   6.300 -0.1693 -0.6116  0.6331
 6517TIP3    H119508   0.925   7.131   6.382 -1.8175 -1.0867  1.5774
 6517TIP3    H219509   0.813   7.148   6.282  0.2134 -0.4600 -0.6927
 6518TIP3   OH219510   3.531   3.769   3.783  0.0384 -0.1521 -0.2830
 6518TIP3    H119511   3.443   3.751   3.751 -0.4117 -1.1382  1.4457
 6518TIP3    H219512   3.582   3.783   3.703 -1.2831 -1.3791 -1.4026
 6519TIP3   OH219513   0.659   1.583   5.673  0.6900  0.5583 -0.3582
 6519TIP3    H119514   0.752   1.566   5.657  0.5507 -0.9462  0.2797
 6519TIP3    H219515   0.634   1.644   5.604  1.8328 -0.0577 -1.3688
 6520TIP3   OH219516   6.678   2.065   3.397 -0.3525  0.1600  0.0412
 6520TIP3    H119517   6.654   2.070   3.489 -0.3321 -0.1320  0.0615
 6520TIP3    H219518   6.606   2.108   3.351  0.9543  2.9855  0.3992
 6521TIP3   OH219519   7.566   3.448   6.529  0.0201  0.3172 -0.0765
 6521TIP3    H119520   7.523   3.486   6.605  0.7260  1.4620 -0.2380
 6521TIP3    H219521   7.529   3.359   6.523 -0.0413  0.2009  1.5897
 6522TIP3   OH219522   0.070   3.819   2.719 -0.4413 -0.7021 -0.5263
 6522TIP3    H119523   0.097   3.758   2.651  0.3503 -0.6201 -0.2924
 6522TIP3    H219524   0.131   3.892   2.711 -0.3354 -0.6988  0.2728
 6523TIP3   OH219525   1.064   0.073   0.399  0.4166 -0.8009  0.4825
 6523TIP3    H119526   1.137   0.129   0.374  1.8355 -1.6899  2.3523
 6523TIP3    H219527   0.986   0.121   0.370  1.5676  1.9718  1.5996
 6524TIP3   OH219528   6.257   4.312   1.626  0.5020  0.5842  1.0191
 6524TIP3    H119529   6.303   4.229   1.638  1.5267  0.8413 -0.7658
 6524TIP3    H219530   6.327   4.377   1.623 -0.1143  1.2238  0.1710
 6525TIP3   OH219531   4.584   4.713   5.594 -0.3095  0.3783 -0.1830
 6525TIP3    H119532   4.537   4.647   5.543 -0.0692  0.8985 -1.1009
 6525TIP3    H219533   4.522   4.786   5.602 -0.2915  0.3583  0.1439
 6526TIP3   OH219534   7.649   3.146   2.919  0.1198  0.4692 -0.0677
 6526TIP3    H119535   7.708   3.084   2.962 -2.0496 -1.5490  0.1855
 6526TIP3    H219536   7.581   3.164   2.983  1.1997  4.1865  0.3227
 6527TIP3   OH219537   2.006   3.101   3.626 -0.0648 -0.2153  0.0182
 6527TIP3    H119538   2.049   3.168   3.571 -1.2714 -0.6429 -1.5265
 6527TIP3    H219539   2.064   3.091   3.701  0.0656  2.7330  0.4536
 6528TIP3   OH219540   2.603  -0.027   2.572 -0.6615  0.0333 -0.4526
 6528TIP3    H119541   2.649   0.042   2.620 -0.3095  0.2007 -1.0269
 6528TIP3    H219542   2.517   0.010   2.554 -1.4621 -0.6823  1.5845
 6529TIP3   OH219543   3.352   0.103   2.705 -0.3332  0.5830  0.0992
 6529TIP3    H119544   3.401   0.105   2.623  2.3992  0.8720  1.6464
 6529TIP3    H219545   3.309   0.189   2.709  0.8346  1.2091 -0.3021
 6530TIP3   OH219546   4.906   1.335   2.505  0.4904 -0.3664 -0.1521
 6530TIP3    H119547   4.902   1.240   2.498 -2.0636 -0.2473 -1.4894
 6530TIP3    H219548   4.957   1.362   2.428 -0.6044 -0.6029 -0.9906
 6531TIP3   OH219549   0.592   1.221   3.110 -0.2606  0.3291  0.1891
 6531TIP3    H119550   0.679   1.218   3.070 -0.0754 -1.7609  0.6145
 6531TIP3    H219551   0.607   1.191   3.200 -1.2607  1.0626  0.6134
 6532TIP3   OH219552   8.286   2.569   0.920  0.1444 -0.1076  0.0170
 6532TIP3    H119553   8.208   2.614   0.954 -0.3589  0.7091 -2.0298
 6532TIP3    H219554   8.359   2.624   0.948 -0.3558  1.2385 -1.1673
 6533TIP3   OH219555   4.418   5.348   0.372  0.5069 -0.0407  0.4265
 6533TIP3    H119556   4.323   5.346   0.366  0.5794  0.4513 -2.0324
 6533TIP3    H219557   4.437   5.416   0.437 -0.8096  0.0131  0.7703
 6534TIP3   OH219558   4.481   5.096   3.406  0.0649  0.2112 -0.0527
 6534TIP3    H119559   4.386   5.084   3.398 -0.0054 -0.0934  1.0604
 6534TIP3    H219560   4.498   5.177   3.359 -0.9916  1.0962  1.0062
 6535TIP3   OH219561   3.888   7.141   0.037  0.4436 -0.2757  0.8520
 6535TIP3    H119562   3.954   7.117   0.102  0.5784 -0.2333  0.7319
 6535TIP3    H219563   3.914   7.093  -0.042 -0.0080 -0.7291  0.9710
 6536TIP3   OH219564   5.605   3.134   2.088  0.6047 -0.2081  0.2936
 6536TIP3    H119565   5.670   3.086   2.036 -0.9412  0.0003 -2.0072
 6536TIP3    H219566   5.588   3.213   2.036 -0.8065  0.1713  1.2950
 6537TIP3   OH219567   5.051   4.817   3.808  0.1675  0.0630  0.0110
 6537TIP3    H119568   4.992   4.838   3.736 -2.0205 -0.7588  1.4656
 6537TIP3    H219569   5.067   4.723   3.798  0.2721  0.0504  0.3051
 6538TIP3   OH219570   1.138   7.734   5.426 -0.5172  0.4780  0.4357
 6538TIP3    H119571   1.230   7.736   5.451 -0.1569 -1.1990 -0.5889
 6538TIP3    H219572   1.100   7.811   5.468  0.9907  0.3082  2.2505
 6539TIP3   OH219573   4.662   6.285  -0.012  0.7485 -0.4961 -0.5831
 6539TIP3    H119574   4.629   6.241   0.066  3.6304 -1.5454  0.1890
 6539TIP3    H219575   4.687   6.372   0.018  2.1347 -0.9987 -0.1824
 6540TIP3   OH219576   4.461   1.285   4.407  0.1953 -0.3198  0.0396
 6540TIP3    H119577   4.415   1.283   4.491 -0.2395  0.7871 -0.1572
 6540TIP3    H219578   4.393   1.308   4.344  0.8157  0.3410 -0.3988
 6541TIP3   OH219579   5.193   7.378   3.211  0.7808  0.1279  0.6203
 6541TIP3    H119580   5.276   7.377   3.163 -0.3481 -0.4077 -1.4428
 6541TIP3    H219581   5.189   7.292   3.252  0.9748 -0.0887  0.1979
 6542TIP3   OH219582   6.715   6.531   5.555 -0.1689 -0.3850 -0.1606
 6542TIP3    H119583   6.765   6.480   5.618 -0.8183 -0.4425  0.3129
 6542TIP3    H219584   6.624   6.516   5.579 -0.3750  0.7823 -0.1851
 6543TIP3   OH219585   5.857   3.551   2.903 -0.1848 -0.3668 -0.3417
 6543TIP3    H119586   5.921   3.620   2.888 -0.6440 -0.0740 -1.0188
 6543TIP3    H219587   5.794   3.561   2.831 -0.8863 -0.7608  0.2036
 6544TIP3   OH219588   4.524   3.065   0.545 -0.2652 -0.0084 -0.0791
 6544TIP3    H119589   4.618   3.056   0.534 -0.1132  1.9069 -0.6939
 6544TIP3    H219590   4.494   2.978   0.570  1.7851 -0.4443  1.0645
 6545TIP3   OH219591   5.734   7.550   6.127 -0.1604  0.1043 -0.1789
 6545TIP3    H119592   5.829   7.558   6.124 -0.1263  1.0555  1.8353
 6545TIP3    H219593   5.703   7.638   6.150 -1.7643  0.5114 -3.2927
 6546TIP3   OH219594   0.514   0.870   5.113 -0.0435  0.0136  0.3886
 6546TIP3    H119595   0.427   0.863   5.072  0.1415  1.5018 -0.3384
 6546TIP3    H219596   0.559   0.790   5.086 -1.5613 -1.3891  1.7899
 6547TIP3   OH219597   2.027   4.355   6.227 -0.2554 -0.6854 -0.6038
 6547TIP3    H119598   1.995   4.268   6.252 -0.7595 -0.6903 -1.2580
 6547TIP3    H219599   2.095   4.375   6.292 -1.6060 -0.6593  0.8660
 6548TIP3   OH219600   1.860   5.039   2.152  0.3097  0.0080 -0.2017
 6548TIP3    H119601   1.825   4.996   2.230 -0.6060  1.2164  0.0678
 6548TIP3    H219602   1.825   4.988   2.079  0.3719 -0.5388  0.1452
 6549TIP3   OH219603   5.464   2.637   4.304  0.4605  0.3017  0.1501
 6549TIP3    H119604   5.549   2.611   4.269  1.1670  1.5735  0.8557
 6549TIP3    H219605   5.445   2.721   4.262 -1.3599 -0.8073 -1.4186
 6550TIP3   OH219606   3.084   4.135   1.605 -0.1367  0.1458  0.3268
 6550TIP3    H119607   3.131   4.159   1.684  0.1597  0.5253  0.0336
 6550TIP3    H219608   3.090   4.212   1.548  1.0640 -0.6901 -0.7324
 6551TIP3   OH219609   2.844   3.394   3.587  0.0497 -0.4952 -0.2661
 6551TIP3    H119610   2.778   3.353   3.643  1.0328 -0.4518  0.9628
 6551TIP3    H219611   2.817   3.371   3.498 -1.4548 -0.7056  0.2157
 6552TIP3   OH219612   6.465   1.776   3.772 -0.1803 -0.0280 -0.3287
 6552TIP3    H119613   6.443   1.684   3.788 -0.5892 -0.1139 -1.3078
 6552TIP3    H219614   6.512   1.776   3.689  1.4260  0.4566  0.5256
 6553TIP3   OH219615   2.853   4.167   2.363  0.3630  0.3099  0.1218
 6553TIP3    H119616   2.771   4.119   2.351 -1.3734  2.5469  2.0077
 6553TIP3    H219617   2.893   4.127   2.440  1.5708 -1.3347 -1.2844
 6554TIP3   OH219618   6.300   7.396   3.973  0.8104  0.0985 -0.3962
 6554TIP3    H119619   6.254   7.313   3.985  2.7251 -0.7866  1.4199
 6554TIP3    H219620   6.268   7.429   3.889 -1.0666 -1.7469 -0.4917
 6555TIP3   OH219621   4.587   0.585   2.476 -0.1358 -0.4712 -0.2993
 6555TIP3    H119622   4.611   0.579   2.384 -1.5422  0.0576 -0.7169
 6555TIP3    H219623   4.572   0.679   2.491 -1.1318 -0.6921  0.1473
 6556TIP3   OH219624   5.487   4.429   0.012  0.0863  0.3515  0.3681
 6556TIP3    H119625   5.461   4.516  -0.017  0.1817  0.8604  1.7022
 6556TIP3    H219626   5.524   4.444   0.099 -0.6636 -1.1279  0.9727
 6557TIP3   OH219627   6.455   3.761   2.678 -0.5165 -0.3819  0.0068
 6557TIP3    H119628   6.509   3.831   2.716  1.6314 -1.3083 -1.1374
 6557TIP3    H219629   6.441   3.699   2.750  0.7116 -0.5439  0.1229
 6558TIP3   OH219630   7.637   1.956   6.095 -0.2343 -0.1768 -0.1150
 6558TIP3    H119631   7.711   1.954   6.034 -0.0072 -3.1603  0.1147
 6558TIP3    H219632   7.565   1.995   6.045  0.1352 -1.9347 -2.1692
 6559TIP3   OH219633   2.609   1.297   1.433  0.4929 -0.3563 -0.2628
 6559TIP3    H119634   2.604   1.207   1.467 -2.3823  0.3241  1.4311
 6559TIP3    H219635   2.638   1.349   1.508 -0.9532  0.5152 -0.2815
 6560TIP3   OH219636   2.712   1.031   2.671  0.3352  0.3735 -0.1594
 6560TIP3    H119637   2.680   1.115   2.639  3.5231  0.6678 -3.2055
 6560TIP3    H219638   2.806   1.045   2.685  1.2288 -2.9039 -1.9323
 6561TIP3   OH219639   1.488   0.368   0.178 -0.2670  0.0674 -0.2314
 6561TIP3    H119640   1.474   0.441   0.238 -0.2644 -0.6293  0.6465
 6561TIP3    H219641   1.525   0.407   0.099  1.0596  0.8557  0.7375
 6562TIP3   OH219642   2.672   2.142   3.735 -0.5349 -0.7364 -0.1119
 6562TIP3    H119643   2.612   2.130   3.809 -0.9764 -2.9155 -0.7399
 6562TIP3    H219644   2.666   2.235   3.714 -2.1017 -0.4978  1.1846
 6563TIP3   OH219645   8.242   6.259   4.397  0.0595  0.1781  0.1258
 6563TIP3    H119646   8.163   6.227   4.440 -1.4549  1.6916 -1.3660
 6563TIP3    H219647   8.262   6.341   4.441  0.4735  0.0859  0.1171
 6564TIP3   OH219648   5.353   6.413   1.506  0.2441 -0.1193 -0.2524
 6564TIP3    H119649   5.437   6.419   1.552  0.1695  1.5437 -0.2771
 6564TIP3    H219650   5.376   6.402   1.414  0.3911 -2.7828  0.0134
 6565TIP3   OH219651   0.765   4.511   0.385 -0.0018  0.3291  0.0175
 6565TIP3    H119652   0.756   4.603   0.408 -1.0532  0.6686 -1.5773
 6565TIP3    H219653   0.679   4.473   0.403  0.1513 -0.1281 -0.1976
 6566TIP3   OH219654   1.152   1.616   5.568 -0.3671  0.8280 -0.3621
 6566TIP3    H119655   1.215   1.632   5.498 -3.1286  1.0435 -2.9936
 6566TIP3    H219656   1.206   1.585   5.641  2.5778 -1.3183 -3.1229
 6567TIP3   OH219657   3.934   5.824   4.991 -0.3380 -0.1471 -0.0928
 6567TIP3    H119658   3.932   5.732   5.018 -0.7256  0.2965  1.5388
 6567TIP3    H219659   4.007   5.862   5.040 -1.0969  0.7210  0.4087
 6568TIP3   OH219660   0.566   0.150   0.852  0.3516 -0.6164 -0.2061
 6568TIP3    H119661   0.597   0.091   0.783  1.5894 -1.4434  1.0011
 6568TIP3    H219662   0.472   0.159   0.835  0.7289 -0.1803 -2.4221
 6569TIP3   OH219663   3.995   5.245   5.274  0.3534  0.2519 -0.2468
 6569TIP3    H119664   4.062   5.311   5.290 -1.8355  2.0439  2.2314
 6569TIP3    H219665   3.939   5.283   5.206  0.5431 -0.2491 -0.6923
 6570TIP3   OH219666   3.577   5.455   4.845  0.1833  0.2547 -0.2661
 6570TIP3    H119667   3.657   5.507   4.838 -1.1047  2.3839 -0.1931
 6570TIP3    H219668   3.515   5.500   4.787 -1.5894 -0.0205  1.3418
 6571TIP3   OH219669   3.760   4.300   1.437 -0.1744 -0.3624 -0.1133
 6571TIP3    H119670   3.690   4.324   1.376 -1.0943 -0.5624  0.8424
 6571TIP3    H219671   3.771   4.206   1.426  0.2358 -0.2706 -0.5451
 6572TIP3   OH219672   1.957   5.891   2.502 -0.6185  0.1459 -0.2934
 6572TIP3    H119673   2.035   5.864   2.550 -1.0586  0.5101  0.6576
 6572TIP3    H219674   1.927   5.812   2.457 -0.1355 -0.1822 -0.0473
 6573TIP3   OH219675   0.768   2.971   5.161  0.4222 -0.2371 -0.2308
 6573TIP3    H119676   0.822   3.045   5.131 -0.4789 -0.3515 -2.2908
 6573TIP3    H219677   0.688   2.977   5.108  0.2380 -2.5720 -0.3013
 6574TIP3   OH219678   7.420   4.731   6.751 -0.3293 -0.3504  0.3076
 6574TIP3    H119679   7.391   4.822   6.760 -3.3685 -1.1792  0.1650
 6574TIP3    H219680   7.383   4.703   6.667 -1.7117 -2.3745  1.5103
 6575TIP3   OH219681   5.111   0.955   1.629  0.8834 -0.5608 -0.3439
 6575TIP3    H119682   5.132   0.986   1.717  1.3115 -0.4348 -0.4838
 6575TIP3    H219683   5.030   0.906   1.639  0.0980  0.7234 -0.1272
 6576TIP3   OH219684   2.032   2.059   5.234  0.2203 -0.1655  0.0589
 6576TIP3    H119685   1.964   2.124   5.217  0.3175 -0.5315 -1.9955
 6576TIP3    H219686   2.110   2.095   5.192  0.9849 -0.3794  1.2396
 6577TIP3   OH219687   4.490   1.026   4.331 -0.5213  0.0586 -0.1928
 6577TIP3    H119688   4.529   1.031   4.244 -0.4372  1.1677 -0.1141
 6577TIP3    H219689   4.496   1.116   4.365 -0.2176 -0.4250  1.1071
 6578TIP3   OH219690   4.432   7.091   2.426  0.2043 -0.0370 -0.2887
 6578TIP3    H119691   4.381   7.152   2.478  1.0111  0.8811 -0.5374
 6578TIP3    H219692   4.477   7.036   2.491  1.7654  1.5614  0.0743
 6579TIP3   OH219693   3.196   3.843   4.434  0.5887 -0.0137  0.0595
 6579TIP3    H119694   3.225   3.934   4.431  1.9139 -0.3834 -3.9096
 6579TIP3    H219695   3.109   3.844   4.395  0.4438 -0.4024  0.3644
 6580TIP3   OH219696   0.559   2.732   2.988  0.5215 -0.3363 -0.0162
 6580TIP3    H119697   0.650   2.761   2.985 -0.0293  1.3958 -0.5687
 6580TIP3    H219698   0.528   2.738   2.898  0.0386 -1.5973  0.0392
 6581TIP3   OH219699   4.150   1.032   1.323 -0.6537  0.1072 -0.1435
 6581TIP3    H119700   4.209   1.107   1.312 -0.4003  0.1094  1.1004
 6581TIP3    H219701   4.132   1.029   1.417  0.8680 -2.5112  0.1712
 6582TIP3   OH219702   0.582   3.134   4.129  0.4643 -0.1225  0.5191
 6582TIP3    H119703   0.635   3.078   4.072  1.5343 -1.0456  2.3234
 6582TIP3    H219704   0.501   3.085   4.143 -0.4055  0.7299 -1.2456
 6583TIP3   OH219705   3.833   7.383   4.348 -0.2654 -0.2370  0.7997
 6583TIP3    H119706   3.812   7.405   4.257  1.8253  2.6432  0.8825
 6583TIP3    H219707   3.925   7.356   4.345 -0.0808  0.2032  2.1071
 6584TIP3   OH219708   4.278   0.785   2.753  0.4162  0.1864 -0.0441
 6584TIP3    H119709   4.250   0.702   2.791  0.8877 -1.3452 -2.8026
 6584TIP3    H219710   4.203   0.814   2.701  0.3480  1.3974  0.6917
 6585TIP3   OH219711   7.288   3.240   1.894  0.4810 -0.3472 -0.1521
 6585TIP3    H119712   7.383   3.233   1.885  0.7077 -0.1703  1.7888
 6585TIP3    H219713   7.275   3.308   1.960 -1.1213  2.0295 -2.7005
 6586TIP3   OH219714   7.995   6.509   2.004 -0.2039 -0.0819  0.0659
 6586TIP3    H119715   8.059   6.443   2.034 -0.8394 -1.5943 -1.6868
 6586TIP3    H219716   8.045   6.564   1.943 -0.3529 -0.8379 -0.7712
 6587TIP3   OH219717   1.444   6.432   2.828  0.4544 -0.7069 -0.2127
 6587TIP3    H119718   1.454   6.338   2.809  0.8515 -0.6734 -0.1786
 6587TIP3    H219719   1.402   6.434   2.914 -0.8756 -0.8563 -0.8295
 6588TIP3   OH219720   4.380   2.032   5.426  0.0593 -0.4178  0.4058
 6588TIP3    H119721   4.373   2.126   5.413 -1.1338 -0.3118  1.6079
 6588TIP3    H219722   4.332   2.015   5.508  1.9752 -1.7986  1.3182
 6589TIP3   OH219723   7.480   4.238   1.576  0.0612  0.3745 -0.1973
 6589TIP3    H119724   7.432   4.319   1.558 -1.4301 -0.9081 -2.6488
 6589TIP3    H219725   7.558   4.244   1.521  1.2682  1.1456  1.5078
 6590TIP3   OH219726   6.122   6.588   3.857 -0.0358  0.1187 -0.0500
 6590TIP3    H119727   6.186   6.620   3.793  0.9962  0.2153  1.0098
 6590TIP3    H219728   6.101   6.664   3.911 -2.4306  0.5543 -1.4470
 6591TIP3   OH219729   1.093   7.549   1.701  0.1967  0.6921  0.4667
 6591TIP3    H119730   1.087   7.600   1.781 -0.7682  0.1376  0.7638
 6591TIP3    H219731   1.056   7.464   1.723 -1.3610  0.9540 -0.9061
 6592TIP3   OH219732   1.250   6.482   0.828 -0.5250  0.2422 -0.2042
 6592TIP3    H119733   1.196   6.406   0.804  0.8683 -0.6270 -0.7156
 6592TIP3    H219734   1.220   6.552   0.769 -1.5870  0.0081  0.0304
 6593TIP3   OH219735   2.308   0.438   3.358  0.1599 -0.2248 -0.0361
 6593TIP3    H119736   2.219   0.473   3.367  0.0347 -0.7867  1.0678
 6593TIP3    H219737   2.295   0.347   3.331  0.4550  0.1491 -1.5208
 6594TIP3   OH219738   3.451   0.488   6.083 -0.4359 -0.3980  0.1619
 6594TIP3    H119739   3.522   0.546   6.056 -0.3977 -0.3474  0.3689
 6594TIP3    H219740   3.428   0.439   6.004 -0.6298  0.0689 -0.0736
 6595TIP3   OH219741   2.993   2.429   4.073  0.2005  0.4864 -0.1355
 6595TIP3    H119742   2.998   2.490   3.999 -0.6184  2.2614  1.2078
 6595TIP3    H219743   2.931   2.362   4.044 -1.0388  1.8010 -0.6441
 6596TIP3   OH219744   0.060   1.104   4.182 -0.0304  0.4125  0.3313
 6596TIP3    H119745  -0.007   1.041   4.154 -0.9809  0.7770  1.6734
 6596TIP3    H219746   0.109   1.124   4.103 -0.5367 -1.0275 -0.3819
 6597TIP3   OH219747   0.143   1.854   1.194  0.1076 -0.1146  0.2654
 6597TIP3    H119748   0.152   1.774   1.245  0.2641  0.2717  0.8660
 6597TIP3    H219749   0.148   1.826   1.103 -0.4900 -0.8606  0.4570
 6598TIP3   OH219750   0.466   0.489   4.332  0.1486 -0.0671 -0.5951
 6598TIP3    H119751   0.396   0.549   4.306  0.5979  0.4108 -0.6964
 6598TIP3    H219752   0.517   0.537   4.397 -0.6489 -1.0636  0.8232
 6599TIP3   OH219753   0.624   2.419   2.024 -0.4985  0.4095 -0.4852
 6599TIP3    H119754   0.675   2.425   1.943 -0.4006  3.7900 -0.3157
 6599TIP3    H219755   0.669   2.478   2.085 -1.5164 -0.7754  1.5063
 6600TIP3   OH219756   2.785   1.305   2.561 -0.4512 -0.1989  0.1695
 6600TIP3    H119757   2.696   1.337   2.547 -0.2794 -0.5973 -2.5170
 6600TIP3    H219758   2.836   1.382   2.585 -1.0412  0.5853 -1.0101
 6601TIP3   OH219759  -0.032   5.404   1.005  0.3344  0.1581 -0.5961
 6601TIP3    H119760  -0.006   5.373   1.092  0.2336  1.2732 -0.1493
 6601TIP3    H219761   0.043   5.454   0.974 -0.6554  2.1732  0.0843
 6602TIP3   OH219762   5.612   4.314   5.336 -0.3844  0.1859  0.4128
 6602TIP3    H119763   5.614   4.305   5.431 -0.0664 -0.6758  0.3280
 6602TIP3    H219764   5.519   4.325   5.315 -0.4469  0.4492  0.8306
 6603TIP3   OH219765   3.999   7.100   1.119 -0.8587  0.3784 -0.1482
 6603TIP3    H119766   3.998   7.080   1.025  0.2577  2.0282 -0.5474
 6603TIP3    H219767   3.946   7.030   1.158 -0.6922 -0.8062 -1.8958
 6604TIP3   OH219768   7.783   0.523   6.589  0.1133 -0.3192  0.0485
 6604TIP3    H119769   7.754   0.613   6.578 -1.1984 -0.5066  1.5651
 6604TIP3    H219770   7.769   0.483   6.503 -0.7820  0.5278 -0.2193
 6605TIP3   OH219771   5.813   3.271   5.733  0.0840 -0.3778  0.6349
 6605TIP3    H119772   5.862   3.326   5.672 -0.0683 -0.4834  0.4163
 6605TIP3    H219773   5.856   3.285   5.817 -0.7189  1.0763  0.8524
 6606TIP3   OH219774   1.007   7.320   2.869  0.0855  0.1158 -0.0300
 6606TIP3    H119775   0.967   7.233   2.863  2.3011 -0.8974 -1.0088
 6606TIP3    H219776   0.944   7.378   2.826 -0.8110 -1.2205 -0.5775
 6607TIP3   OH219777   2.532   4.474   0.709  0.3054  0.2498  0.5783
 6607TIP3    H119778   2.478   4.476   0.630 -0.0203  3.9353  0.7095
 6607TIP3    H219779   2.622   4.476   0.675  0.1971  0.4066  0.2893
 6608TIP3   OH219780   5.273   5.861   1.294  0.5375  0.4451  0.0086
 6608TIP3    H119781   5.260   5.818   1.378  0.6596  0.1653 -0.1130
 6608TIP3    H219782   5.267   5.790   1.230 -1.2241  0.8888 -0.3559
 6609TIP3   OH219783   5.869   3.200   3.991  0.0511 -0.4932  0.3949
 6609TIP3    H119784   5.777   3.175   3.988  0.3959 -1.8916  0.7037
 6609TIP3    H219785   5.873   3.284   3.945 -1.5858  0.2842  1.6017
 6610TIP3   OH219786   1.772   6.548   0.384 -0.8585  0.6063  0.9350
 6610TIP3    H119787   1.782   6.508   0.471  0.6598  1.6772  1.2944
 6610TIP3    H219788   1.752   6.640   0.403 -0.2948  0.8932  0.1488
 6611TIP3   OH219789   6.668   2.473   6.680  0.1319 -0.5448 -0.2166
 6611TIP3    H119790   6.725   2.526   6.624 -0.5172  0.0119 -0.3469
 6611TIP3    H219791   6.599   2.441   6.622 -1.4711  1.3458  0.5470
 6612TIP3   OH219792   0.077   5.960   4.557 -0.0098 -0.1954 -0.3766
 6612TIP3    H119793   0.166   5.964   4.592  0.2542  0.6532 -1.1009
 6612TIP3    H219794   0.029   6.028   4.605  0.3537  0.9738 -1.5931
 6613TIP3   OH219795   3.527   5.643   0.443  0.2026 -0.0332 -0.0162
 6613TIP3    H119796   3.584   5.719   0.436  0.7027 -0.3640  0.4214
 6613TIP3    H219797   3.460   5.658   0.376 -1.4843  2.2672  2.0179
 6614TIP3   OH219798   3.884   5.623   2.045  0.3203  0.3894  0.2545
 6614TIP3    H119799   3.975   5.648   2.028  0.1304  0.9717  0.0503
 6614TIP3    H219800   3.865   5.657   2.132 -1.1719  4.7862 -1.4824
 6615TIP3   OH219801   1.446   7.051   1.632  0.2558  0.2135  0.3569
 6615TIP3    H119802   1.462   7.145   1.624 -0.7298  0.2726 -1.8349
 6615TIP3    H219803   1.417   7.025   1.544  1.4825 -2.3485  0.6291
 6616TIP3   OH219804   6.376   0.709   3.028  0.2721 -0.1102 -0.2627
 6616TIP3    H119805   6.369   0.738   3.118  0.2813  1.1214 -0.6398
 6616TIP3    H219806   6.383   0.613   3.033 -1.6011 -0.2295  0.9277
 6617TIP3   OH219807   1.331   5.632   3.345 -0.7983 -0.5212  0.2204
 6617TIP3    H119808   1.258   5.690   3.324 -0.3921 -0.2845 -0.5550
 6617TIP3    H219809   1.409   5.684   3.328 -0.4379 -0.7269  1.1805
 6618TIP3   OH219810   7.458   7.441   0.524 -0.0251 -0.0255 -0.3264
 6618TIP3    H119811   7.362   7.447   0.520 -0.1341 -1.1392  0.1527
 6618TIP3    H219812   7.479   7.365   0.469  0.7174  1.0027 -1.5364
 6619TIP3   OH219813   4.978   0.809  -0.008 -0.0473  0.2501  0.2072
 6619TIP3    H119814   4.883   0.820  -0.000  0.1324  1.4667  1.0555
 6619TIP3    H219815   5.014   0.894   0.019  1.2704 -0.0324 -0.5764
 6620TIP3   OH219816   2.993   1.286   1.081 -0.3852 -0.2408  0.6308
 6620TIP3    H119817   2.972   1.320   1.168  0.1924  2.1619 -0.0782
 6620TIP3    H219818   2.909   1.286   1.035 -0.6339 -1.1901  1.0729
 6621TIP3   OH219819   4.320   0.704   5.047  0.1115 -0.2001  0.2402
 6621TIP3    H119820   4.404   0.667   5.021 -0.3307 -0.0883 -1.4911
 6621TIP3    H219821   4.330   0.798   5.033 -0.2906 -0.1872  0.0175
 6622TIP3   OH219822   0.592   7.600   2.702 -0.2496  0.0608  0.5274
 6622TIP3    H119823   0.685   7.580   2.700 -0.5597 -1.4486 -0.4011
 6622TIP3    H219824   0.588   7.695   2.695  1.2052  0.1212  0.1765
 6623TIP3   OH219825   0.970   5.465   5.122 -0.7073 -0.3050 -0.1636
 6623TIP3    H119826   0.944   5.433   5.036  0.1896  0.1900 -0.6369
 6623TIP3    H219827   0.894   5.449   5.178 -0.9300 -1.5702 -0.8023
 6624TIP3   OH219828   2.409   5.157   2.596  0.1890 -0.5240 -0.1399
 6624TIP3    H119829   2.411   5.221   2.524  1.2604 -1.6855 -1.1959
 6624TIP3    H219830   2.375   5.077   2.555 -0.4201 -0.8616  0.9833
 6625TIP3   OH219831   0.994   0.612   4.687  0.2479  0.0051  0.2310
 6625TIP3    H119832   0.960   0.685   4.637  0.0591 -0.7734 -0.8094
 6625TIP3    H219833   1.055   0.651   4.749  0.9661  0.9179 -1.0292
 6626TIP3   OH219834   7.977   0.935   3.385  0.1597  0.1678 -0.4377
 6626TIP3    H119835   7.984   0.842   3.365  1.0125  0.3739 -1.1934
 6626TIP3    H219836   7.891   0.961   3.351  0.6691  0.0272 -1.9145
 6627TIP3   OH219837   3.928   4.466   0.466 -0.2004 -0.7755 -0.3134
 6627TIP3    H119838   3.971   4.551   0.468 -1.1841 -0.2629 -0.3992
 6627TIP3    H219839   3.994   4.405   0.498  0.5712 -0.0102 -0.4104
 6628TIP3   OH219840   4.139   3.961   2.623  0.5644 -0.8579  0.4492
 6628TIP3    H119841   4.170   4.026   2.559  0.6242 -1.2807  0.0450
 6628TIP3    H219842   4.180   3.879   2.596 -0.5900 -1.3535  0.1450
 6629TIP3   OH219843   0.050   6.245   1.986 -0.0767  0.5602  0.2339
 6629TIP3    H119844   0.061   6.318   1.925 -1.1174  0.0876 -0.5513
 6629TIP3    H219845   0.047   6.168   1.930 -2.0295  0.2010  0.7634
 6630TIP3   OH219846   4.646   0.771   4.174 -0.1968  0.1259 -0.6362
 6630TIP3    H119847   4.648   0.721   4.256  1.3928 -3.0474 -2.4270
 6630TIP3    H219848   4.560   0.754   4.137  0.1229 -0.9190 -0.9474
 6631TIP3   OH219849   2.401   5.509   0.535  0.2717  0.4031 -0.2269
 6631TIP3    H119850   2.353   5.520   0.618 -1.4466  1.6452 -1.3027
 6631TIP3    H219851   2.366   5.428   0.498 -1.0887  1.3058 -1.0090
 6632TIP3   OH219852   4.011   1.861   0.803  0.2604 -0.3202 -0.2711
 6632TIP3    H119853   3.974   1.808   0.733  0.9962  0.2314 -1.0936
 6632TIP3    H219854   4.083   1.809   0.837  0.2134 -0.3727 -0.2519
 6633TIP3   OH219855   5.015   0.361   6.543  0.3836  0.3556  0.2641
 6633TIP3    H119856   4.935   0.324   6.581 -0.4447  1.2113 -0.6035
 6633TIP3    H219857   5.005   0.455   6.552  0.7251  0.5237 -0.9500
 6634TIP3   OH219858   1.053   7.313   0.454  0.4116 -0.2238 -0.2984
 6634TIP3    H119859   0.963   7.315   0.420  0.2204  1.0450  0.2358
 6634TIP3    H219860   1.095   7.242   0.405 -0.4189  0.2347 -1.7559
 6635TIP3   OH219861   4.710   7.002   4.542  0.0969  0.2346 -0.1799
 6635TIP3    H119862   4.646   7.062   4.580  1.4798  1.5331  0.1741
 6635TIP3    H219863   4.718   7.030   4.451 -0.8257 -0.8219 -0.6172
 6636TIP3   OH219864   6.233   2.945   5.290 -0.1170 -0.8985 -0.0436
 6636TIP3    H119865   6.186   3.028   5.281  1.5052 -0.1530 -2.7756
 6636TIP3    H219866   6.164   2.879   5.297 -1.5496  0.3678 -1.4216
 6637TIP3   OH219867   2.200   5.357   1.101 -0.4005  0.0071  0.1506
 6637TIP3    H119868   2.152   5.294   1.047 -0.2249  1.4698 -1.8226
 6637TIP3    H219869   2.152   5.439   1.091  2.2798  1.5167 -1.8287
 6638TIP3   OH219870   6.348   3.594   3.446 -0.4654  0.3311  0.3968
 6638TIP3    H119871   6.426   3.647   3.462 -1.3381  1.4012  1.2915
 6638TIP3    H219872   6.382   3.504   3.440  0.9727  0.8972 -0.5921
 6639TIP3   OH219873   0.484   1.923   2.486 -0.6505  0.3575  0.0318
 6639TIP3    H119874   0.573   1.958   2.488  0.6589 -2.6618 -0.5344
 6639TIP3    H219875   0.449   1.951   2.401 -0.0687  1.0695  0.0124
 6640TIP3   OH219876   7.628   6.019   0.691  0.2794  0.1238  0.1953
 6640TIP3    H119877   7.602   5.980   0.775 -0.2387  1.3626  0.6493
 6640TIP3    H219878   7.723   6.028   0.697  0.3972 -0.9604  0.1129
 6641TIP3   OH219879   4.412   5.299   2.522 -0.3345 -0.6110 -0.3138
 6641TIP3    H119880   4.398   5.282   2.429  0.5130 -1.0886 -0.3637
 6641TIP3    H219881   4.507   5.305   2.532 -0.3727 -1.2544  0.6311
 6642TIP3   OH219882   2.432   3.073   1.199 -0.1724  0.6001 -0.0610
 6642TIP3    H119883   2.518   3.033   1.210 -1.2763 -2.4146 -1.2904
 6642TIP3    H219884   2.384   3.050   1.279 -0.4190  0.6715 -0.1873
 6643TIP3   OH219885   2.508   0.501   5.477 -0.1552  0.2002 -0.1183
 6643TIP3    H119886   2.598   0.487   5.449 -0.1883 -0.3434  0.0348
 6643TIP3    H219887   2.475   0.414   5.498  0.1783  0.6218  2.5356
 6644TIP3   OH219888   2.166   4.118   3.262 -0.0565  0.5485  0.4802
 6644TIP3    H119889   2.253   4.145   3.234 -0.3980  0.9864 -0.2011
 6644TIP3    H219890   2.158   4.028   3.230 -0.3683  0.9802 -0.7028
 6645TIP3   OH219891   7.379   1.955   4.880  0.0487  0.5929 -0.0548
 6645TIP3    H119892   7.458   1.928   4.832  0.3763 -0.1338  0.8694
 6645TIP3    H219893   7.312   1.964   4.812  1.1570  2.2084 -0.9878
 6646TIP3   OH219894   6.951   2.168   4.763  0.6444  0.4307  0.8262
 6646TIP3    H119895   6.998   2.219   4.828  2.0023 -1.2422  1.2409
 6646TIP3    H219896   6.953   2.078   4.797 -1.2652 -0.0076 -0.0700
 6647TIP3   OH219897   0.280   4.462   3.611 -0.2039 -0.4465  0.7075
 6647TIP3    H119898   0.278   4.374   3.649  0.1532 -0.9500 -0.4028
 6647TIP3    H219899   0.373   4.485   3.608 -0.2525 -0.2843  0.4293
 6648TIP3   OH219900   0.087   4.405   5.009  0.2698 -0.2264 -0.1031
 6648TIP3    H119901  -0.005   4.429   5.021  0.6327  1.2468 -0.0299
 6648TIP3    H219902   0.135   4.464   5.068  1.4087  0.6030 -1.7688
 6649TIP3   OH219903   7.784   2.311   4.459 -0.7041  0.0516 -0.3126
 6649TIP3    H119904   7.742   2.359   4.531  1.4592  0.4347  0.7621
 6649TIP3    H219905   7.735   2.229   4.454 -2.7134  1.1803 -0.3522
 6650TIP3   OH219906   5.586   6.242   2.897  0.4165  0.6130  0.1007
 6650TIP3    H119907   5.642   6.164   2.901  1.2645  0.9198 -3.0782
 6650TIP3    H219908   5.647   6.315   2.912  0.4228  0.8267 -0.9044
 6651TIP3   OH219909   3.440   2.442   1.516  0.1662 -0.0381  0.1208
 6651TIP3    H119910   3.503   2.386   1.560 -0.4883 -1.0405 -0.1975
 6651TIP3    H219911   3.447   2.526   1.562  0.9268 -0.4582  0.8024
 6652TIP3   OH219912   1.631   0.552   5.071 -0.4868  0.0474 -0.3769
 6652TIP3    H119913   1.724   0.574   5.073 -0.7149  1.1469 -0.8259
 6652TIP3    H219914   1.627   0.467   5.028  0.2041  0.7629 -1.9163
 6653TIP3   OH219915   0.569   5.132   4.687  0.6572  0.0440 -0.2063
 6653TIP3    H119916   0.654   5.155   4.648  0.9311  0.9034  0.8375
 6653TIP3    H219917   0.581   5.043   4.719  1.1827  0.1781 -0.0249
 6654TIP3   OH219918   3.453   0.349   5.466  0.1978  0.2242 -0.5417
 6654TIP3    H119919   3.528   0.405   5.488 -0.8968  1.8474 -0.8020
 6654TIP3    H219920   3.444   0.357   5.371  0.5143 -1.0927 -0.7114
 6655TIP3   OH219921   5.595   5.738   4.418  0.1656  0.1010  0.3648
 6655TIP3    H119922   5.511   5.736   4.373  0.8400  0.0347 -0.9477
 6655TIP3    H219923   5.660   5.720   4.349  1.3750  1.6332  1.0292
 6656TIP3   OH219924   4.124   5.434   1.896  0.9106 -0.1314 -0.7880
 6656TIP3    H119925   4.200   5.423   1.839  0.2222  3.6051 -2.7560
 6656TIP3    H219926   4.134   5.521   1.934  0.3573 -1.7055  3.5522
 6657TIP3   OH219927   5.406   5.798   0.191  0.4787 -0.3892  0.2191
 6657TIP3    H119928   5.421   5.822   0.282 -0.6612  1.2213  0.0208
 6657TIP3    H219929   5.312   5.811   0.178  0.5698 -0.8891 -1.1148
 6658TIP3   OH219930   5.198   4.750   4.469 -0.3865 -0.5116  0.1144
 6658TIP3    H119931   5.249   4.820   4.429 -2.5059  1.8886  1.3304
 6658TIP3    H219932   5.187   4.685   4.400  1.1726  0.5922 -1.2415
 6659TIP3   OH219933   7.048   0.471   3.175  0.2169  0.6235 -0.4226
 6659TIP3    H119934   7.089   0.395   3.133  1.4287  0.3342  1.1683
 6659TIP3    H219935   6.955   0.462   3.157  0.4541 -0.7232 -1.0812
 6660TIP3   OH219936   3.684   3.061   4.535  0.1848  0.0570  0.1145
 6660TIP3    H119937   3.625   2.986   4.544 -0.9753  0.9824  0.4486
 6660TIP3    H219938   3.636   3.123   4.479  0.7358  0.9281  0.5747
 6661TIP3   OH219939   6.203   6.240   1.285 -0.1970  0.0364  0.1400
 6661TIP3    H119940   6.216   6.261   1.193 -0.0238 -1.0878 -0.1068
 6661TIP3    H219941   6.118   6.279   1.307 -1.2868 -1.5124 -1.0957
 6662TIP3   OH219942   7.279   1.645   4.029  0.5544  0.0867 -0.1127
 6662TIP3    H119943   7.330   1.606   3.959  2.3800 -2.0394  2.2013
 6662TIP3    H219944   7.336   1.713   4.065 -0.7351  1.8029 -1.1575
 6663TIP3   OH219945   1.205   6.213   6.149 -0.3822  0.5719 -0.4888
 6663TIP3    H119946   1.132   6.272   6.169  0.0326  1.2371 -0.9173
 6663TIP3    H219947   1.188   6.135   6.202 -0.8941  1.1058  0.1478
 6664TIP3   OH219948   7.673   7.088   5.038  0.1294  0.4342 -0.0516
 6664TIP3    H119949   7.669   7.144   4.959 -0.5548  1.8782  0.9613
 6664TIP3    H219950   7.642   7.003   5.008  0.5221  0.7565 -1.4995
 6665TIP3   OH219951   5.652   0.704   5.287  0.1308  0.2192 -0.0062
 6665TIP3    H119952   5.598   0.705   5.366  1.9941 -2.7867  1.4688
 6665TIP3    H219953   5.721   0.768   5.304  0.9663 -0.9717  1.2026
 6666TIP3   OH219954   5.065   1.049   0.095  0.2948 -0.2978 -0.1884
 6666TIP3    H119955   5.041   1.099   0.173  0.7698  0.1586 -0.3279
 6666TIP3    H219956   5.047   1.108   0.022 -0.4781 -0.8495 -0.4510
 6667TIP3   OH219957   5.833   3.249   1.524  0.0635 -0.2469 -0.0870
 6667TIP3    H119958   5.759   3.291   1.480  0.2166 -0.5485 -0.6302
 6667TIP3    H219959   5.821   3.271   1.617 -0.9128 -0.6013 -0.1211
 6668TIP3   OH219960   4.244   1.566   6.713 -0.2594  0.1690 -0.2286
 6668TIP3    H119961   4.262   1.648   6.760  1.9184 -0.4878  0.1935
 6668TIP3    H219962   4.328   1.540   6.677 -0.6460 -2.4157  0.5281
 6669TIP3   OH219963   7.840   4.597   1.924 -0.2760 -0.4009 -0.5533
 6669TIP3    H119964   7.877   4.659   1.987  0.2044 -1.5054  0.2810
 6669TIP3    H219965   7.901   4.600   1.850 -0.7527  0.7795 -0.9225
 6670TIP3   OH219966   2.341   2.412   0.708  0.0654 -0.1534 -0.4743
 6670TIP3    H119967   2.333   2.432   0.801  0.6260  3.0377 -0.9992
 6670TIP3    H219968   2.251   2.416   0.675  0.0901  0.9041 -0.4320
 6671TIP3   OH219969   2.461   0.277   6.032  0.5850  0.1960  0.1003
 6671TIP3    H119970   2.399   0.208   6.012  1.5653 -0.1588 -1.9996
 6671TIP3    H219971   2.471   0.325   5.950  0.2821  2.5816  1.3738
 6672TIP3   OH219972   7.796   1.554   5.576  0.0765 -0.3640  0.5021
 6672TIP3    H119973   7.886   1.586   5.574  0.0817 -0.3915  0.2699
 6672TIP3    H219974   7.759   1.582   5.493  0.0489 -0.8720  0.3389
 6673TIP3   OH219975   1.807   2.749   3.002 -0.0571  0.2945 -0.1301
 6673TIP3    H119976   1.826   2.809   3.074 -0.7403  1.7228 -1.0761
 6673TIP3    H219977   1.889   2.743   2.953 -0.3154  1.5739 -0.7749
 6674TIP3   OH219978   4.632   6.733   2.000 -0.3722 -0.7906 -0.1410
 6674TIP3    H119979   4.623   6.676   1.924 -0.4558 -1.3552  0.2892
 6674TIP3    H219980   4.547   6.777   2.007 -0.1152 -0.1624 -0.8231
 6675TIP3   OH219981   7.390   4.551   1.734 -0.6960  0.2463 -0.4008
 6675TIP3    H119982   7.458   4.567   1.799  0.4112  0.1134 -1.4787
 6675TIP3    H219983   7.321   4.505   1.782 -0.2798  0.8698  0.8464
 6676TIP3   OH219984   3.708   0.049   0.676  0.5893  0.1678 -1.0003
 6676TIP3    H119985   3.735  -0.039   0.653 -1.7152 -0.7799 -0.3794
 6676TIP3    H219986   3.710   0.051   0.772 -0.5445  0.3464 -0.9641
 6677TIP3   OH219987   4.758   3.857   4.281  0.5265  0.0479 -0.2454
 6677TIP3    H119988   4.815   3.822   4.213 -1.8436  0.6864 -2.7324
 6677TIP3    H219989   4.817   3.905   4.340  2.6865 -0.5310 -1.8229
 6678TIP3   OH219990   7.564   6.705   1.117 -0.2078  0.2730 -0.2651
 6678TIP3    H119991   7.569   6.693   1.212  1.3064  1.0096 -0.2281
 6678TIP3    H219992   7.560   6.800   1.105 -0.0021  0.1959 -0.9573
 6679TIP3   OH219993   6.358   4.445   6.609  0.2894 -0.0443  0.2359
 6679TIP3    H119994   6.422   4.438   6.679  1.2128 -0.3575 -0.6133
 6679TIP3    H219995   6.372   4.532   6.572  1.0757 -0.5671 -0.7344
 6680TIP3   OH219996   7.896   3.792   3.617 -0.4385 -0.5072 -0.1750
 6680TIP3    H119997   7.804   3.774   3.597 -0.9805  1.3021  0.5400
 6680TIP3    H219998   7.927   3.713   3.660 -1.2769 -1.6429 -1.5436
 6681TIP3   OH219999   0.302   7.182   6.326  0.0557  0.3560  0.3104
 6681TIP3    H120000   0.247   7.163   6.403 -0.2010 -1.7595 -0.3292
 6681TIP3    H220001   0.370   7.115   6.328  1.1100  1.3715 -0.3548
 6682TIP3   OH220002   6.051   5.426   6.338 -0.4598 -0.9584  0.2067
 6682TIP3    H120003   5.985   5.377   6.387  1.7803 -2.2032  2.1844
 6682TIP3    H220004   6.092   5.482   6.403 -0.0882  0.4419 -1.1624
 6683TIP3   OH220005   2.964   7.230   3.861 -0.0669 -0.0893  0.4395
 6683TIP3    H120006   2.926   7.308   3.819 -1.3819 -0.3587  1.0686
 6683TIP3    H220007   3.009   7.185   3.790 -0.5108  0.5154 -0.2489
 6684TIP3   OH220008   4.789   3.830   0.568  0.3088 -0.1339 -0.1450
 6684TIP3    H120009   4.836   3.749   0.550  0.1448 -0.2837  0.0906
 6684TIP3    H220010   4.852   3.899   0.551  1.0837 -0.3755  1.5118
 6685TIP3   OH220011   1.321   3.619   2.963 -0.0082  0.2953 -0.1924
 6685TIP3    H120012   1.329   3.713   2.975  0.3763  0.0898  1.4565
 6685TIP3    H220013   1.311   3.584   3.052 -0.3378 -1.2007 -0.7825
 6686TIP3   OH220014   3.295   4.021   4.125 -0.3957  0.2606  0.1434
 6686TIP3    H120015   3.207   4.015   4.163 -0.4673 -2.3085 -0.2258
 6686TIP3    H220016   3.287   3.977   4.040  1.1829  0.2380 -0.0175
 6687TIP3   OH220017   1.879   0.740   1.750  0.1689  0.0572 -0.4444
 6687TIP3    H120018   1.817   0.722   1.680 -0.2031 -0.3239 -0.0267
 6687TIP3    H220019   1.845   0.691   1.825  0.0170  1.2436  0.2903
 6688TIP3   OH220020   3.770   6.549   2.596  0.2614  0.5734  0.4825
 6688TIP3    H120021   3.781   6.528   2.503  0.2562  1.8637  0.1791
 6688TIP3    H220022   3.677   6.533   2.612  0.8357 -2.9098  1.1515
 6689TIP3   OH220023   3.316   6.169   1.513 -0.5901  0.2074 -0.2462
 6689TIP3    H120024   3.377   6.101   1.486 -0.4816  1.2925 -3.1185
 6689TIP3    H220025   3.233   6.124   1.528  0.0947 -0.8427  0.4773
 6690TIP3   OH220026   5.504   5.145   4.788 -0.0786 -0.4243 -0.1235
 6690TIP3    H120027   5.457   5.128   4.869  2.2550 -2.5783  0.8895
 6690TIP3    H220028   5.565   5.215   4.810  0.7087 -1.1624  0.0592
 6691TIP3   OH220029   5.765   4.001   3.323  0.2453 -0.5030 -0.7417
 6691TIP3    H120030   5.716   4.078   3.294 -0.9083 -0.9544 -0.0825
 6691TIP3    H220031   5.791   3.958   3.242 -1.7433 -1.0184 -1.1613
 6692TIP3   OH220032   3.520   1.698   1.857 -0.2704 -0.4595  0.7919
 6692TIP3    H120033   3.497   1.611   1.890 -1.3329  0.0942  1.5791
 6692TIP3    H220034   3.591   1.727   1.914 -2.2009  0.5587  2.8514
 6693TIP3   OH220035   7.823   4.213   2.477 -0.6549 -0.0428  0.1221
 6693TIP3    H120036   7.857   4.277   2.415  1.9551 -1.0894  0.3580
 6693TIP3    H220037   7.745   4.177   2.434  1.1484 -0.8747 -2.7212
 6694TIP3   OH220038   0.427   2.133   2.039 -0.1470 -0.1058 -0.8102
 6694TIP3    H120039   0.485   2.207   2.022 -1.1973  0.9757  0.1153
 6694TIP3    H220040   0.470   2.059   1.998  1.2530  0.8987 -1.2330
 6695TIP3   OH220041   1.611   3.629   5.019  0.0818  0.4141  0.0983
 6695TIP3    H120042   1.590   3.553   5.071 -2.3352 -0.5507 -2.0769
 6695TIP3    H220043   1.532   3.683   5.020  0.0442  0.5240 -2.1523
 6696TIP3   OH220044   1.731   6.808   4.484 -0.0312 -0.0538  0.7528
 6696TIP3    H120045   1.689   6.893   4.468  0.0392  0.1419  1.5386
 6696TIP3    H220046   1.810   6.809   4.430 -0.6475 -0.1113 -0.1519
 6697TIP3   OH220047   1.771   0.943   4.633  0.3714 -0.0436  0.0365
 6697TIP3    H120048   1.720   0.917   4.709  0.1179 -1.3590 -0.5587
 6697TIP3    H220049   1.708   0.988   4.576  0.5185  0.7697  0.5021
 6698TIP3   OH220050   0.792   6.911   6.747 -1.0678 -0.2269  1.1489
 6698TIP3    H120051   0.728   6.908   6.818 -1.7600  0.4918  0.5765
 6698TIP3    H220052   0.755   6.973   6.685 -0.1237 -0.3059  0.4934
 6699TIP3   OH220053   3.087   7.280   2.726  0.0351 -0.2147  0.6363
 6699TIP3    H120054   3.175   7.288   2.761 -0.3345  0.3058  1.4850
 6699TIP3    H220055   3.032   7.328   2.788 -0.9239 -1.0055  0.4271
 6700TIP3   OH220056   1.744   5.263   4.112 -0.2197  0.5582  0.1128
 6700TIP3    H120057   1.758   5.253   4.018  0.0466  0.8887  0.1182
 6700TIP3    H220058   1.791   5.190   4.151  2.0806  1.9834  0.1780
 6701TIP3   OH220059   7.337   1.796   6.118  0.0018  0.7614  0.5452
 6701TIP3    H120060   7.344   1.754   6.032 -2.1963  0.6505  0.3729
 6701TIP3    H220061   7.348   1.889   6.100  0.9418  0.6310  0.3717
 6702TIP3   OH220062   5.893   2.638   3.738  0.4573  0.9010  0.1333
 6702TIP3    H120063   5.919   2.608   3.651 -0.0543 -0.7796  0.5206
 6702TIP3    H220064   5.801   2.614   3.745  0.3007  1.6969  0.8620
 6703TIP3   OH220065   3.711   7.238   3.899 -0.2162 -0.8548 -0.2219
 6703TIP3    H120066   3.718   7.290   3.979 -2.5588 -0.5335 -0.1696
 6703TIP3    H220067   3.768   7.163   3.914  1.0397  0.2543  0.8541
 6704TIP3   OH220068   1.077   1.329   2.330  0.0313  0.1618 -0.1519
 6704TIP3    H120069   1.029   1.329   2.247  0.9380  0.5851 -0.6904
 6704TIP3    H220070   1.080   1.236   2.355  0.6419 -0.1039 -1.1389
 6705TIP3   OH220071   6.857   6.002   3.420 -0.1239  0.2473  0.6459
 6705TIP3    H120072   6.820   5.990   3.332  1.9377  0.2944 -0.2719
 6705TIP3    H220073   6.801   5.948   3.476 -0.2722 -1.4562 -1.0182
 6706TIP3   OH220074   6.731   5.667   0.213  0.5156 -0.0380  0.0170
 6706TIP3    H120075   6.710   5.700   0.126 -1.1770  0.1274  0.4438
 6706TIP3    H220076   6.752   5.745   0.264 -0.3849  0.0764  0.2276
 6707TIP3   OH220077   0.694   1.204   3.542  0.2335 -0.1925 -0.0910
 6707TIP3    H120078   0.609   1.225   3.580 -1.2500 -1.9761 -2.1269
 6707TIP3    H220079   0.712   1.115   3.572  2.7476  0.9873  2.3784
 6708TIP3   OH220080   5.635   3.155   6.712 -0.3616  0.5314 -0.3269
 6708TIP3    H120081   5.560   3.095   6.716 -0.4565  0.1845 -4.0131
 6708TIP3    H220082   5.597   3.237   6.682  0.4594  1.0343 -0.0138
 6709TIP3   OH220083   7.650   3.549   0.578 -0.3508 -0.1032 -0.2552
 6709TIP3    H120084   7.645   3.459   0.610  0.2832  0.1165  0.5013
 6709TIP3    H220085   7.604   3.548   0.494 -0.1216 -1.1849 -0.3768
 6710TIP3   OH220086   4.983   6.306   3.161  0.3447 -0.4906 -0.1187
 6710TIP3    H120087   5.017   6.356   3.087 -0.6941 -0.7500 -0.7978
 6710TIP3    H220088   4.981   6.215   3.129 -1.5579 -0.3983 -0.3523
 6711TIP3   OH220089   3.445   3.426   1.462  0.0495  0.8250  0.1222
 6711TIP3    H120090   3.512   3.405   1.396 -0.3084  0.5162 -0.1472
 6711TIP3    H220091   3.446   3.521   1.468  1.4693  0.7786  1.1089
 6712TIP3   OH220092   3.705   3.533   6.518  0.5308  0.9501  0.8219
 6712TIP3    H120093   3.771   3.589   6.559  1.1173  0.3836  0.6664
 6712TIP3    H220094   3.696   3.459   6.578  0.8736  0.4647  0.2812
 6713TIP3   OH220095   5.390   0.273   1.353 -0.5569 -0.2341  0.5893
 6713TIP3    H120096   5.478   0.236   1.367 -0.2623  0.9037  1.9246
 6713TIP3    H220097   5.346   0.262   1.437 -1.8241 -1.0560 -0.1556
 6714TIP3   OH220098   4.927   2.860   4.761 -0.1375 -0.4878 -0.2001
 6714TIP3    H120099   5.017   2.860   4.728 -0.2841  1.4539 -0.6928
 6714TIP3    H220100   4.875   2.892   4.687 -0.9562  0.3804  0.7432
 6715TIP3   OH220101   3.369   5.876   2.062  0.3230 -0.1197 -0.2422
 6715TIP3    H120102   3.361   5.784   2.037  0.1805 -0.0878 -0.3147
 6715TIP3    H220103   3.300   5.889   2.128  0.1632  0.0034 -0.4308
 6716TIP3   OH220104   2.640   4.280   4.185 -0.0369  0.6001  0.2488
 6716TIP3    H120105   2.665   4.357   4.238 -0.0779  1.0243 -0.3390
 6716TIP3    H220106   2.571   4.313   4.127  0.2629  0.2222 -0.3184
 6717TIP3   OH220107   0.033   6.772   5.021  0.1599  0.1233  0.1645
 6717TIP3    H120108   0.113   6.819   5.044 -0.9615  0.8391  2.9700
 6717TIP3    H220109   0.062   6.683   5.004  1.7258  0.7212 -0.5349
 6718TIP3   OH220110   2.185   6.915   1.621 -0.6913  0.2050 -0.1853
 6718TIP3    H120111   2.263   6.927   1.567 -1.3901 -2.4862 -2.0335
 6718TIP3    H220112   2.118   6.968   1.578 -0.6187  0.0807 -0.4551
 6719TIP3   OH220113   5.131   0.185   5.928  0.1310  0.3621  0.1607
 6719TIP3    H120114   5.174   0.100   5.926 -0.6970 -0.0586 -0.7251
 6719TIP3    H220115   5.122   0.205   6.021  1.4603  0.0771  0.3622
 6720TIP3   OH220116   7.195   6.321   4.492  0.0546 -0.1015  0.0260
 6720TIP3    H120117   7.284   6.316   4.459  0.1766 -0.0654  0.3455
 6720TIP3    H220118   7.172   6.231   4.513 -0.1428 -0.1689 -0.4635
 6721TIP3   OH220119   6.016   4.665   0.855  0.2792 -0.7074 -0.3145
 6721TIP3    H120120   5.932   4.709   0.868  0.5111 -0.4109  0.1900
 6721TIP3    H220121   6.042   4.691   0.766  0.4421  0.2446 -0.0028
 6722TIP3   OH220122   5.016   0.555   0.061  0.2627  0.2270 -0.5079
 6722TIP3    H120123   5.051   0.547   0.150 -1.6331  0.1803  0.2709
 6722TIP3    H220124   5.001   0.649   0.049  0.3479  0.2151 -0.7211
 6723TIP3   OH220125   4.263   3.394   5.266  0.1531  0.2242 -0.1821
 6723TIP3    H120126   4.194   3.338   5.229 -0.5808  0.3634  0.9443
 6723TIP3    H220127   4.250   3.479   5.223 -0.9214  0.4883  0.6213
 6724TIP3   OH220128   5.328   5.435   4.393  0.2245 -0.0595  0.1063
 6724TIP3    H120129   5.309   5.380   4.317  0.3582 -1.6495  1.1571
 6724TIP3    H220130   5.241   5.453   4.431 -0.0664  2.6417 -1.5986
 6725TIP3   OH220131   1.907   1.402   4.019  0.2532  0.4502 -0.2906
 6725TIP3    H120132   1.858   1.321   4.031  1.0272  0.0231  0.0161
 6725TIP3    H220133   1.977   1.399   4.084  0.5816  1.1384 -0.5944
 6726TIP3   OH220134  -0.010   4.824   2.396 -0.1090  0.1122 -0.0354
 6726TIP3    H120135   0.071   4.874   2.405  0.2340 -0.4583  0.1252
 6726TIP3    H220136   0.008   4.742   2.442 -0.6625 -0.1570 -0.2929
 6727TIP3   OH220137   3.629   5.153   0.056 -0.0133  0.3247 -0.1939
 6727TIP3    H120138   3.592   5.087  -0.003  1.1240 -1.3345  0.8566
 6727TIP3    H220139   3.698   5.106   0.103  3.2013  3.0678 -1.7223
 6728TIP3   OH220140   0.898   7.343   1.624 -0.0005  0.0433 -0.4474
 6728TIP3    H120141   0.822   7.318   1.676  1.3343 -0.3595  1.4235
 6728TIP3    H220142   0.861   7.379   1.543 -2.1350 -1.1613 -0.1037
 6729TIP3   OH220143   1.735   1.718   5.259 -0.1212  0.4316  0.1639
 6729TIP3    H120144   1.795   1.648   5.233 -0.2287  0.1537  0.6587
 6729TIP3    H220145   1.714   1.762   5.177  0.5202  0.3431 -0.0550
 6730TIP3   OH220146   2.910   5.699   2.573 -0.1236 -0.3387  0.5213
 6730TIP3    H120147   2.868   5.626   2.618 -0.1556 -0.5713  0.1229
 6730TIP3    H220148   2.858   5.711   2.493  1.0628 -1.2069 -0.4311
 6731TIP3   OH220149   8.215   4.395   1.873 -0.0342 -0.9258 -0.2126
 6731TIP3    H120150   8.306   4.372   1.857 -0.1408 -1.2470 -0.3715
 6731TIP3    H220151   8.171   4.311   1.885 -0.4828 -0.8264 -1.0817
 6732TIP3   OH220152   3.577   6.003   5.361  0.6216  0.6932 -0.7076
 6732TIP3    H120153   3.639   6.069   5.330  0.3695  1.0903 -0.3927
 6732TIP3    H220154   3.564   6.024   5.453 -1.0847  1.5536 -1.0934
 6733TIP3   OH220155   4.098   7.651   2.105  0.0982 -0.1096  0.4926
 6733TIP3    H120156   4.169   7.696   2.058 -0.7617 -0.2717 -1.0457
 6733TIP3    H220157   4.123   7.655   2.197  0.7500  2.2907  0.2822
 6734TIP3   OH220158   0.617   1.023   6.073  0.0112  0.3381 -0.0380
 6734TIP3    H120159   0.631   1.101   6.127  0.5611 -0.1082  0.4725
 6734TIP3    H220160   0.695   1.018   6.018  0.5689 -0.5446  0.8073
 6735TIP3   OH220161   3.667   6.759   2.173  0.3757 -0.2528 -0.0926
 6735TIP3    H120162   3.599   6.786   2.235 -0.3283 -2.1726  0.0619
 6735TIP3    H220163   3.704   6.840   2.140 -2.0834  0.8610 -0.2769
 6736TIP3   OH220164   0.840   5.816   6.289  0.1473 -0.4130  0.4147
 6736TIP3    H120165   0.786   5.836   6.212  2.2603  1.8288 -0.6170
 6736TIP3    H220166   0.865   5.725   6.277 -0.1577 -0.3167 -1.1813
 6737TIP3   OH220167   2.045   2.352   4.732  0.2074 -0.3932  0.0002
 6737TIP3    H120168   2.122   2.396   4.768 -0.3524 -0.0026  0.7558
 6737TIP3    H220169   2.029   2.279   4.792 -0.9273  0.4564  0.7647
 6738TIP3   OH220170   4.633   5.492   1.353  0.1008  0.4677  0.0463
 6738TIP3    H120171   4.594   5.449   1.278 -0.7376 -1.2052  1.3676
 6738TIP3    H220172   4.726   5.471   1.347 -0.3531 -2.2275  0.9761
 6739TIP3   OH220173   4.456   6.672   2.714 -0.4602 -0.4951  0.4650
 6739TIP3    H120174   4.429   6.619   2.639 -0.5668  1.5122 -1.0167
 6739TIP3    H220175   4.518   6.618   2.762  0.6398 -1.3813 -1.8343
 6740TIP3   OH220176   6.677   6.692   6.684 -0.1835 -0.0832  0.2003
 6740TIP3    H120177   6.708   6.637   6.756 -1.5128 -1.6799 -0.3830
 6740TIP3    H220178   6.582   6.686   6.688 -0.3098 -1.2000 -2.3903
 6741TIP3   OH220179   0.681   5.209   1.569 -0.2683  0.0929 -0.3993
 6741TIP3    H120180   0.702   5.120   1.543 -2.3007 -0.7735  0.6389
 6741TIP3    H220181   0.611   5.235   1.508 -0.1745  0.6939 -0.2519
 6742TIP3   OH220182   3.187   4.621   0.955  0.6433  0.0055  0.1611
 6742TIP3    H120183   3.174   4.608   0.861 -1.5470 -1.2161  0.5525
 6742TIP3    H220184   3.237   4.545   0.984 -1.2187 -1.2169  0.3853
 6743TIP3   OH220185   2.832   1.809   2.687  0.3389  0.0656 -0.1947
 6743TIP3    H120186   2.823   1.896   2.726 -1.2030 -0.2362  0.2060
 6743TIP3    H220187   2.837   1.825   2.593  1.3834  0.6460 -0.0569
 6744TIP3   OH220188   7.103   2.623   3.581 -0.6367  0.7693  0.4776
 6744TIP3    H120189   7.186   2.664   3.602  0.1126 -0.6663  0.4585
 6744TIP3    H220190   7.059   2.612   3.666 -0.1785  0.2716  0.6583
 6745TIP3   OH220191   8.186   5.103   2.628 -0.1009  0.0469 -0.6106
 6745TIP3    H120192   8.212   5.138   2.543  0.1002  0.5817 -0.3321
 6745TIP3    H220193   8.261   5.121   2.685 -0.5993  0.5069 -0.0956
 6746TIP3   OH220194   7.579   2.266   2.369  0.3960 -0.1521 -0.9330
 6746TIP3    H120195   7.639   2.340   2.367  0.1542  0.0444 -3.4312
 6746TIP3    H220196   7.497   2.302   2.403  1.1726 -0.0792  1.0128
 6747TIP3   OH220197   5.427   5.228   5.968 -0.6840 -0.0463  0.3074
 6747TIP3    H120198   5.333   5.212   5.976 -0.5402 -0.8383  0.4614
 6747TIP3    H220199   5.462   5.211   6.055 -0.5609  1.4712  0.5758
 6748TIP3   OH220200   8.084   1.543   5.345  0.2815 -0.1384  0.4782
 6748TIP3    H120201   8.171   1.573   5.372  0.6972  0.5926 -1.4870
 6748TIP3    H220202   8.026   1.615   5.367  0.1922 -0.5572  1.6405
 6749TIP3   OH220203   5.809   3.261   1.890  0.1409  0.1031 -0.0121
 6749TIP3    H120204   5.889   3.216   1.862 -0.0396 -1.4814  1.8585
 6749TIP3    H220205   5.738   3.204   1.862 -0.1867  0.1610  0.6797
 6750TIP3   OH220206   3.405   2.465   5.728 -0.5666  0.0116  0.0522
 6750TIP3    H120207   3.389   2.469   5.634  1.1454  1.5645 -0.2340
 6750TIP3    H220208   3.321   2.489   5.768 -0.7844  1.3800 -1.1485
 6751TIP3   OH220209   7.728   0.411   4.846  0.6137  0.4355  0.1482
 6751TIP3    H120210   7.680   0.404   4.928 -1.0283 -0.6382 -0.8603
 6751TIP3    H220211   7.692   0.488   4.803 -0.8728 -0.8332 -0.9778
 6752TIP3   OH220212   1.669   3.713   0.615 -0.1405  0.0065  0.2008
 6752TIP3    H120213   1.645   3.640   0.557 -1.5516 -0.9519  1.9276
 6752TIP3    H220214   1.590   3.765   0.623  0.2332  0.5073  0.7384
 6753TIP3   OH220215   0.413   3.943   5.122  0.1101 -0.3513  0.1648
 6753TIP3    H120216   0.476   3.908   5.059 -0.0346  2.3962 -1.6596
 6753TIP3    H220217   0.465   3.960   5.200  0.7187 -1.9020  0.1450
 6754TIP3   OH220218   6.540   4.130   6.230  0.5169 -0.3349  0.4046
 6754TIP3    H120219   6.596   4.184   6.175 -0.8048  0.3199 -0.3371
 6754TIP3    H220220   6.480   4.086   6.169 -0.0295 -0.7148  1.1934
 6755TIP3   OH220221   7.306   1.694   5.133 -0.4608  0.0307 -0.7030
 6755TIP3    H120222   7.272   1.640   5.062 -0.1606  0.6294 -1.3067
 6755TIP3    H220223   7.340   1.772   5.090 -0.0395  0.2849  0.0735
 6756TIP3   OH220224   4.811   5.717   0.871 -0.1171 -0.2975 -0.1962
 6756TIP3    H120225   4.822   5.798   0.820  1.4371  0.9789  1.9515
 6756TIP3    H220226   4.890   5.667   0.853  1.3944  1.0158  2.1869
 6757TIP3   OH220227   3.373   4.470   4.889  0.0941 -0.6694  0.2844
 6757TIP3    H120228   3.314   4.469   4.964  0.1404  0.9395  0.3632
 6757TIP3    H220229   3.319   4.441   4.816 -0.5737 -0.0239  0.5127
 6758TIP3   OH220230   4.818   2.971   0.869 -0.2749 -0.6629  0.1159
 6758TIP3    H120231   4.815   2.976   0.965  1.1639 -0.1766  0.1600
 6758TIP3    H220232   4.736   3.010   0.841  0.7067  2.4328  1.1174
 6759TIP3   OH220233   5.897   7.511   2.737 -0.2811 -0.1807  0.1570
 6759TIP3    H120234   5.925   7.512   2.828 -1.2267  2.4191  0.5075
 6759TIP3    H220235   5.978   7.521   2.687  0.1603 -0.7008  0.7514
 6760TIP3   OH220236   5.108   5.113   4.407 -0.2922 -0.2823  0.2833
 6760TIP3    H120237   5.121   5.177   4.338 -0.3361 -0.1910  0.3598
 6760TIP3    H220238   5.120   5.162   4.488 -1.3090 -0.1436  0.3671
 6761TIP3   OH220239   0.075   0.361   3.529 -0.4858 -0.2176 -0.3804
 6761TIP3    H120240   0.026   0.442   3.545  1.0022  0.8774 -1.1874
 6761TIP3    H220241   0.091   0.325   3.616 -0.3078  0.8843  0.0589
 6762TIP3   OH220242   1.556   7.525   4.623 -0.1437 -0.0442  0.2738
 6762TIP3    H120243   1.590   7.614   4.620 -0.2579 -0.0042  0.1656
 6762TIP3    H220244   1.609   7.481   4.690  0.5604 -0.1630 -0.3464
 6763TIP3   OH220245   1.555   0.316   2.738 -0.4764  0.1216  0.7051
 6763TIP3    H120246   1.520   0.234   2.774  2.0501 -1.2374  0.2939
 6763TIP3    H220247   1.640   0.327   2.781  0.5069  0.9822 -1.3184
 6764TIP3   OH220248   7.293   1.916   0.492 -0.0246 -0.2809  0.1885
 6764TIP3    H120249   7.363   1.862   0.529 -0.4904  0.4356  2.2511
 6764TIP3    H220250   7.328   2.005   0.494 -0.2357 -0.1655 -0.7463
 6765TIP3   OH220251   6.232   3.630   5.184 -0.4598  0.1499  0.5488
 6765TIP3    H120252   6.247   3.541   5.153 -0.4268  0.3085  0.1077
 6765TIP3    H220253   6.317   3.658   5.216 -0.9391 -0.7864  2.8280
 6766TIP3   OH220254   1.718   7.035   0.366  0.4299 -0.4532 -0.1191
 6766TIP3    H120255   1.771   7.114   0.356 -0.0318  0.0104  0.9860
 6766TIP3    H220256   1.776   6.964   0.336  0.7786  0.2946 -1.3313
 6767TIP3   OH220257   4.226   6.054   5.473  0.3100  0.2031  0.5585
 6767TIP3    H120258   4.280   6.047   5.552  0.6915  0.7980  0.3582
 6767TIP3    H220259   4.283   6.095   5.409 -1.1025  3.2975  1.0775
 6768TIP3   OH220260   8.139   7.122   1.084 -0.2624  0.2805 -0.3963
 6768TIP3    H120261   8.201   7.081   1.024  1.1774 -0.6501  1.6219
 6768TIP3    H220262   8.188   7.133   1.166 -1.8133  2.4523  0.3430
 6769TIP3   OH220263   4.772   3.010   4.960 -0.2477 -0.3851  0.0435
 6769TIP3    H120264   4.775   3.106   4.960  0.5870 -0.3265  3.0289
 6769TIP3    H220265   4.851   2.984   4.912 -1.0059  0.3499 -1.6887
 6770TIP3   OH220266   8.212   6.510   0.290 -0.2214 -0.0706  0.2536
 6770TIP3    H120267   8.236   6.463   0.211 -2.7514  2.2587 -2.1504
 6770TIP3    H220268   8.232   6.602   0.270 -0.7279  0.5622  2.4154
 6771TIP3   OH220269   2.073   7.442   0.171 -0.0397 -0.1745  0.0832
 6771TIP3    H120270   2.033   7.507   0.229  2.4391  2.0073 -0.4612
 6771TIP3    H220271   2.158   7.424   0.211  0.6575 -0.5766 -1.4971
 6772TIP3   OH220272   8.223   7.462   5.090  0.5116  0.0568 -0.4716
 6772TIP3    H120273   8.158   7.442   5.158 -0.1824  3.8654  0.2498
 6772TIP3    H220274   8.306   7.462   5.137  0.5981 -1.2532 -0.5852
 6773TIP3   OH220275   1.904   4.394   3.291 -0.4832  0.1089 -0.4511
 6773TIP3    H120276   1.931   4.449   3.364 -1.5433 -0.4337  0.3900
 6773TIP3    H220277   1.810   4.410   3.282 -0.3459  0.2678 -1.7974
 6774TIP3   OH220278   7.203   3.875   1.246  0.4904  0.3253  0.5025
 6774TIP3    H120279   7.213   3.952   1.302 -1.1217 -0.1213  1.4772
 6774TIP3    H220280   7.171   3.910   1.163 -0.6359  0.6947  1.0717
 6775TIP3   OH220281   2.542   1.935   5.264 -0.1569  0.0565  0.3854
 6775TIP3    H120282   2.483   1.873   5.308  1.3995 -1.9436 -0.2082
 6775TIP3    H220283   2.620   1.937   5.320  0.3812  0.3790 -0.3635
 6776TIP3   OH220284   6.461   5.905   1.285  0.3732  0.3986 -0.2135
 6776TIP3    H120285   6.465   5.936   1.194 -1.8585 -1.7182 -1.1340
 6776TIP3    H220286   6.371   5.875   1.296  1.3513 -2.2114  1.7123
 6777TIP3   OH220287   3.813   6.598   6.128  0.0508 -0.1115  0.3059
 6777TIP3    H120288   3.864   6.592   6.209 -0.9372 -1.8021  0.8574
 6777TIP3    H220289   3.727   6.628   6.157  0.3202  1.4630 -0.4458
 6778TIP3   OH220290   5.286   1.370   2.874 -0.6098 -0.9477 -0.0328
 6778TIP3    H120291   5.284   1.419   2.957  0.1237 -1.7054  0.4562
 6778TIP3    H220292   5.196   1.342   2.860 -1.0810  0.6746 -0.4189
 6779TIP3   OH220293   6.735   0.658   5.795  0.9419 -0.2629 -0.0146
 6779TIP3    H120294   6.776   0.613   5.869  2.6297  2.2421  0.7157
 6779TIP3    H220295   6.809   0.687   5.742 -0.1602 -0.0173 -1.4498
 6780TIP3   OH220296   0.333   1.779   0.200  0.2953  0.4824  0.5724
 6780TIP3    H120297   0.332   1.789   0.105  0.6450  0.2137  0.5431
 6780TIP3    H220298   0.268   1.711   0.218 -1.5381  2.1639  0.7145
 6781TIP3   OH220299   2.622   0.341   1.155  0.0249 -0.1813 -0.8689
 6781TIP3    H120300   2.578   0.256   1.158 -0.8502  0.2801  0.0855
 6781TIP3    H220301   2.665   0.349   1.240 -0.6098  0.6801 -0.6090
 6782TIP3   OH220302   4.622   4.479   4.267  1.0645  0.0423  0.3311
 6782TIP3    H120303   4.637   4.385   4.260  2.6386  0.2508  0.4295
 6782TIP3    H220304   4.564   4.500   4.194  1.5467 -0.8375 -0.3276
 6783TIP3   OH220305   5.786   0.935   5.361  0.4241 -0.4092  0.2277
 6783TIP3    H120306   5.825   1.004   5.415  0.4731 -0.4668  0.2668
 6783TIP3    H220307   5.728   0.981   5.300  0.0516 -0.3775  0.6030
 6784TIP3   OH220308   4.476   2.044   1.409 -0.1876 -0.1978 -0.2981
 6784TIP3    H120309   4.487   2.008   1.498 -2.2287 -1.1085 -0.3423
 6784TIP3    H220310   4.540   1.997   1.356 -0.0391 -0.8418  0.4223
 6785TIP3   OH220311   5.353   5.460   1.333  0.4755  0.3813  0.1422
 6785TIP3    H120312   5.356   5.402   1.410  0.6844  0.8153  0.4644
 6785TIP3    H220313   5.324   5.403   1.262 -4.6885  0.8911  1.4232
 6786TIP3   OH220314   6.958   4.069   4.740 -0.1471  0.2210  0.1350
 6786TIP3    H120315   6.869   4.103   4.744 -1.0987 -2.0906  0.7270
 6786TIP3    H220316   7.004   4.114   4.811 -1.2439  0.4620  0.7126
 6787TIP3   OH220317   1.188   4.877   6.188  0.0558 -0.4081 -0.0252
 6787TIP3    H120318   1.100   4.860   6.221  0.2157  0.2690  0.7784
 6787TIP3    H220319   1.238   4.799   6.213 -0.0015 -0.2163  0.7127
 6788TIP3   OH220320   1.266   3.872   5.417  0.3412  0.2874 -0.1471
 6788TIP3    H120321   1.278   3.851   5.510 -2.0290  1.3641  0.4850
 6788TIP3    H220322   1.274   3.968   5.414 -0.6135  0.3569 -0.8486
 6789TIP3   OH220323   2.614   2.327   0.256 -0.3230 -0.0971  0.1967
 6789TIP3    H120324   2.584   2.352   0.344 -1.0229  0.4612 -0.1851
 6789TIP3    H220325   2.702   2.293   0.269  0.0859  1.1924  0.9497
 6790TIP3   OH220326   0.172   1.851   0.912  0.3785 -0.1608  1.4803
 6790TIP3    H120327   0.244   1.908   0.883 -0.1046  0.1364  0.8545
 6790TIP3    H220328   0.119   1.836   0.834 -0.5451  0.0649  2.0411
 6791TIP3   OH220329  -0.021   2.120   4.985  0.3868  0.4292  0.3737
 6791TIP3    H120330   0.070   2.145   4.998  0.3906 -0.2900  1.9328
 6791TIP3    H220331  -0.018   2.041   4.932  0.6218  0.8586 -0.2577
 6792TIP3   OH220332   1.825   1.477   1.437 -0.3728  0.3804  0.2914
 6792TIP3    H120333   1.825   1.572   1.444  0.2434  0.3631  0.5585
 6792TIP3    H220334   1.917   1.452   1.446 -0.7215 -0.3810  2.3838
 6793TIP3   OH220335   2.632   6.381   0.742 -0.2444  0.4605 -0.7527
 6793TIP3    H120336   2.675   6.295   0.739 -0.3035  0.3202  1.1649
 6793TIP3    H220337   2.656   6.422   0.659  2.4404 -0.1737 -0.3950
 6794TIP3   OH220338   7.551   3.514   3.215 -0.0840  0.2902 -0.3951
 6794TIP3    H120339   7.568   3.510   3.310  0.2750 -0.0556 -0.4707
 6794TIP3    H220340   7.576   3.427   3.183  0.4105  0.6146 -0.9067
 6795TIP3   OH220341   4.818   2.013   2.415 -0.0557 -0.0982 -0.2863
 6795TIP3    H120342   4.885   2.046   2.356 -0.2822 -1.1308 -1.1583
 6795TIP3    H220343   4.866   1.954   2.474  0.0496  0.3834  0.1219
 6796TIP3   OH220344   2.055   0.605   1.336  0.3649 -0.0089  0.0911
 6796TIP3    H120345   2.069   0.675   1.400 -0.3254  0.5966 -0.3978
 6796TIP3    H220346   2.104   0.632   1.258  0.8345 -0.5222  0.1994
 6797TIP3   OH220347   7.324   4.629   4.454  0.1854  0.3106  0.5725
 6797TIP3    H120348   7.231   4.651   4.457  0.5898  2.1775  0.3042
 6797TIP3    H220349   7.357   4.651   4.542  0.6797  1.2306  0.1731
 6798TIP3   OH220350   7.849   0.032   0.562 -0.3376  0.4742  0.0019
 6798TIP3    H120351   7.841   0.031   0.466 -1.2948 -1.7433  0.0407
 6798TIP3    H220352   7.781  -0.028   0.592 -0.4247  1.5379  2.1403
 6799TIP3   OH220353   2.412   4.154   5.296 -0.9758 -0.2959 -0.6477
 6799TIP3    H120354   2.451   4.192   5.375 -0.5359  1.2054 -1.5594
 6799TIP3    H220355   2.399   4.062   5.319  1.9450 -0.6110  0.1439
 6800TIP3   OH220356   7.162   7.303   3.137  0.0628 -0.1171 -0.0619
 6800TIP3    H120357   7.210   7.348   3.067 -0.9215 -1.4588 -1.6996
 6800TIP3    H220358   7.096   7.366   3.165  1.3022  0.9148  0.6096
 6801TIP3   OH220359   7.299   5.674   2.874 -0.5475 -0.3286  0.0449
 6801TIP3    H120360   7.367   5.700   2.936 -2.5592  0.7833  1.9666
 6801TIP3    H220361   7.326   5.711   2.790  1.3057 -0.1790  0.6713
 6802TIP3   OH220362   0.750   1.342   1.579  0.2538  0.0042  0.2328
 6802TIP3    H120363   0.832   1.297   1.555  0.0524 -0.4927  0.4592
 6802TIP3    H220364   0.778   1.428   1.610  0.7608 -0.4079  0.9693
 6803TIP3   OH220365   3.441   0.282   0.873  0.1484 -0.9223 -0.1982
 6803TIP3    H120366   3.499   0.222   0.920  0.7055 -0.3504 -0.1319
 6803TIP3    H220367   3.414   0.234   0.795 -0.0963 -1.5652  0.2768
 6804TIP3   OH220368   6.284   1.498   0.830 -0.0295  0.3615 -0.6221
 6804TIP3    H120369   6.305   1.487   0.737  0.4488 -0.2455 -0.4529
 6804TIP3    H220370   6.336   1.573   0.858  2.3124 -1.3220 -0.1274
 6805TIP3   OH220371   4.762   3.451   5.515 -0.2664  0.1497  0.0716
 6805TIP3    H120372   4.820   3.389   5.560 -0.7677 -1.4329 -1.3331
 6805TIP3    H220373   4.734   3.512   5.583  0.7250 -0.8176  1.4005
 6806TIP3   OH220374   1.098   4.707   6.506 -0.1684  0.4266  0.0828
 6806TIP3    H120375   1.027   4.765   6.478 -0.2405 -0.1102 -0.8781
 6806TIP3    H220376   1.056   4.650   6.571 -0.2733  0.9656  0.5033
 6807TIP3   OH220377   5.669   2.550   0.832  0.1030 -0.7365 -0.4687
 6807TIP3    H120378   5.758   2.578   0.851 -0.5122  0.4972  0.7971
 6807TIP3    H220379   5.613   2.614   0.877 -1.4069 -2.5962  0.4806
 6808TIP3   OH220380   5.994   6.373   3.982  0.4017 -0.5821  0.4818
 6808TIP3    H120381   6.045   6.444   3.944  0.1966 -0.5101  0.3430
 6808TIP3    H220382   5.943   6.414   4.051 -0.8898 -0.2936 -0.6095
 6809TIP3   OH220383   8.163   4.085   2.848 -0.8658  0.3515  0.0578
 6809TIP3    H120384   8.116   4.166   2.866 -0.8872  0.3845 -0.1406
 6809TIP3    H220385   8.153   4.033   2.928  0.9069  1.3684  1.0071
 6810TIP3   OH220386   5.238   1.833   6.574 -0.2835  0.1208 -0.4242
 6810TIP3    H120387   5.185   1.901   6.616 -0.6736 -0.4625  0.0525
 6810TIP3    H220388   5.188   1.753   6.588  0.3541 -0.3220 -0.6616
 6811TIP3   OH220389   5.226   0.242   0.266  0.2578 -0.3303 -0.1113
 6811TIP3    H120390   5.186   0.251   0.180 -0.7272  2.8489  0.5410
 6811TIP3    H220391   5.296   0.307   0.268  0.4775 -0.5602  1.3839
 6812TIP3   OH220392   2.779   3.719   4.201 -0.3753 -0.4652  0.7906
 6812TIP3    H120393   2.746   3.698   4.289 -2.0743  0.9845  0.5462
 6812TIP3    H220394   2.703   3.754   4.155  0.5114 -1.1025 -1.2609
 6813TIP3   OH220395   4.954   2.666   3.663  0.2992 -0.0147  0.0088
 6813TIP3    H120396   5.050   2.673   3.666  0.2232  0.6738  1.0772
 6813TIP3    H220397   4.929   2.715   3.585  0.9225 -1.6703 -1.2959
 6814TIP3   OH220398   7.267   2.470   6.292 -0.3473 -0.2455 -0.0313
 6814TIP3    H120399   7.195   2.410   6.310  0.5281 -1.4649 -0.4134
 6814TIP3    H220400   7.345   2.415   6.297  0.5974  1.1271  0.7709
 6815TIP3   OH220401   6.874   2.094   3.148  0.2326 -0.2796 -0.3921
 6815TIP3    H120402   6.867   2.031   3.220  1.0583 -1.0283 -0.9488
 6815TIP3    H220403   6.811   2.064   3.083 -2.2891  1.7312  0.9063
 6816TIP3   OH220404   2.762   3.614   3.260 -0.1308  0.1524  0.2565
 6816TIP3    H120405   2.695   3.650   3.319 -0.1636  1.8982 -0.8014
 6816TIP3    H220406   2.799   3.540   3.309 -0.5942  1.1456  2.2135
 6817TIP3   OH220407   3.986   0.573   1.172  0.1054  0.1821 -0.1618
 6817TIP3    H120408   3.988   0.669   1.177 -0.2917  0.1030  2.6160
 6817TIP3    H220409   4.013   0.554   1.082 -1.0048  2.9159 -1.1743
 6818TIP3   OH220410   4.832   3.800   3.788  0.4089 -0.4267 -0.0206
 6818TIP3    H120411   4.798   3.839   3.708  1.8115 -1.1901 -1.0373
 6818TIP3    H220412   4.926   3.819   3.785  0.3065  0.7304  2.1516
 6819TIP3   OH220413   5.907   1.523   6.297 -0.0006 -0.3040  0.6972
 6819TIP3    H120414   5.976   1.472   6.339  0.4414  0.9543  1.5633
 6819TIP3    H220415   5.831   1.465   6.295  0.8182 -1.3913  0.5559
 6820TIP3   OH220416   6.537   0.980   6.051 -0.4439  0.4613 -0.1680
 6820TIP3    H120417   6.603   1.027   6.103 -0.1999 -0.0679  0.0009
 6820TIP3    H220418   6.515   0.904   6.104  0.9949 -0.9871 -1.5444
 6821TIP3   OH220419   5.483   6.347   1.225  0.1389  0.0945  0.0577
 6821TIP3    H120420   5.508   6.437   1.203 -0.5683  0.1736 -0.4740
 6821TIP3    H220421   5.545   6.293   1.177 -0.8779  0.2792 -1.5674
 6822TIP3   OH220422   7.714   6.206   2.803 -0.1174  0.3501 -0.5677
 6822TIP3    H120423   7.709   6.214   2.708  0.8003  0.0383 -0.6498
 6822TIP3    H220424   7.623   6.216   2.832 -0.3240  1.1469 -1.4129
 6823TIP3   OH220425   5.865   3.935   2.689  0.5466  0.5547 -0.5119
 6823TIP3    H120426   5.833   4.009   2.741  2.0338 -0.2943  1.7830
 6823TIP3    H220427   5.898   3.873   2.753 -0.6587 -2.1806 -2.3542
 6824TIP3   OH220428   5.070   1.614   6.585  0.3814  0.0997  0.2120
 6824TIP3    H120429   5.008   1.656   6.645  0.7094  0.0285  0.6071
 6824TIP3    H220430   5.066   1.521   6.607  2.4257  0.3505  1.9722
 6825TIP3   OH220431   4.394   5.236   3.034 -0.5503  0.1078 -0.2933
 6825TIP3    H120432   4.489   5.234   3.030 -0.5047  1.0239 -0.0598
 6825TIP3    H220433   4.365   5.205   2.949 -0.0468 -0.1612 -0.3710
 6826TIP3   OH220434   3.611   2.608   1.885  0.1419  0.2562  0.1667
 6826TIP3    H120435   3.515   2.604   1.881  0.1439  0.1402  0.2217
 6826TIP3    H220436   3.638   2.633   1.797  0.0379  0.7205  0.2637
 6827TIP3   OH220437   1.927   5.297   3.070 -0.3986 -0.0691  0.5501
 6827TIP3    H120438   1.858   5.334   3.124 -0.2392  1.3535 -0.1824
 6827TIP3    H220439   1.880   5.251   3.000 -0.5927 -1.0095  1.2764
 6828TIP3   OH220440   3.231   0.993   5.448 -0.1593  0.1527  0.0350
 6828TIP3    H120441   3.173   0.924   5.417  1.6571 -1.8342  0.8381
 6828TIP3    H220442   3.259   1.039   5.369 -1.9352  0.4926 -0.4462
 6829TIP3   OH220443   0.985   1.599   2.618  0.6874  0.0655  0.0767
 6829TIP3    H120444   0.922   1.603   2.547 -2.3921  2.4260  2.6011
 6829TIP3    H220445   1.069   1.620   2.577 -0.4595 -1.0493 -3.1357
 6830TIP3   OH220446   3.587   4.062   1.363  0.5374 -0.1289 -0.6616
 6830TIP3    H120447   3.541   4.143   1.382  1.8815  0.7541 -1.0274
 6830TIP3    H220448   3.552   4.034   1.278  0.4205  0.3467 -0.7733
 6831TIP3   OH220449   2.468   2.910   0.386 -0.1755 -0.1411 -0.6341
 6831TIP3    H120450   2.476   2.840   0.321 -0.7826 -0.0231 -0.8385
 6831TIP3    H220451   2.533   2.975   0.358  1.0523 -1.0113  0.0770
 6832TIP3   OH220452   3.997   2.224   4.548  0.1781  0.4630 -0.7842
 6832TIP3    H120453   4.026   2.286   4.481  0.4766 -0.8112 -1.8770
 6832TIP3    H220454   3.916   2.187   4.514  0.4899 -0.4180 -0.6187
 6833TIP3   OH220455   6.561   1.696   3.517  0.0117  0.3823 -0.2634
 6833TIP3    H120456   6.570   1.747   3.436  0.8550  1.2469  0.3640
 6833TIP3    H220457   6.650   1.678   3.544 -0.2765 -1.1631 -0.2793
 6834TIP3   OH220458   0.824   1.728   2.405  0.2197 -0.1131 -0.4959
 6834TIP3    H120459   0.820   1.810   2.455  2.3145  0.4438 -1.1321
 6834TIP3    H220460   0.833   1.757   2.314 -2.6250 -1.1090 -1.1839
 6835TIP3   OH220461   3.087   6.040   2.783  0.5254 -0.0025  0.6786
 6835TIP3    H120462   3.000   6.039   2.823  1.1749  0.8399  2.1932
 6835TIP3    H220463   3.108   5.948   2.771 -0.8567 -0.2209 -0.4312
 6836TIP3   OH220464   2.627   4.411   1.307  0.1802 -0.3841 -0.5355
 6836TIP3    H120465   2.649   4.386   1.217  2.2239 -0.9957  0.0726
 6836TIP3    H220466   2.709   4.398   1.356 -0.0747  2.6044  0.8745
 6837TIP3   OH220467   1.353   4.195   3.176 -0.1778 -0.0447  0.0667
 6837TIP3    H120468   1.400   4.126   3.223  2.0134  0.3164 -1.4520
 6837TIP3    H220469   1.345   4.266   3.239 -1.2084 -1.1187  1.2036
 6838TIP3   OH220470   6.283   2.139   0.110 -0.3374  0.0312  0.7204
 6838TIP3    H120471   6.248   2.208   0.053 -1.3209 -1.4014 -0.4715
 6838TIP3    H220472   6.378   2.150   0.103 -0.4443  0.3238 -0.6703
 6839TIP3   OH220473   4.677   1.595   0.665 -0.4002 -0.0022 -0.8266
 6839TIP3    H120474   4.720   1.600   0.580 -0.8423 -1.9767 -1.2049
 6839TIP3    H220475   4.608   1.662   0.662 -0.0918  0.2749 -1.8201
 6840TIP3   OH220476   6.728   3.959   2.377  0.3090 -0.3572 -0.2830
 6840TIP3    H120477   6.686   3.899   2.316 -1.0928  0.6055 -0.3268
 6840TIP3    H220478   6.656   3.994   2.429  1.1773  0.7004  0.2584
 6841TIP3   OH220479   6.497   2.504   4.193 -0.3059 -0.3222 -0.1960
 6841TIP3    H120480   6.539   2.585   4.162 -1.1715  0.8239  1.4567
 6841TIP3    H220481   6.549   2.478   4.269 -0.7313 -0.6704 -0.0214
 6842TIP3   OH220482   6.275   0.776   3.573 -0.2955  0.7377 -0.8828
 6842TIP3    H120483   6.214   0.832   3.525 -1.0336  0.2422 -0.5449
 6842TIP3    H220484   6.357   0.825   3.573 -0.6357  1.3353 -1.5105
 6843TIP3   OH220485   1.771   1.062   5.547  0.0633 -0.3368  0.2622
 6843TIP3    H120486   1.751   1.150   5.579 -1.1948 -0.4097 -0.2738
 6843TIP3    H220487   1.836   1.075   5.479 -0.8441  0.2845 -0.5040
 6844TIP3   OH220488   4.269   2.234   3.048 -0.0483  0.1707  0.0466
 6844TIP3    H120489   4.259   2.327   3.032 -0.7929  0.3791  1.5583
 6844TIP3    H220490   4.360   2.223   3.074 -0.4942  0.8814  2.0929
 6845TIP3   OH220491   2.384   7.079   6.498 -0.0089 -0.4301  0.3161
 6845TIP3    H120492   2.306   7.121   6.461  0.3520 -0.5033 -0.5608
 6845TIP3    H220493   2.390   6.996   6.453 -0.1721 -1.0263  1.3600
 6846TIP3   OH220494   5.912   1.029   5.753 -0.1980 -0.3907  0.4360
 6846TIP3    H120495   5.848   1.054   5.687 -0.3316  2.9513  1.6258
 6846TIP3    H220496   5.866   1.039   5.837  1.0381 -0.7416  1.1856
 6847TIP3   OH220497   6.319   1.236   2.640  0.3582  0.6782 -0.1898
 6847TIP3    H120498   6.382   1.269   2.704  1.4978  0.1222 -0.9905
 6847TIP3    H220499   6.338   1.143   2.634  0.6296  0.8085 -1.7023
 6848TIP3   OH220500   5.127   1.301   6.168  0.0528 -0.6042 -0.2489
 6848TIP3    H120501   5.160   1.380   6.126  1.1219 -0.9298 -0.0510
 6848TIP3    H220502   5.032   1.312   6.168  0.1899  0.7536 -0.0718
 6849TIP3   OH220503   0.965   0.671   6.492  0.1445 -0.2722  0.3735
 6849TIP3    H120504   1.027   0.744   6.491  1.2584 -1.1761  0.2816
 6849TIP3    H220505   1.018   0.596   6.518 -0.8063 -1.1836 -0.2489
 6850TIP3   OH220506   5.625   2.061   0.424 -0.3264  0.2530  0.2333
 6850TIP3    H120507   5.542   2.068   0.378 -0.1804 -1.6192 -0.3801
 6850TIP3    H220508   5.613   1.988   0.484  0.8246  0.0818  0.2689
 6851TIP3   OH220509   2.026   2.692   5.357  0.2637  0.2183 -0.4083
 6851TIP3    H120510   2.017   2.728   5.445  0.0113 -0.6284 -0.0777
 6851TIP3    H220511   1.937   2.667   5.332  0.2840  0.7500 -1.0339
 6852TIP3   OH220512   7.672   3.078   4.977 -0.0369 -0.0434  0.4581
 6852TIP3    H120513   7.711   3.070   5.064 -1.1861 -4.4090  0.7896
 6852TIP3    H220514   7.646   2.989   4.953 -0.7271  1.0769 -3.9806
 6853TIP3   OH220515   6.277   4.615   4.662  0.3378 -0.1034  0.1376
 6853TIP3    H120516   6.255   4.536   4.712  2.2160 -0.2460  0.8231
 6853TIP3    H220517   6.279   4.685   4.728  1.1581  0.0222 -0.0065
 6854TIP3   OH220518   6.593   5.961   6.029 -0.0645  0.3545 -0.5366
 6854TIP3    H120519   6.642   5.988   5.952 -3.1475  0.4992 -2.6054
 6854TIP3    H220520   6.565   5.871   6.009  2.1816 -1.1013  2.1526
 6855TIP3   OH220521   5.108   0.159   4.151 -0.0420 -0.3513  0.1366
 6855TIP3    H120522   5.173   0.226   4.173 -1.6237  1.1968  0.3092
 6855TIP3    H220523   5.114   0.095   4.222  0.0162  0.7406  1.1397
 6856TIP3   OH220524   1.561   5.613   2.290 -0.0355  0.0733  0.6510
 6856TIP3    H120525   1.533   5.703   2.275 -4.9562 -1.3148 -0.1194
 6856TIP3    H220526   1.575   5.577   2.203 -0.9839 -0.6442  0.7832
 6857TIP3   OH220527   2.534   3.226   4.915 -0.0430  0.1305 -0.4592
 6857TIP3    H120528   2.565   3.202   5.003 -0.9684 -0.4374 -0.2790
 6857TIP3    H220529   2.439   3.231   4.923 -0.2988 -1.6308 -1.8068
 6858TIP3   OH220530   6.302   3.959   4.599 -0.7708 -0.1920 -0.1698
 6858TIP3    H120531   6.227   3.902   4.619 -1.8431  1.3433  0.3595
 6858TIP3    H220532   6.270   4.018   4.531 -0.1927  0.7626  0.3656
 6859TIP3   OH220533   7.196   0.714   3.176 -0.5238  0.5878  0.2281
 6859TIP3    H120534   7.133   0.643   3.170  0.3868 -0.1749 -0.9235
 6859TIP3    H220535   7.267   0.678   3.230  0.9702 -0.3083 -2.1019
 6860TIP3   OH220536   7.967   6.172   0.164 -0.8176 -0.1595 -0.2049
 6860TIP3    H120537   8.004   6.225   0.092 -1.2335  0.4376  0.0104
 6860TIP3    H220538   8.013   6.088   0.158 -0.1924  0.1977 -0.6065
 6861TIP3   OH220539   4.170   5.978   1.178  0.6975 -0.8503  0.7508
 6861TIP3    H120540   4.244   6.031   1.148  0.7670  0.1292  2.4808
 6861TIP3    H220541   4.207   5.924   1.249 -0.2945 -0.1001  1.8665
 6862TIP3   OH220542   8.273   3.382   2.164 -0.1100 -0.7920  0.9898
 6862TIP3    H120543   8.250   3.474   2.178  1.9756 -0.1231  0.4510
 6862TIP3    H220544   8.272   3.343   2.251  0.6423  0.2075  1.4701
 6863TIP3   OH220545   5.005   0.210   3.541 -0.0948  0.8094  0.5569
 6863TIP3    H120546   4.973   0.282   3.488 -1.4927 -0.6765 -0.7296
 6863TIP3    H220547   5.011   0.136   3.481 -1.2348 -0.8132  2.2993
 6864TIP3   OH220548   2.141   3.905   1.703  0.0632 -0.3356  0.0252
 6864TIP3    H120549   2.071   3.931   1.643 -0.4473 -1.3983  0.1364
 6864TIP3    H220550   2.184   3.831   1.660  0.0932 -0.7103  0.6849
 6865TIP3   OH220551   4.871   0.630   6.570  0.1404  0.4967  0.0237
 6865TIP3    H120552   4.868   0.591   6.658 -1.1630  0.8301  0.1454
 6865TIP3    H220553   4.779   0.644   6.547  0.1985 -2.6527 -2.7914
 6866TIP3   OH220554   6.303   6.501   5.674  0.5106  0.1244 -0.1521
 6866TIP3    H120555   6.372   6.548   5.627  0.2959  0.4284 -0.1656
 6866TIP3    H220556   6.225   6.510   5.619  0.5728 -0.6208 -0.3656
 6867TIP3   OH220557   5.520   7.210   6.638 -0.5888  0.1366  0.5393
 6867TIP3    H120558   5.521   7.209   6.542 -2.2010  1.7943  0.4414
 6867TIP3    H220559   5.438   7.167   6.661  0.1288 -0.8949  1.2356
 6868TIP3   OH220560   0.943   6.436   4.493  0.3088 -0.0313  0.3322
 6868TIP3    H120561   0.904   6.441   4.406 -1.3321 -0.2358  1.0264
 6868TIP3    H220562   0.999   6.513   4.498  0.2665  0.0935 -0.8268
 6869TIP3   OH220563   7.021   4.347   1.182  0.0325  0.2645 -1.2300
 6869TIP3    H120564   7.012   4.254   1.204  0.9702  0.3772 -0.2838
 6869TIP3    H220565   6.983   4.393   1.257 -0.3990  0.6599 -1.6795
 6870TIP3   OH220566   0.360   6.479   1.226 -0.0288  0.7131 -0.1427
 6870TIP3    H120567   0.343   6.501   1.135 -0.1123  1.9718  0.1550
 6870TIP3    H220568   0.315   6.396   1.239  0.0247  0.4950 -1.2546
 6871TIP3   OH220569   5.250   4.352   0.178  0.4679 -0.4343 -0.3335
 6871TIP3    H120570   5.327   4.360   0.121  1.6366 -0.1395  1.2394
 6871TIP3    H220571   5.267   4.274   0.231  0.4450  0.5234  1.1292
 6872TIP3   OH220572   7.897   7.292   2.665  0.1178  0.4907 -0.2091
 6872TIP3    H120573   7.877   7.379   2.700 -1.5651  0.0742 -0.0420
 6872TIP3    H220574   7.904   7.305   2.571  0.3303  0.8764 -0.1442
 6873TIP3   OH220575   1.673   4.926   3.722 -0.6278  0.5090 -0.4955
 6873TIP3    H120576   1.632   4.985   3.785  0.2083 -1.4133  2.0040
 6873TIP3    H220577   1.766   4.926   3.745 -0.3629 -0.6045 -1.4442
 6874TIP3   OH220578   0.982   0.805   4.510  0.4101 -0.4245 -0.2114
 6874TIP3    H120579   1.004   0.871   4.577  1.0646  1.8865 -2.5322
 6874TIP3    H220580   0.895   0.829   4.480 -0.5760 -2.4504  0.8497
 6875TIP3   OH220581   3.271   4.440   5.378  0.4997  0.3583  0.2730
 6875TIP3    H120582   3.337   4.415   5.314 -0.1407 -3.5133  0.8671
 6875TIP3    H220583   3.201   4.481   5.327  0.5311 -1.5407 -1.3735
 6876TIP3   OH220584   5.971   4.554   4.268 -0.0881 -0.1773 -0.5108
 6876TIP3    H120585   5.966   4.549   4.172  1.9009 -0.1097 -0.6566
 6876TIP3    H220586   5.893   4.604   4.293 -0.1875  0.5965 -2.1760
 6877TIP3   OH220587   4.870   5.560   2.789  0.0661  0.7006 -0.4182
 6877TIP3    H120588   4.846   5.645   2.825 -1.7199 -0.8051  2.3523
 6877TIP3    H220589   4.966   5.559   2.790  0.1087  2.0673  1.1384
 6878TIP3   OH220590   3.557   7.770   4.613 -0.1001  0.2037 -0.3505
 6878TIP3    H120591   3.557   7.701   4.547  0.8068 -1.0278  0.8872
 6878TIP3    H220592   3.514   7.731   4.689 -0.1979  1.2516  0.1549
 6879TIP3   OH220593   6.231   1.611   2.679  0.0393 -0.2647  0.1789
 6879TIP3    H120594   6.318   1.647   2.700  0.4900 -1.9067  1.2485
 6879TIP3    H220595   6.240   1.581   2.588  0.5967 -0.4451  0.2868
 6880TIP3   OH220596   5.736   4.915   2.180  0.6016 -0.0890 -1.0236
 6880TIP3    H120597   5.801   4.848   2.157 -0.4959 -1.8120  0.6156
 6880TIP3    H220598   5.785   4.979   2.232  0.9847 -1.4686  0.3760
 6881TIP3   OH220599   1.335   6.526   5.287 -0.2257 -0.2381  0.6128
 6881TIP3    H120600   1.378   6.511   5.371  0.2195 -1.0709  0.2566
 6881TIP3    H220601   1.246   6.551   5.310  0.3879  1.3802  1.3602
 6882TIP3   OH220602   2.078   6.647   6.578  0.3053  0.5002 -0.5206
 6882TIP3    H120603   2.103   6.641   6.670 -0.0586  1.6417 -0.3239
 6882TIP3    H220604   2.132   6.583   6.534 -0.8313 -1.4146  0.7332
 6883TIP3   OH220605   4.036   4.508   2.077 -0.1794 -0.0945 -0.3109
 6883TIP3    H120606   4.068   4.434   2.025  0.9415  1.6647 -2.2635
 6883TIP3    H220607   4.070   4.585   2.032 -1.5369  1.6475  1.4994
 6884TIP3   OH220608   7.745   2.389   2.046 -0.0189 -0.1226  0.0615
 6884TIP3    H120609   7.744   2.484   2.057 -0.1896 -0.2443  1.2057
 6884TIP3    H220610   7.806   2.358   2.113 -1.9831 -1.0145  1.5410
 6885TIP3   OH220611   0.524   2.358   4.391  0.4656  0.0263 -0.6352
 6885TIP3    H120612   0.613   2.368   4.424  0.6514 -1.5202 -0.5605
 6885TIP3    H220613   0.490   2.281   4.438 -0.6470  0.1519 -1.2010
 6886TIP3   OH220614   4.114   7.003   0.622  0.1904  0.5599 -0.3274
 6886TIP3    H120615   4.205   7.017   0.597  0.4995 -0.3622  0.2419
 6886TIP3    H220616   4.063   7.027   0.544  1.0032 -0.3348 -1.1509
 6887TIP3   OH220617   2.090   5.738   0.504  0.5241 -0.1354 -0.0907
 6887TIP3    H120618   2.151   5.812   0.496  2.2698 -1.5666 -0.6458
 6887TIP3    H220619   2.118   5.676   0.436  0.2217 -2.0573  1.4527
 6888TIP3   OH220620   2.567   3.099   6.126  0.0519  0.2328 -0.1968
 6888TIP3    H120621   2.601   3.112   6.214 -0.6134  1.6012 -0.1200
 6888TIP3    H220622   2.641   3.121   6.069 -0.3422  2.1634 -0.0092
 6889TIP3   OH220623   5.375   5.444   2.458 -0.4674 -0.4514 -0.3050
 6889TIP3    H120624   5.317   5.377   2.423 -0.2764 -0.4573 -0.6068
 6889TIP3    H220625   5.326   5.525   2.448 -1.9586 -0.8461  2.7293
 6890TIP3   OH220626   0.546   1.360   0.412 -0.0763 -0.2801  0.1686
 6890TIP3    H120627   0.618   1.419   0.436  1.2560 -1.4598 -0.8099
 6890TIP3    H220628   0.541   1.298   0.485 -0.7974  0.3631  0.6999
 6891TIP3   OH220629   2.177   2.232   0.382 -0.0735 -0.6569 -0.5102
 6891TIP3    H120630   2.209   2.189   0.302 -0.3529  0.4503 -1.2418
 6891TIP3    H220631   2.201   2.324   0.370  1.5331 -0.7518  1.5251
 6892TIP3   OH220632   2.294   4.683   2.993  0.2901  0.4372  0.3557
 6892TIP3    H120633   2.298   4.778   3.005 -1.7810  0.5739  0.3344
 6892TIP3    H220634   2.248   4.651   3.070 -0.3658 -0.3716 -0.3591
 6893TIP3   OH220635   3.997   2.960   6.293 -0.8021 -0.0887  0.0633
 6893TIP3    H120636   3.982   2.958   6.198  0.7369 -0.6852 -0.1965
 6893TIP3    H220637   4.057   3.034   6.306 -2.4493  1.1768  0.8396
 6894TIP3   OH220638   4.396   4.506   1.161  0.1825 -0.1902 -0.3984
 6894TIP3    H120639   4.418   4.548   1.078  1.4320 -0.3568 -0.1775
 6894TIP3    H220640   4.464   4.439   1.171  0.0910 -0.1127  0.7946
 6895TIP3   OH220641   4.342   4.263   5.145  0.2603 -0.0881 -0.0333
 6895TIP3    H120642   4.291   4.278   5.224  0.0486  2.1443 -0.5376
 6895TIP3    H220643   4.277   4.250   5.076  0.4143  0.0038 -0.1984
 6896TIP3   OH220644   4.811   7.082   0.769  0.2490  0.0722 -0.2564
 6896TIP3    H120645   4.789   7.027   0.844 -0.6582 -0.1543 -0.6737
 6896TIP3    H220646   4.743   7.062   0.705  0.0091  1.5401 -0.4863
 6897TIP3   OH220647   5.457   0.194   6.260  0.1208  0.7955  0.6660
 6897TIP3    H120648   5.384   0.133   6.248  1.8073 -1.3741  0.7040
 6897TIP3    H220649   5.451   0.220   6.352 -0.1070 -0.0586  0.9052
 6898TIP3   OH220650   7.563   5.831   4.287 -0.1688 -0.2177 -0.1894
 6898TIP3    H120651   7.658   5.825   4.281 -0.0976  1.4208 -1.2422
 6898TIP3    H220652   7.544   5.813   4.379  1.0758 -1.3131 -0.1184
 6899TIP3   OH220653   7.727   1.560   4.162 -0.5013  0.5568  0.0250
 6899TIP3    H120654   7.745   1.483   4.109  0.5178 -0.3390  1.5864
 6899TIP3    H220655   7.801   1.619   4.145 -0.3704  0.4283  0.1427
 6900TIP3   OH220656   3.742   2.525   6.546  0.5099  0.0059  0.3794
 6900TIP3    H120657   3.724   2.514   6.639 -0.2208 -1.7561  0.0849
 6900TIP3    H220658   3.833   2.497   6.535  0.0631 -1.5537  0.3463
 6901TIP3   OH220659   4.344   7.433   0.175 -0.9613 -0.2165 -0.3062
 6901TIP3    H120660   4.437   7.456   0.175 -0.2531 -2.7872  0.9623
 6901TIP3    H220661   4.302   7.503   0.226  0.6400 -0.2643  1.1508
 6902TIP3   OH220662   0.737   1.248   6.169  0.2050  0.1907  0.3667
 6902TIP3    H120663   0.754   1.340   6.152 -0.5521  0.2855  0.0986
 6902TIP3    H220664   0.683   1.247   6.248 -2.0446  0.1704 -1.0676
 6903TIP3   OH220665   3.807   4.739   4.705 -0.0929 -0.3665 -1.0020
 6903TIP3    H120666   3.814   4.674   4.636 -1.8820  0.0880 -1.6702
 6903TIP3    H220667   3.717   4.730   4.738  0.9708 -1.1992  1.9314
 6904TIP3   OH220668   5.133   1.390   5.040  0.0062 -0.1957  0.1707
 6904TIP3    H120669   5.209   1.350   5.082  0.5651  0.3497 -0.3053
 6904TIP3    H220670   5.161   1.408   4.950 -0.5687  0.3315  0.0866
 6905TIP3   OH220671   4.339   2.566   2.622  0.4413  0.6234  0.3578
 6905TIP3    H120672   4.401   2.637   2.636  0.5026  0.5878  0.2676
 6905TIP3    H220673   4.254   2.609   2.611  0.6171  0.7418 -0.6284
 6906TIP3   OH220674   3.665   7.574   3.517  0.1605  0.2581 -0.3859
 6906TIP3    H120675   3.694   7.532   3.436  1.9396  1.9109 -0.6890
 6906TIP3    H220676   3.597   7.636   3.490  0.0338  0.0936 -0.4473
 6907TIP3   OH220677   2.309   6.810   4.401  0.2062 -0.0042 -0.2497
 6907TIP3    H120678   2.271   6.723   4.391  1.6578 -0.8445  1.0297
 6907TIP3    H220679   2.320   6.842   4.312 -0.0480 -1.2794 -0.7597
 6908TIP3   OH220680   0.290   3.791   1.073  0.2308 -0.0709 -0.3069
 6908TIP3    H120681   0.376   3.794   1.030  0.5888  0.3526  0.4187
 6908TIP3    H220682   0.254   3.879   1.061  0.2294 -0.0220  0.0280
 6909TIP3   OH220683   7.562   3.569   1.296 -0.2733  0.4191  0.6833
 6909TIP3    H120684   7.495   3.622   1.337 -0.8490 -0.0963  0.4294
 6909TIP3    H220685   7.613   3.630   1.243 -0.1707  0.9083  1.3412
 6910TIP3   OH220686   3.636   0.183   5.956 -0.8221  0.2458 -0.4001
 6910TIP3    H120687   3.676   0.227   6.031  0.3045  0.5439 -1.1566
 6910TIP3    H220688   3.552   0.151   5.989  0.7539 -2.0000  1.8046
 6911TIP3   OH220689   1.135   2.536   5.925  0.4295  0.4389 -0.4130
 6911TIP3    H120690   1.203   2.534   5.992 -0.4965  1.7140  0.6382
 6911TIP3    H220691   1.171   2.593   5.857  1.5427 -1.1875 -1.2358
 6912TIP3   OH220692   0.079   2.410   1.648  0.0188 -0.2295  0.0002
 6912TIP3    H120693   0.154   2.352   1.635  0.8218  1.0026 -1.0968
 6912TIP3    H220694   0.087   2.439   1.739  0.7594 -0.2431 -0.0581
 6913TIP3   OH220695   6.762   0.325   2.233  0.1951 -0.5976  0.5344
 6913TIP3    H120696   6.816   0.404   2.228 -0.2528 -0.0724  2.8393
 6913TIP3    H220697   6.762   0.291   2.144 -1.3707  3.1910 -1.1285
 6914TIP3   OH220698   5.973   6.519   4.238 -0.3832 -0.2898  0.4405
 6914TIP3    H120699   5.926   6.458   4.294 -0.6130 -0.9562 -0.4522
 6914TIP3    H220700   5.926   6.602   4.248  0.1843 -0.1183  1.9828
 6915TIP3   OH220701   3.844   3.767   4.529 -0.4518  0.0156  0.2293
 6915TIP3    H120702   3.917   3.709   4.550  1.4139  1.7989 -0.9045
 6915TIP3    H220703   3.856   3.842   4.586  0.2316  1.5024 -1.7579
 6916TIP3   OH220704   4.060   7.269   2.702  0.2142 -0.5209  0.2453
 6916TIP3    H120705   4.117   7.225   2.765 -0.4720 -2.1995 -0.2436
 6916TIP3    H220706   4.107   7.262   2.619  0.2791  0.0600  0.2280
 6917TIP3   OH220707   7.910   0.887   0.376 -0.1220 -0.5575  0.1164
 6917TIP3    H120708   7.857   0.883   0.456  0.3502 -1.6562  0.3929
 6917TIP3    H220709   7.986   0.832   0.395  1.5390  1.5954  0.0041
 6918TIP3   OH220710   6.455   1.736   4.214  0.0900  0.1219 -0.8955
 6918TIP3    H120711   6.496   1.822   4.220  2.9413 -1.1796  0.6632
 6918TIP3    H220712   6.361   1.753   4.219  0.6007  3.0386  0.9035
 6919TIP3   OH220713   8.233   0.961   2.403  0.0642 -0.0316  0.5564
 6919TIP3    H120714   8.306   0.908   2.370 -0.3450 -0.1328 -0.2299
 6919TIP3    H220715   8.246   0.965   2.497  0.7933 -0.4899  0.4820
 6920TIP3   OH220716   3.756   7.068   4.163  0.2202  0.1411 -1.0777
 6920TIP3    H120717   3.790   6.995   4.112  0.2525  0.1008 -0.9984
 6920TIP3    H220718   3.822   7.137   4.154 -0.1770  0.4344 -1.7916
 6921TIP3   OH220719   0.834   4.323   3.583  0.4251 -0.0979  0.3134
 6921TIP3    H120720   0.902   4.375   3.626  1.5851 -0.6524 -0.7641
 6921TIP3    H220721   0.858   4.232   3.604  0.9226 -0.3713 -1.2999
 6922TIP3   OH220722   7.644   2.742   1.268 -0.4121 -0.4532 -0.0444
 6922TIP3    H120723   7.574   2.728   1.332  0.1360  2.2973  1.3530
 6922TIP3    H220724   7.714   2.683   1.296 -0.7714 -0.4243  0.9700
 6923TIP3   OH220725   3.278   3.219   6.014  0.2902  0.0512 -0.0169
 6923TIP3    H120726   3.230   3.185   5.939  0.4849 -1.9049  0.6759
 6923TIP3    H220727   3.366   3.183   6.005  0.6908  0.8733  0.4692
 6924TIP3   OH220728   5.179   1.892   0.151 -0.3733 -0.0814 -0.7823
 6924TIP3    H120729   5.173   1.805   0.191 -0.1599 -0.8862 -2.3978
 6924TIP3    H220730   5.253   1.934   0.195  1.0332 -1.6236 -1.5568
 6925TIP3   OH220731   2.151   0.205   5.415 -0.0358  0.3586  0.5338
 6925TIP3    H120732   2.071   0.172   5.374 -0.7851  0.8799  1.5310
 6925TIP3    H220733   2.189   0.263   5.349 -1.4888  1.5778  0.7218
 6926TIP3   OH220734   3.952   0.978   3.449  0.3360 -0.0063  0.0442
 6926TIP3    H120735   3.905   0.959   3.368  0.7262  0.9652 -0.4308
 6926TIP3    H220736   3.888   0.962   3.518  0.0180 -0.9042 -0.4499
 6927TIP3   OH220737   5.180   7.097   0.953 -0.3535  0.2837  0.2200
 6927TIP3    H120738   5.160   7.058   0.868  1.0592 -1.6390  0.7022
 6927TIP3    H220739   5.123   7.173   0.959 -0.7596  0.2395 -2.2758
 6928TIP3   OH220740   4.855   4.769   5.455 -0.5019 -0.9391 -0.2944
 6928TIP3    H120741   4.762   4.792   5.464 -0.2244 -0.1524  0.6534
 6928TIP3    H220742   4.864   4.744   5.363 -0.9161  2.4231 -1.3740
 6929TIP3   OH220743   8.142   2.189   5.640  0.1876  0.8759 -0.6394
 6929TIP3    H120744   8.143   2.109   5.692 -0.0814  0.1586 -1.7063
 6929TIP3    H220745   8.090   2.250   5.692 -0.7615 -0.0810 -0.4290
 6930TIP3   OH220746   4.009   3.103   3.171  0.0608  0.1570 -0.0534
 6930TIP3    H120747   3.968   3.183   3.137 -0.6050 -1.0550 -2.2999
 6930TIP3    H220748   3.944   3.066   3.231 -0.1838  0.5977 -0.0436
 6931TIP3   OH220749   3.118   0.242   0.860  0.0262 -0.1613 -0.5897
 6931TIP3    H120750   3.212   0.232   0.878  0.0060 -0.1839 -0.4957
 6931TIP3    H220751   3.081   0.271   0.943 -0.0512 -0.1598 -0.6248
 6932TIP3   OH220752   8.015   7.159   1.646 -0.2276  0.1864  0.2662
 6932TIP3    H120753   8.023   7.254   1.635  1.8770 -0.0752 -1.1025
 6932TIP3    H220754   7.942   7.134   1.589  1.0372  0.7163 -1.7062
 6933TIP3   OH220755   6.320   4.190   2.076  0.4119 -0.1972  0.0923
 6933TIP3    H120756   6.252   4.128   2.102  1.0240 -0.4056  1.2605
 6933TIP3    H220757   6.401   4.140   2.078  0.8574  0.5150  0.6132
 6934TIP3   OH220758   0.902   3.492   4.838 -0.1145 -0.6106  0.5339
 6934TIP3    H120759   0.982   3.476   4.787  0.6285 -0.4449  1.6122
 6934TIP3    H220760   0.874   3.580   4.811 -0.0715 -0.7636 -0.0221
 6935TIP3   OH220761   4.180   4.360   0.474  0.1950 -0.2651  0.1690
 6935TIP3    H120762   4.166   4.386   0.383  0.8226  0.0995  0.1715
 6935TIP3    H220763   4.270   4.386   0.493 -0.1855  0.3885  1.1401
 6936TIP3   OH220764   4.346   5.295   1.545  0.0660 -1.2313 -0.1124
 6936TIP3    H120765   4.266   5.242   1.540 -0.1659 -0.9928  0.9204
 6936TIP3    H220766   4.363   5.304   1.639  1.1521 -1.0384 -0.3176
 6937TIP3   OH220767   3.606   0.073   5.269  0.0248  0.1379 -0.0562
 6937TIP3    H120768   3.561   0.048   5.188  0.3775  0.1116 -0.2433
 6937TIP3    H220769   3.567   0.018   5.336 -0.3481  0.2368 -0.1876
 6938TIP3   OH220770   5.777   0.566   6.447 -0.0917  0.2370  0.1182
 6938TIP3    H120771   5.726   0.498   6.489 -2.5603  0.3129 -2.4950
 6938TIP3    H220772   5.867   0.549   6.476 -0.5498 -4.0782 -0.3088
 6939TIP3   OH220773   1.328   7.645   0.474 -0.4236  0.2950  0.2330
 6939TIP3    H120774   1.235   7.655   0.494 -0.7475  0.0996 -1.1058
 6939TIP3    H220775   1.364   7.596   0.548 -1.2805  0.7539  0.9754
 6940TIP3   OH220776   2.691   6.949   2.995  0.1243 -0.7436 -0.3043
 6940TIP3    H120777   2.718   6.879   2.936 -1.5126 -0.3861 -1.5649
 6940TIP3    H220778   2.599   6.929   3.016  0.4737 -0.5119  1.6543
 6941TIP3   OH220779   0.789   4.472   5.767  0.1379  0.3497  0.0861
 6941TIP3    H120780   0.813   4.494   5.677  0.3065 -1.2543 -0.2889
 6941TIP3    H220781   0.861   4.506   5.821  0.4037  0.6559 -0.4604
 6942TIP3   OH220782   4.525   6.570   2.990  0.5679 -0.1568 -1.0221
 6942TIP3    H120783   4.492   6.539   3.075 -1.6579  0.2916 -1.6498
 6942TIP3    H220784   4.616   6.542   2.989 -0.4736 -4.4069 -0.4268
 6943TIP3   OH220785   7.374   2.980   5.015  0.2967 -0.2229 -0.0701
 6943TIP3    H120786   7.376   3.019   4.928 -0.1072 -1.9809 -0.9058
 6943TIP3    H220787   7.373   3.055   5.075  2.1621  1.0292 -1.5014
 6944TIP3   OH220788   3.683   0.466   5.544 -0.1291  0.7363 -0.2104
 6944TIP3    H120789   3.726   0.538   5.499  2.8887 -0.5691  0.3300
 6944TIP3    H220790   3.690   0.488   5.637  2.4039 -0.8910  0.0903
 6945TIP3   OH220791   6.181   4.880   2.406  0.1495 -0.2955 -0.0623
 6945TIP3    H120792   6.199   4.961   2.453 -1.5311  0.7311 -1.0837
 6945TIP3    H220793   6.092   4.891   2.372  1.6800 -0.2452 -4.8409
 6946TIP3   OH220794   8.244   2.404   1.383 -0.3705 -0.1435 -0.7681
 6946TIP3    H120795   8.253   2.318   1.343 -1.3212 -0.1280 -1.0388
 6946TIP3    H220796   8.323   2.414   1.437  0.1106 -0.8590 -1.3225
 6947TIP3   OH220797   5.582   2.572   5.151  0.0593 -0.3061 -0.0373
 6947TIP3    H120798   5.555   2.537   5.235 -0.4908 -0.4827 -0.2802
 6947TIP3    H220799   5.500   2.584   5.102  0.4591 -1.6474 -1.1026
 6948TIP3   OH220800   1.567   4.091   2.446 -0.3973 -0.3893 -0.0185
 6948TIP3    H120801   1.483   4.137   2.445  0.2625  0.9116 -1.7880
 6948TIP3    H220802   1.545   3.999   2.429 -1.5005 -0.1818  0.2551
 6949TIP3   OH220803   3.172   5.764   5.847  0.0971 -0.1654 -0.9629
 6949TIP3    H120804   3.192   5.829   5.779 -0.8934 -1.0664 -2.1807
 6949TIP3    H220805   3.095   5.799   5.892  1.3958  0.9527  0.4540
 6950TIP3   OH220806   7.686   2.888   0.890 -0.4664 -0.3216  0.0689
 6950TIP3    H120807   7.611   2.836   0.861  0.5271 -1.2646 -0.9153
 6950TIP3    H220808   7.710   2.850   0.975  0.0565 -1.3005 -0.4989
 6951TIP3   OH220809   2.502   5.722   3.567  0.2523 -0.2052  0.2475
 6951TIP3    H120810   2.495   5.721   3.663  1.7222  0.5978  0.3781
 6951TIP3    H220811   2.522   5.631   3.544 -0.2578 -0.4337  0.6705
 6952TIP3   OH220812   7.678   1.527   6.253  0.2054  0.2962  0.1180
 6952TIP3    H120813   7.724   1.603   6.216  1.2454 -0.3488  0.0523
 6952TIP3    H220814   7.593   1.526   6.208  0.4747  0.9777 -0.4307
 6953TIP3   OH220815   7.648   3.284   0.731 -0.2128  0.2536  0.2269
 6953TIP3    H120816   7.683   3.340   0.800 -0.7459 -0.1513  0.8366
 6953TIP3    H220817   7.579   3.233   0.774 -0.0548 -0.5305 -0.4227
 6954TIP3   OH220818   4.815   1.515   5.712  0.4928  0.0523  0.6745
 6954TIP3    H120819   4.874   1.541   5.641 -0.6116  1.1336  0.1037
 6954TIP3    H220820   4.828   1.582   5.779 -0.2786  0.4680  0.4189
 6955TIP3   OH220821   3.256   2.208   1.154 -0.2084 -0.2605 -1.0037
 6955TIP3    H120822   3.188   2.234   1.216 -0.2473 -1.4317 -0.5254
 6955TIP3    H220823   3.333   2.259   1.181 -0.4874 -0.0339 -0.6129
 6956TIP3   OH220824   6.520   0.368   6.300 -0.0604 -0.2558 -0.2085
 6956TIP3    H120825   6.568   0.437   6.346 -1.7976 -0.3753  1.9053
 6956TIP3    H220826   6.437   0.409   6.277 -0.1152 -0.9133 -1.2380
 6957TIP3   OH220827   8.017   2.966   1.698 -0.3697 -0.2948 -0.1588
 6957TIP3    H120828   8.038   2.992   1.787 -0.4742  1.6749 -0.6666
 6957TIP3    H220829   7.951   3.030   1.669  2.5907  1.7971 -3.0233
 6958TIP3   OH220830   2.563   6.743   4.532  0.2993  0.0153  0.6701
 6958TIP3    H120831   2.628   6.732   4.463  0.7711  0.3657  1.0462
 6958TIP3    H220832   2.479   6.742   4.487  0.5576 -0.5401  0.1867
 6959TIP3   OH220833   6.033   1.056   6.421  0.1035  0.1953 -0.0984
 6959TIP3    H120834   6.093   1.123   6.389 -0.4404  0.2545 -1.0469
 6959TIP3    H220835   6.064   0.975   6.381 -0.1775  0.1549 -0.2393
 6960TIP3   OH220836   5.849   6.817   3.124  0.3800 -0.0632 -0.1231
 6960TIP3    H120837   5.785   6.815   3.195 -1.2743 -0.6537 -1.5663
 6960TIP3    H220838   5.908   6.889   3.147  0.9441 -1.2582  2.6732
 6961TIP3   OH220839   8.000   7.588   0.101 -0.0110 -0.0352 -0.4455
 6961TIP3    H120840   8.080   7.543   0.074 -0.4826 -0.4371 -1.1815
 6961TIP3    H220841   7.933   7.557   0.042 -0.4536  1.3161 -0.6971
 6962TIP3   OH220842   6.492   5.464   6.542  0.3201 -0.3287 -0.3847
 6962TIP3    H120843   6.488   5.417   6.458  1.4893  1.6104 -1.6147
 6962TIP3    H220844   6.403   5.460   6.576  0.0753 -2.1656 -1.1240
 6963TIP3   OH220845   7.221   4.866   5.787 -0.2537 -0.0471  0.4837
 6963TIP3    H120846   7.170   4.786   5.775 -0.7192  0.3210 -0.0693
 6963TIP3    H220847   7.166   4.922   5.841 -0.5568  0.4397 -0.3032
 6964TIP3   OH220848   6.461   6.027   6.733  0.1010  0.0816 -0.2131
 6964TIP3    H120849   6.439   6.115   6.703  0.2178 -0.1051 -0.8552
 6964TIP3    H220850   6.462   6.034   6.828 -0.9632  0.5206 -0.2212
 6965TIP3   OH220851   8.081   6.189   1.792  0.1303  0.0743 -0.1178
 6965TIP3    H120852   8.011   6.194   1.727  0.3716  0.9516 -0.3247
 6965TIP3    H220853   8.134   6.267   1.776  2.2149 -1.4622 -1.1197
 6966TIP3   OH220854   6.578   6.163   2.762  0.3041 -0.1599 -0.2032
 6966TIP3    H120855   6.575   6.223   2.688 -0.2423 -0.9834 -0.8732
 6966TIP3    H220856   6.573   6.076   2.722 -0.6191 -0.6038  0.8250
 6967TIP3   OH220857   0.360   4.726   5.437  0.1778 -0.1170 -0.4705
 6967TIP3    H120858   0.311   4.769   5.368  0.6658  0.0613 -0.7128
 6967TIP3    H220859   0.305   4.736   5.515  0.1424  0.6852 -0.5863
 6968TIP3   OH220860   3.777   2.273   4.327 -0.2997  0.2507  0.0835
 6968TIP3    H120861   3.801   2.336   4.260  0.0220 -0.3827 -0.3995
 6968TIP3    H220862   3.713   2.216   4.285  0.9546 -1.0336 -0.1686
 6969TIP3   OH220863   6.123   2.223   2.444 -0.2143  0.3905  0.1195
 6969TIP3    H120864   6.171   2.202   2.364 -0.9435 -0.4820 -0.1050
 6969TIP3    H220865   6.176   2.290   2.487  1.9974 -1.5326  0.6064
 6970TIP3   OH220866   3.278   6.080   3.340  0.1416  0.2851  0.3197
 6970TIP3    H120867   3.200   6.128   3.366 -0.0602  0.3129 -0.3175
 6970TIP3    H220868   3.271   6.073   3.245  1.0020  0.4410  0.2382
 6971TIP3   OH220869   4.780   5.413   5.992  0.0826  1.1717 -0.3872
 6971TIP3    H120870   4.835   5.441   6.065  0.8756 -0.5513 -0.2764
 6971TIP3    H220871   4.710   5.363   6.032  0.2606  0.6152 -0.7501
 6972TIP3   OH220872   4.139   0.434   4.992  0.1552  0.3386  0.7550
 6972TIP3    H120873   4.100   0.361   4.942 -1.7150  2.2559 -0.7623
 6972TIP3    H220874   4.196   0.477   4.929  1.1584  0.2841  1.6117
 6973TIP3   OH220875   0.716   6.303   6.374  0.1189 -0.1881  0.9547
 6973TIP3    H120876   0.768   6.381   6.391  1.0062 -0.4693 -0.2970
 6973TIP3    H220877   0.629   6.324   6.407 -0.2359  2.1625 -1.1955
 6974TIP3   OH220878   0.513   5.468   0.047  0.2000 -0.2750 -0.6265
 6974TIP3    H120879   0.572   5.452   0.120 -0.9365  0.3324  0.4555
 6974TIP3    H220880   0.425   5.452   0.082 -0.4631  1.1582 -1.5099
 6975TIP3   OH220881   3.236   3.004   4.609 -0.2145  0.5304 -0.0366
 6975TIP3    H120882   3.165   2.979   4.551 -1.1880  2.4748  0.2244
 6975TIP3    H220883   3.200   3.075   4.662  1.1788 -0.0427  1.7714
 6976TIP3   OH220884   7.958   7.323   2.355 -0.5039  0.1049 -0.4863
 6976TIP3    H120885   7.895   7.322   2.282  1.1076  0.9897 -1.9764
 6976TIP3    H220886   7.993   7.411   2.355  0.2053 -0.1633  0.7870
 6977TIP3   OH220887   2.623   6.181   2.090  0.0806 -0.2531  0.1688
 6977TIP3    H120888   2.709   6.167   2.130 -0.4324  0.2961  1.5097
 6977TIP3    H220889   2.643   6.202   1.999  1.2242 -2.7818 -0.2602
 6978TIP3   OH220890   6.477   3.117   2.959  0.0415  0.4283 -0.4754
 6978TIP3    H120891   6.433   3.070   2.888 -0.3757 -1.2682  0.8490
 6978TIP3    H220892   6.440   3.205   2.956 -0.7988  0.0655 -1.6364
 6979TIP3   OH220893   0.053   0.048   1.855  0.1220  0.4431 -0.0843
 6979TIP3    H120894   0.007   0.021   1.935  0.9922  0.1022  0.3127
 6979TIP3    H220895  -0.010   0.103   1.809 -0.8220 -0.3361  0.2474
 6980TIP3   OH220896   5.384   3.179   0.190 -0.4774 -0.0745 -0.6438
 6980TIP3    H120897   5.367   3.131   0.271 -1.2277  1.0327 -0.1198
 6980TIP3    H220898   5.415   3.112   0.128 -0.8725 -1.1058  0.2427
 6981TIP3   OH220899   1.975   7.417   6.602 -0.2743 -0.3249 -0.4056
 6981TIP3    H120900   1.910   7.438   6.535 -1.7007  0.1748  1.0526
 6981TIP3    H220901   1.985   7.498   6.651  0.2557 -0.8470  0.3671
 6982TIP3   OH220902   6.339   0.066   2.089  0.5193  0.0477 -0.1299
 6982TIP3    H120903   6.403   0.019   2.037  0.3984  0.7134 -0.9042
 6982TIP3    H220904   6.273   0.001   2.110  1.6947 -0.7823  1.1404
 6983TIP3   OH220905   0.468   4.645   2.454  0.6363  0.6065  0.0580
 6983TIP3    H120906   0.530   4.573   2.445 -1.3531 -1.1428 -0.4119
 6983TIP3    H220907   0.453   4.653   2.548  0.4943  0.0663  0.0813
 6984TIP3   OH220908   3.320   0.038   2.000  0.3972  0.0529 -0.2153
 6984TIP3    H120909   3.385  -0.026   2.031 -0.4451 -1.4781 -1.4695
 6984TIP3    H220910   3.237  -0.009   2.003 -1.0134  2.4226  2.7449
 6985TIP3   OH220911   7.035   2.424   0.342  0.0513  0.1943  0.4033
 6985TIP3    H120912   7.018   2.508   0.300  1.2249  1.0559  1.5563
 6985TIP3    H220913   6.957   2.407   0.395 -0.9421 -0.3434 -1.1791
 6986TIP3   OH220914   1.825   0.301   2.821 -0.0627  0.2425 -0.1424
 6986TIP3    H120915   1.843   0.340   2.735  0.5637  0.8827  0.2746
 6986TIP3    H220916   1.883   0.347   2.881 -0.5039 -0.1976  0.6340
 6987TIP3   OH220917   3.520   4.090   2.755 -0.2994 -0.2940 -0.3942
 6987TIP3    H120918   3.514   4.127   2.843 -0.1455 -0.4976 -0.2981
 6987TIP3    H220919   3.602   4.125   2.720 -1.3864  1.5558 -1.2775
 6988TIP3   OH220920   3.521   0.384   4.658 -0.3407  0.3258 -0.4308
 6988TIP3    H120921   3.473   0.417   4.734 -1.8163 -0.1430 -1.1194
 6988TIP3    H220922   3.579   0.456   4.633 -1.9889  1.6224 -0.6363
 6989TIP3   OH220923   3.128   0.925   5.894  0.5941  0.1439  0.6657
 6989TIP3    H120924   3.059   0.861   5.911  2.5004 -1.6077  2.3063
 6989TIP3    H220925   3.092   0.981   5.824 -1.6682 -1.8709  0.0754
 6990TIP3   OH220926   5.975   2.233   0.759 -0.2149  0.7317  0.6069
 6990TIP3    H120927   5.900   2.254   0.703 -0.4271  0.1076  0.6478
 6990TIP3    H220928   6.048   2.223   0.698 -0.4376  0.0913  0.4417
 6991TIP3   OH220929   6.932   4.120   2.212 -0.0568 -0.4118 -0.3248
 6991TIP3    H120930   6.934   4.168   2.128 -0.8948  0.6974  0.2556
 6991TIP3    H220931   6.848   4.145   2.251  0.6499 -0.3130  1.1852
 6992TIP3   OH220932   5.406   6.059   1.879 -0.2383 -0.5827 -0.3450
 6992TIP3    H120933   5.393   5.971   1.915  0.2363 -0.4312  0.2046
 6992TIP3    H220934   5.363   6.056   1.794 -1.3762 -0.9592  0.2177
 6993TIP3   OH220935   6.622   1.171   5.841 -0.5173  0.6239 -0.0444
 6993TIP3    H120936   6.576   1.132   5.767 -3.0105 -0.4746  1.9323
 6993TIP3    H220937   6.638   1.098   5.901 -1.3034  1.8702  1.7910
 6994TIP3   OH220938   4.644   5.476   4.639  0.1233 -0.1126  0.5443
 6994TIP3    H120939   4.682   5.563   4.628 -1.2767  0.7072  1.7721
 6994TIP3    H220940   4.644   5.438   4.551  2.8306  0.1776  0.3285
 6995TIP3   OH220941   7.105   5.113   3.086 -0.4757 -0.0432  0.2108
 6995TIP3    H120942   7.040   5.116   3.016  0.3359  0.2167 -0.5519
 6995TIP3    H220943   7.170   5.179   3.062  1.5470 -2.1450 -0.5718
 6996TIP3   OH220944   3.141   7.468   5.404  0.6057 -0.3250  0.7384
 6996TIP3    H120945   3.107   7.393   5.355  0.4536  0.5265 -0.5174
 6996TIP3    H220946   3.131   7.542   5.344 -0.7018  1.0236  2.5068
 6997TIP3   OH220947   3.235   2.086   0.422 -0.2761  0.0024 -0.5672
 6997TIP3    H120948   3.305   2.094   0.487  2.0534 -2.0598 -2.6434
 6997TIP3    H220949   3.237   2.168   0.373 -0.1305  0.4113  0.1109
 6998TIP3   OH220950   6.500   1.066   5.622 -0.2572 -0.1126 -0.1021
 6998TIP3    H120951   6.414   1.039   5.656 -0.4835 -0.2800 -0.7682
 6998TIP3    H220952   6.490   1.057   5.527  0.0704  1.1373 -0.2677
 6999TIP3   OH220953   3.535   5.966   0.882  1.3011 -0.5274  0.5660
 6999TIP3    H120954   3.569   6.054   0.867 -0.6135  0.2706  0.6797
 6999TIP3    H220955   3.611   5.915   0.911  2.6215  0.8459 -0.3480
 7000TIP3   OH220956   0.502   0.225   4.265  0.0234  0.2031  0.4932
 7000TIP3    H120957   0.493   0.320   4.276  0.8127  0.1390  1.8982
 7000TIP3    H220958   0.559   0.198   4.337 -1.9147 -1.6508  1.4173
 7001TIP3   OH220959   3.266   2.968   5.027 -0.0253  0.0480 -0.4180
 7001TIP3    H120960   3.309   3.052   5.009 -0.6944  0.4956  0.0112
 7001TIP3    H220961   3.187   2.970   4.972 -1.5519  0.9843  1.6759
 7002TIP3   OH220962   6.545   3.455   5.523  0.2086 -0.5960 -0.8772
 7002TIP3    H120963   6.626   3.416   5.490  0.4881 -0.4888 -0.3220
 7002TIP3    H220964   6.494   3.380   5.554  0.9257 -0.5000  0.5839
 7003TIP3   OH220965   5.451   2.863   1.591 -0.5698  0.1764 -0.0096
 7003TIP3    H120966   5.507   2.848   1.667  0.2214  2.1969 -0.1293
 7003TIP3    H220967   5.457   2.957   1.575 -2.3300  0.1137 -1.3486
 7004TIP3   OH220968   4.772   6.317   6.701  0.2826  0.3106 -0.1105
 7004TIP3    H120969   4.784   6.299   6.794  0.4995  0.1646 -0.1676
 7004TIP3    H220970   4.712   6.248   6.671  0.0890  0.4501 -0.0445
 7005TIP3   OH220971   0.814   6.460   2.816  0.1172 -0.0515 -0.2515
 7005TIP3    H120972   0.822   6.530   2.881  0.4516 -0.1885 -0.1444
 7005TIP3    H220973   0.786   6.505   2.736 -1.3108 -0.0098  0.2445
 7006TIP3   OH220974   1.773   1.485   0.232  0.3189 -0.2104  0.6863
 7006TIP3    H120975   1.846   1.434   0.198  0.7355  0.5169  0.4807
 7006TIP3    H220976   1.805   1.520   0.315  0.0625 -0.2135  0.7878
 7007TIP3   OH220977   6.816   5.188   5.783  0.4503  0.9546  0.6128
 7007TIP3    H120978   6.868   5.209   5.706 -0.1800  1.0741  0.2178
 7007TIP3    H220979   6.762   5.114   5.757 -1.2484  2.2566  0.2499
 7008TIP3   OH220980   5.294   2.094   4.449  0.5301  0.3204 -0.1161
 7008TIP3    H120981   5.213   2.043   4.442 -0.0438  1.2241 -0.3312
 7008TIP3    H220982   5.358   2.046   4.396  0.4679 -1.0067  0.9521
 7009TIP3   OH220983   1.301   5.366   4.548 -0.0347 -0.0958 -0.2911
 7009TIP3    H120984   1.280   5.330   4.461  0.2506  0.8502 -0.7658
 7009TIP3    H220985   1.263   5.454   4.547  0.2747  0.0518  0.4205
 7010TIP3   OH220986   2.603   3.694   5.699  0.2014  0.6022  0.0268
 7010TIP3    H120987   2.678   3.635   5.685  0.3289  0.3788  1.5000
 7010TIP3    H220988   2.527   3.641   5.674  0.4408  0.4379 -0.3779
 7011TIP3   OH220989   2.810   2.354   6.454  0.2440  0.4509 -0.3373
 7011TIP3    H120990   2.781   2.309   6.533 -0.2576  1.3801  0.0325
 7011TIP3    H220991   2.811   2.447   6.478 -0.9951  0.8722 -1.7085
 7012TIP3   OH220992   0.259   0.713   1.634 -0.5373  0.5944  0.3599
 7012TIP3    H120993   0.341   0.763   1.642  0.0701 -0.2227 -0.4680
 7012TIP3    H220994   0.285   0.623   1.652 -1.4546  0.4505  0.9965
 7013TIP3   OH220995   2.868   5.954   5.715  0.3515 -0.2681 -0.0907
 7013TIP3    H120996   2.811   5.988   5.646  1.1472  0.3148 -0.4775
 7013TIP3    H220997   2.867   6.022   5.782  0.7564 -0.1648 -0.1909
 7014TIP3   OH220998   7.214   6.425   1.226 -0.0276  0.3189  0.8597
 7014TIP3    H120999   7.119   6.428   1.240 -0.1723 -1.7327  0.5143
 7014TIP3    H221000   7.224   6.402   1.133  0.8265  0.8819  0.7969
 7015TIP3   OH221001   6.221   3.389   4.060 -0.0660 -0.8454  0.2679
 7015TIP3    H121002   6.307   3.377   4.101 -0.7993 -1.6755  1.6209
 7015TIP3    H221003   6.165   3.420   4.131 -0.8527 -0.0577 -0.6596
 7016TIP3   OH221004   7.962   3.331   1.922 -0.4726 -0.2660  0.0831
 7016TIP3    H121005   7.958   3.395   1.993  1.2785 -0.1905  0.1481
 7016TIP3    H221006   7.935   3.380   1.844  1.2886  0.7402  0.0484
 7017TIP3   OH221007   2.769   0.669   0.474  0.3414 -0.3055  0.3256
 7017TIP3    H121008   2.797   0.700   0.388  0.5728 -0.2067  0.4349
 7017TIP3    H221009   2.840   0.695   0.533 -0.0243  0.0272  0.6217
 7018TIP3   OH221010   7.218   7.389   3.426  0.3678  0.5472  0.5702
 7018TIP3    H121011   7.210   7.295   3.409 -1.3012  0.6276  0.7352
 7018TIP3    H221012   7.134   7.413   3.467  0.9341  2.0236  0.9266
 7019TIP3   OH221013   1.677   0.133   1.822 -0.8545 -0.3651 -0.6506
 7019TIP3    H121014   1.636   0.127   1.736 -1.0349 -0.2296 -0.5743
 7019TIP3    H221015   1.696   0.226   1.833 -1.9330 -0.2006 -0.0357
 7020TIP3   OH221016   1.095   4.521   3.741 -0.1481 -0.0107 -0.0006
 7020TIP3    H121017   1.075   4.544   3.650 -0.0841 -0.9962 -0.2838
 7020TIP3    H221018   1.088   4.603   3.789  1.0627  0.7933 -1.1036
 7021TIP3   OH221019   2.294   7.771   4.848 -0.1664  0.4097 -0.2898
 7021TIP3    H121020   2.225   7.829   4.881 -0.1426 -0.1833  0.8570
 7021TIP3    H221021   2.261   7.742   4.762 -1.1066  0.5439  0.0090
 7022TIP3   OH221022   2.933   6.353   3.140  0.1128 -0.0151  0.0559
 7022TIP3    H121023   2.841   6.374   3.120  0.6683  1.9110 -0.6926
 7022TIP3    H221024   2.983   6.415   3.088  1.8191  0.1505  1.8092
 7023TIP3   OH221025   2.699   5.014   6.625  0.0881 -0.1910 -0.2130
 7023TIP3    H121026   2.721   5.036   6.715  0.2761  1.3113 -0.6041
 7023TIP3    H221027   2.604   5.012   6.622  0.0765  0.0834 -0.0422
 7024TIP3   OH221028   0.329   6.440   5.391  0.6114 -0.0786  0.0563
 7024TIP3    H121029   0.311   6.385   5.315  0.1499 -0.4043  0.4019
 7024TIP3    H221030   0.301   6.388   5.466 -0.8325  1.0350  0.3344
 7025TIP3   OH221031   4.802   1.482   1.121 -0.4687 -0.6029  0.6731
 7025TIP3    H121032   4.874   1.426   1.092 -1.5046 -1.6755  0.0906
 7025TIP3    H221033   4.833   1.520   1.204  1.1207 -0.2898 -0.0299
 7026TIP3   OH221034   6.929   5.644   3.792  0.0407  0.2479  0.1254
 7026TIP3    H121035   6.996   5.705   3.764  0.2642  0.8474  1.8228
 7026TIP3    H221036   6.849   5.697   3.798 -0.4563 -0.3110 -1.2421
 7027TIP3   OH221037   3.790   7.353   5.583 -0.7044  0.4401  0.2255
 7027TIP3    H121038   3.876   7.328   5.615 -1.0242  0.4516  1.1008
 7027TIP3    H221039   3.797   7.447   5.565 -0.0657  0.1410 -1.2666
 7028TIP3   OH221040   7.420   5.877   1.921  0.5913  0.3121  0.0029
 7028TIP3    H121041   7.509   5.891   1.888  1.3163 -2.0905  0.7730
 7028TIP3    H221042   7.391   5.796   1.877 -0.9368  0.6502  0.3390
 7029TIP3   OH221043   3.268   4.577   5.841 -0.2093 -0.7689  0.3408
 7029TIP3    H121044   3.211   4.645   5.878 -1.8903 -0.9892 -1.6471
 7029TIP3    H221045   3.222   4.495   5.860  1.0817 -1.2699  1.4531
 7030TIP3   OH221046   7.271   0.195   6.514 -0.8312 -0.4093  0.2275
 7030TIP3    H121047   7.264   0.232   6.601 -1.6968  2.8619 -1.0926
 7030TIP3    H221048   7.354   0.229   6.480 -2.3176  1.7618 -1.5333
 7031TIP3   OH221049   8.115   5.709   0.927 -0.2690  0.1881  0.0739
 7031TIP3    H121050   8.146   5.641   0.867  2.0371  1.0512  0.1888
 7031TIP3    H221051   8.068   5.770   0.872  0.3268  0.0738 -0.5771
 7032TIP3   OH221052   4.316   5.631   6.053  0.2884  0.3456 -0.2742
 7032TIP3    H121053   4.339   5.648   5.962  0.1027 -1.9026 -0.7971
 7032TIP3    H221054   4.220   5.627   6.053  0.3261 -2.0346 -0.5358
 7033TIP3   OH221055   1.557   1.602   2.944 -0.0971  0.3659 -0.7145
 7033TIP3    H121056   1.607   1.626   2.866 -1.2078  0.4403 -1.4253
 7033TIP3    H221057   1.547   1.685   2.992  2.2359  0.0061  0.5469
 7034TIP3   OH221058   1.821   6.151   0.250 -0.1590 -0.0267 -0.2617
 7034TIP3    H121059   1.912   6.143   0.279 -0.4435  0.3904  0.7957
 7034TIP3    H221060   1.771   6.161   0.331 -1.0738  0.4075 -0.8623
 7035TIP3   OH221061   2.017   6.035   4.238  0.3263  0.3554 -0.0202
 7035TIP3    H121062   2.044   5.950   4.275  1.3667  0.8093  0.3048
 7035TIP3    H221063   1.948   6.066   4.297  1.2844  0.6124  1.0075
 7036TIP3   OH221064   2.247   3.309   6.462 -0.0111 -0.4239  0.0388
 7036TIP3    H121065   2.288   3.309   6.375  0.5673 -0.7415  0.3131
 7036TIP3    H221066   2.198   3.392   6.464  0.7067  0.0189 -0.2465
 7037TIP3   OH221067   5.894   6.882   6.416 -0.1701  0.3122  0.0338
 7037TIP3    H121068   5.883   6.794   6.451  1.5907 -0.1423 -0.4554
 7037TIP3    H221069   5.890   6.871   6.321  1.2473  0.5532 -0.0665
 7038TIP3   OH221070   0.285   3.862   4.267 -0.3786 -0.4802 -0.0080
 7038TIP3    H121071   0.330   3.861   4.182  0.2375  0.8954  0.2836
 7038TIP3    H221072   0.195   3.886   4.247 -0.0061  0.8303 -0.1931
 7039TIP3   OH221073   1.489   6.239   0.100 -0.0796  0.2532 -0.3146
 7039TIP3    H121074   1.547   6.281   0.163 -1.4146  2.3799 -0.4131
 7039TIP3    H221075   1.481   6.148   0.132  1.6357  0.4646  0.8308
 7040TIP3   OH221076   4.735   4.022   5.610 -0.0936 -0.2412 -0.3367
 7040TIP3    H121077   4.670   4.029   5.540  0.9111 -0.6793 -1.3356
 7040TIP3    H221078   4.683   4.014   5.690 -1.2611  0.4966 -1.0038
 7041TIP3   OH221079   2.503   5.371   4.723 -0.1045 -0.0787  0.9691
 7041TIP3    H121080   2.476   5.346   4.634 -1.7824  1.0394  1.0959
 7041TIP3    H221081   2.596   5.392   4.715 -0.2705  0.2232 -0.5920
 7042TIP3   OH221082   8.022   4.462   4.763 -0.0809 -1.0356  0.2360
 7042TIP3    H121083   7.989   4.447   4.674 -0.0781  2.8151 -0.5739
 7042TIP3    H221084   8.111   4.428   4.761  0.4648  0.3469 -1.7877
 7043TIP3   OH221085   6.810   1.597   3.596  0.1460  0.0732 -0.6418
 7043TIP3    H121086   6.876   1.625   3.659  0.9225 -2.1814 -0.3671
 7043TIP3    H221087   6.787   1.508   3.623  0.8155 -1.1768 -3.7500
 7044TIP3   OH221088   4.209   3.339   4.704  0.9056 -0.2870  0.0145
 7044TIP3    H121089   4.203   3.332   4.609  1.9796  0.6720 -0.1398
 7044TIP3    H221090   4.244   3.427   4.720  0.0424 -0.1514  1.3302
 7045TIP3   OH221091   3.544   7.213   3.297 -0.2093 -0.2210  0.2631
 7045TIP3    H121092   3.591   7.296   3.298  0.0169 -0.3566  0.9883
 7045TIP3    H221093   3.456   7.235   3.267  0.4138 -0.0292 -1.5785
 7046TIP3   OH221094   7.974   4.498   3.697  0.3971  0.5237 -0.4993
 7046TIP3    H121095   7.915   4.423   3.695 -0.0645  0.8942 -0.8618
 7046TIP3    H221096   8.017   4.492   3.783  1.3181 -0.8765 -1.0172
 7047TIP3   OH221097   6.979   4.456   6.776 -0.5451  0.2477 -0.4881
 7047TIP3    H121098   6.925   4.533   6.791 -3.0099 -1.3244 -0.7983
 7047TIP3    H221099   6.962   4.432   6.685 -0.0420 -0.8335 -0.3101
 7048TIP3   OH221100   3.349   2.151   5.253  0.3027  0.6696 -0.4533
 7048TIP3    H121101   3.261   2.152   5.214  0.1331  1.0828 -0.0729
 7048TIP3    H221102   3.396   2.221   5.207  0.4492  0.4213 -0.6855
 7049TIP3   OH221103   1.011   6.121   4.141  0.4729 -0.2066  0.1569
 7049TIP3    H121104   1.023   6.211   4.170  0.8564 -0.2670  0.1905
 7049TIP3    H221105   1.047   6.068   4.212 -1.3205 -0.4541  0.9453
 7050TIP3   OH221106   5.194   3.398   2.435  0.5958 -0.0682  0.1804
 7050TIP3    H121107   5.143   3.440   2.504 -0.4693  0.5801 -0.9700
 7050TIP3    H221108   5.167   3.306   2.438 -1.1202  0.3697 -0.7954
 7051TIP3   OH221109   1.633   4.750   0.488  0.5447 -0.2462 -0.1597
 7051TIP3    H121110   1.632   4.712   0.576  2.3386  0.0861  0.0237
 7051TIP3    H221111   1.560   4.706   0.443 -0.5728 -0.2279  1.5393
 7052TIP3   OH221112   0.500   2.051   6.165 -0.0556 -0.1769 -0.0853
 7052TIP3    H121113   0.506   2.058   6.070  0.1687  0.5894 -0.0212
 7052TIP3    H221114   0.453   1.968   6.180 -0.2267 -0.2295 -0.8609
 7053TIP3   OH221115   1.106   4.962   5.795  0.4613  0.1282 -0.2788
 7053TIP3    H121116   1.122   4.946   5.702  1.0119  0.5872 -0.2653
 7053TIP3    H221117   1.011   4.973   5.801  0.4417  0.2573 -0.8120
 7054TIP3   OH221118   4.379   6.722   4.847  0.0654  0.0380  0.3472
 7054TIP3    H121119   4.322   6.651   4.819  0.7964 -0.4185 -0.0038
 7054TIP3    H221120   4.343   6.800   4.803  1.2734 -0.6853 -2.0948
 7055TIP3   OH221121   6.532   1.938   0.154 -0.3761 -0.6503  0.0769
 7055TIP3    H121122   6.573   1.999   0.093  0.0199 -0.0696  0.9026
 7055TIP3    H221123   6.566   1.852   0.128 -0.9020 -0.5299 -1.0618
 7056TIP3   OH221124   1.496   1.287   1.940  0.0066 -0.0878  0.0135
 7056TIP3    H121125   1.525   1.344   2.012 -0.6957 -0.7671  0.8629
 7056TIP3    H221126   1.404   1.268   1.961 -0.1462 -0.4635 -0.9656
 7057TIP3   OH221127   0.287   7.597   6.275 -1.0382 -0.2568 -0.7542
 7057TIP3    H121128   0.231   7.567   6.347 -0.5930  2.1889  0.7294
 7057TIP3    H221129   0.333   7.518   6.246 -2.4000 -1.6094  0.5641
 7058TIP3   OH221130   2.760   2.055   5.962 -0.5324 -0.3817  0.0729
 7058TIP3    H121131   2.832   1.996   5.937  0.3706  1.0829 -0.9662
 7058TIP3    H221132   2.774   2.073   6.055 -0.5987 -1.4816  0.3072
 7059TIP3   OH221133   7.761   2.649   2.747  0.7228  0.2680  0.0176
 7059TIP3    H121134   7.824   2.590   2.706 -0.5279 -0.3103 -1.1303
 7059TIP3    H221135   7.766   2.730   2.695 -0.1378 -0.1163 -0.7006
 7060TIP3   OH221136   3.200   6.415   2.585  0.0281  0.8967  0.4373
 7060TIP3    H121137   3.257   6.387   2.657  1.6643 -0.3327 -1.2364
 7060TIP3    H221138   3.254   6.473   2.533 -0.3524  0.0476 -0.9603
 7061TIP3   OH221139   0.401   2.477   1.390 -0.2525 -0.4333 -0.4096
 7061TIP3    H121140   0.350   2.505   1.315  1.6591 -1.0237 -2.0117
 7061TIP3    H221141   0.357   2.399   1.422 -1.0326 -0.2190 -0.9503
 7062TIP3   OH221142   7.653   4.728   4.710  0.1488 -0.3349 -0.7450
 7062TIP3    H121143   7.695   4.719   4.795 -1.7121 -1.8169  0.0998
 7062TIP3    H221144   7.691   4.808   4.673  1.5513 -0.0512  1.1384
 7063TIP3   OH221145   2.396   3.949   4.453  0.1061 -0.3332 -0.2806
 7063TIP3    H121146   2.424   3.870   4.406  0.2573 -0.3534 -0.1586
 7063TIP3    H221147   2.317   3.977   4.407 -1.2047 -1.7754  1.0068
 7064TIP3   OH221148   4.081   2.945   3.624  0.2858  0.4903  0.0600
 7064TIP3    H121149   4.133   2.976   3.550 -0.9772  1.9438 -0.2622
 7064TIP3    H221150   4.144   2.937   3.696  1.1771  0.9364 -0.6495
 7065TIP3   OH221151   7.945   7.765   3.926  0.0542  0.4488  0.3171
 7065TIP3    H121152   7.927   7.777   4.019  0.0045 -4.2912  1.1780
 7065TIP3    H221153   8.036   7.794   3.916 -0.0631  1.4010  1.7172
 7066TIP3   OH221154   6.589   2.532   1.437  0.2587 -0.2770  0.5997
 7066TIP3    H121155   6.655   2.463   1.439  0.9474  0.2201 -1.6838
 7066TIP3    H221156   6.632   2.608   1.475  0.5387 -0.3243  0.3829
 7067TIP3   OH221157   7.507   5.429   0.742  0.1469  0.4723 -0.2304
 7067TIP3    H121158   7.526   5.414   0.649  0.6030 -0.6378  0.0165
 7067TIP3    H221159   7.414   5.409   0.751  0.1763  0.2498 -0.3971
 7068TIP3   OH221160   4.506   4.638   6.647  0.4798  0.2435  0.0218
 7068TIP3    H121161   4.454   4.569   6.604  0.0674  1.1417 -0.9625
 7068TIP3    H221162   4.521   4.604   6.735  0.2987 -1.1146 -0.4383
 7069TIP3   OH221163   7.635   1.119   0.811  0.2128  0.1765  1.4821
 7069TIP3    H121164   7.683   1.162   0.882  0.9318  1.8282  0.0615
 7069TIP3    H221165   7.632   1.184   0.741  2.0859 -2.2918 -1.1440
 7070TIP3   OH221166   1.254   6.382   0.163 -0.2644  0.0179  0.2715
 7070TIP3    H121167   1.214   6.383   0.076 -2.1479 -1.1444  1.0638
 7070TIP3    H221168   1.328   6.321   0.155  0.8288  1.4333 -0.9662
 7071TIP3   OH221169   4.437   1.730   2.318  0.2418  0.1811 -0.0684
 7071TIP3    H121170   4.374   1.742   2.389  0.2172 -1.1414  0.1624
 7071TIP3    H221171   4.519   1.708   2.362  0.1158 -1.1082 -0.4421
 7072TIP3   OH221172   5.610   5.915   1.669  0.6804  0.0436 -0.6430
 7072TIP3    H121173   5.671   5.896   1.740  0.2447 -0.4121 -0.3844
 7072TIP3    H221174   5.636   5.856   1.598 -1.0753 -2.0920  0.3847
 7073TIP3   OH221175   1.374   4.713   0.156 -0.2230  0.0896  0.3858
 7073TIP3    H121176   1.341   4.630   0.190 -0.5716  0.3967  0.8080
 7073TIP3    H221177   1.347   4.778   0.221  0.6100  0.4450  0.3890
 7074TIP3   OH221178   6.532   5.554   2.156  0.0052  0.3940 -0.4740
 7074TIP3    H121179   6.609   5.503   2.184 -0.3901  1.5386  3.3847
 7074TIP3    H221180   6.548   5.642   2.191 -1.7288  1.4984 -2.2647
 7075TIP3   OH221181   5.286   3.708   5.331 -0.1808  0.7030 -0.1832
 7075TIP3    H121182   5.318   3.742   5.415  0.2358  1.3644 -0.6058
 7075TIP3    H221183   5.280   3.613   5.345  0.7202  0.7037  0.3201
 7076TIP3   OH221184   0.352   3.447   5.384 -0.2993  0.4968  0.2144
 7076TIP3    H121185   0.405   3.378   5.344 -1.5197 -0.9416  0.9437
 7076TIP3    H221186   0.411   3.521   5.393  0.7311 -0.0195 -1.7279
 7077TIP3   OH221187   7.701   5.994   2.136 -0.5107 -0.4194 -0.1041
 7077TIP3    H121188   7.757   5.956   2.067  1.6986  0.5013  1.0604
 7077TIP3    H221189   7.687   5.923   2.197 -1.1424 -0.8234 -0.7113
 7078TIP3   OH221190   3.530   4.214   2.995 -0.4946 -0.2027  0.1067
 7078TIP3    H121191   3.526   4.309   3.007  0.4248 -0.2795  1.1661
 7078TIP3    H221192   3.581   4.183   3.070  0.2921 -1.4032 -0.8948
 7079TIP3   OH221193   6.125   5.184   6.061  0.3564  0.2729 -0.2715
 7079TIP3    H121194   6.077   5.115   6.105  1.7562 -0.6364 -0.1121
 7079TIP3    H221195   6.124   5.160   5.968  0.8920 -0.0047 -0.2093
 7080TIP3   OH221196   7.531   6.202   0.205 -0.0315 -0.5052  0.3820
 7080TIP3    H121197   7.526   6.289   0.245  1.6249 -0.5230  0.7065
 7080TIP3    H221198   7.443   6.186   0.172 -0.1951  1.6345 -0.3846
 7081TIP3   OH221199   3.260   5.728   5.176 -0.1904  0.0866 -0.5213
 7081TIP3    H121200   3.215   5.809   5.203  0.1126 -0.2667  1.1577
 7081TIP3    H221201   3.241   5.666   5.246  1.1870 -0.7198 -0.8353
 7082TIP3   OH221202   7.243   4.951   4.059 -0.7043 -0.0080 -0.0456
 7082TIP3    H121203   7.168   4.920   4.110 -1.8013  1.8820 -0.4201
 7082TIP3    H221204   7.211   4.958   3.970  0.7092 -1.6183 -0.7389
 7083TIP3   OH221205   0.354   5.883   4.371  0.4528 -0.3733  0.1206
 7083TIP3    H121206   0.444   5.858   4.392  0.2939 -2.9434 -1.7926
 7083TIP3    H221207   0.300   5.823   4.422 -0.2062  0.9111  0.9754
 7084TIP3   OH221208   1.428   5.530   0.949  0.2060 -0.0449 -0.4212
 7084TIP3    H121209   1.392   5.442   0.964 -0.2625  0.0600 -0.9383
 7084TIP3    H221210   1.437   5.567   1.037 -0.7522 -0.1508 -0.2687
 7085TIP3   OH221211   5.040   2.113   5.941 -0.1355 -0.0867 -1.1605
 7085TIP3    H121212   5.116   2.116   5.999 -2.9677  2.0663  2.8858
 7085TIP3    H221213   5.040   2.197   5.897 -0.7146  0.3706 -0.3074
 7086TIP3   OH221214   7.123   0.387   6.103 -0.0229  0.3071  0.6708
 7086TIP3    H121215   7.168   0.456   6.055  2.2725 -2.7224 -1.9252
 7086TIP3    H221216   7.033   0.392   6.071  0.7293  0.4081 -1.6156
 7087TIP3   OH221217   4.177   6.578   4.335  0.0913  0.0838  0.1470
 7087TIP3    H121218   4.208   6.492   4.362 -0.1273 -0.1542 -0.3477
 7087TIP3    H221219   4.246   6.611   4.277 -1.0297 -0.9080 -1.8411
 7088TIP3   OH221220   4.874   7.054   4.240  0.0654 -0.4526 -0.2664
 7088TIP3    H121221   4.951   7.090   4.283 -0.3864 -1.2959  1.3026
 7088TIP3    H221222   4.891   6.961   4.233 -0.1299 -0.4209 -1.4213
 7089TIP3   OH221223   5.721   0.666   5.651 -0.5452  0.2403 -0.2116
 7089TIP3    H121224   5.717   0.591   5.710  0.8163  0.5766  0.3513
 7089TIP3    H221225   5.669   0.640   5.575  0.3067 -1.5084 -0.2509
 7090TIP3   OH221226   5.816   4.326   4.509 -0.5286  0.2288  0.0297
 7090TIP3    H121227   5.911   4.336   4.512 -0.4503 -0.5193  0.1770
 7090TIP3    H221228   5.790   4.304   4.599 -0.9331  1.1371  0.1506
 7091TIP3   OH221229   3.196   5.300   1.971 -0.3077  0.2781  0.1113
 7091TIP3    H121230   3.249   5.299   1.891  0.5888 -1.9150  0.6434
 7091TIP3    H221231   3.180   5.392   1.989  2.1851  0.9800 -0.8508
 7092TIP3   OH221232   2.921   3.402   5.911  0.6197  0.6388  0.1818
 7092TIP3    H121233   2.905   3.412   6.005  0.3315  0.2392  0.1766
 7092TIP3    H221234   3.016   3.405   5.902  0.6406  0.8421  0.4661
 7093TIP3   OH221235   6.215   7.577   6.736  0.3436  0.0079  0.2655
 7093TIP3    H121236   6.259   7.651   6.779 -1.3858  0.4464  1.3810
 7093TIP3    H221237   6.257   7.499   6.772  0.8200  0.4222  0.6159
 7094TIP3   OH221238   6.004   4.339   0.586 -0.2825  0.3328  0.1626
 7094TIP3    H121239   6.059   4.298   0.519 -2.2503 -2.3397  0.0305
 7094TIP3    H221240   5.939   4.388   0.535 -0.1635  0.5282  0.1996
 7095TIP3   OH221241   4.920   2.872   5.446  0.6053 -0.4268  0.2740
 7095TIP3    H121242   4.985   2.942   5.437  1.7923 -1.6002 -0.6354
 7095TIP3    H221243   4.850   2.897   5.386  1.1566 -0.1563 -0.2697
 7096TIP3   OH221244   0.943   2.380   5.052 -0.5286  0.1618 -0.2472
 7096TIP3    H121245   0.854   2.412   5.057 -1.3663 -1.9786 -0.2984
 7096TIP3    H221246   0.975   2.381   5.142 -0.0085  2.3409 -0.3995
 7097TIP3   OH221247   2.280   4.450   3.820 -0.6125  0.3711 -0.2387
 7097TIP3    H121248   2.222   4.376   3.802  1.0850 -0.4643 -2.7720
 7097TIP3    H221249   2.258   4.515   3.753  0.9953  0.2345 -0.9346
 7098TIP3   OH221250   4.639   0.230   0.689  0.2010 -0.3237 -0.2056
 7098TIP3    H121251   4.631   0.158   0.752 -1.3769 -0.4803 -0.5591
 7098TIP3    H221252   4.655   0.307   0.744 -3.1336 -0.0871  0.6675
 7099TIP3   OH221253   6.336   2.669   3.427 -0.6646 -0.0372  0.0665
 7099TIP3    H121254   6.267   2.694   3.490 -0.3906 -1.5197  1.0082
 7099TIP3    H221255   6.383   2.750   3.411 -2.0421  0.8172  0.1426
 7100TIP3   OH221256   0.620   3.966   3.071 -0.2475  0.3900  0.5149
 7100TIP3    H121257   0.694   4.004   3.119 -0.1011  2.8306 -1.4188
 7100TIP3    H221258   0.580   4.040   3.026 -2.8155 -1.1484  0.0718
 7101TIP3   OH221259   1.490   2.257   5.574  0.1676  0.4527  0.0272
 7101TIP3    H121260   1.532   2.282   5.656 -0.4745  2.3201 -0.1570
 7101TIP3    H221261   1.563   2.242   5.514  0.6297  0.0577  0.6747
 7102TIP3   OH221262   4.724   4.048   5.194  0.4821 -0.2494  0.5752
 7102TIP3    H121263   4.687   4.008   5.115  0.0077 -0.4853  0.9169
 7102TIP3    H221264   4.652   4.049   5.257  1.4995 -2.4468  1.9065
 7103TIP3   OH221265   3.471   3.694   2.080  0.3153  0.2050  0.2180
 7103TIP3    H121266   3.456   3.600   2.088 -0.1444  0.3001  0.5090
 7103TIP3    H221267   3.551   3.710   2.130  1.3487 -0.2781 -1.1976
 7104TIP3   OH221268   6.804   4.141   6.380  0.3752 -0.3949 -0.2942
 7104TIP3    H121269   6.738   4.092   6.428  0.9949 -0.7642  0.1893
 7104TIP3    H221270   6.862   4.074   6.344  1.5991 -0.0198  0.9048
 7105TIP3   OH221271   7.840   7.504   4.470  0.2625  0.3255  0.3684
 7105TIP3    H121272   7.777   7.564   4.430  2.7588  1.4619 -2.2542
 7105TIP3    H221273   7.835   7.424   4.418  0.3293  0.0680  0.7501
 7106TIP3   OH221274   8.074   2.406   6.076  0.2247  0.2332 -0.1881
 7106TIP3    H121275   8.146   2.385   6.017  1.0285 -0.5849  1.0448
 7106TIP3    H221276   8.024   2.325   6.084  0.6204  0.0790  0.9091
 7107TIP3   OH221277   4.839   0.744   1.706  0.7098  0.0789 -0.2723
 7107TIP3    H121278   4.889   0.719   1.629  0.6601  1.4523 -0.7867
 7107TIP3    H221279   4.771   0.677   1.714  1.1152 -0.4335 -1.0418
 7108TIP3   OH221280   0.553   6.869   2.341 -0.2160  0.1465 -0.1629
 7108TIP3    H121281   0.539   6.856   2.247 -0.7135 -1.5317  0.0972
 7108TIP3    H221282   0.519   6.956   2.359 -0.0086  0.5333 -1.5590
 7109TIP3   OH221283   1.942   2.939   3.170  0.2604  0.3004 -0.0934
 7109TIP3    H121284   1.876   2.994   3.213 -0.0925 -0.2055  0.0256
 7109TIP3    H221285   1.990   2.899   3.242  1.7905  1.8878 -0.1410
 7110TIP3   OH221286   2.611   3.676   3.485  0.6317 -0.0502  0.2955
 7110TIP3    H121287   2.625   3.771   3.489  0.2472  0.0148  0.1528
 7110TIP3    H221288   2.610   3.648   3.576 -1.5467  0.4406  0.4946
 7111TIP3   OH221289   2.850   4.591   0.384  0.4160  0.0066 -0.3453
 7111TIP3    H121290   2.932   4.578   0.337  0.1869 -1.0484 -0.4766
 7111TIP3    H221291   2.850   4.684   0.406  1.4976  0.0880 -0.6143
 7112TIP3   OH221292   6.258   7.662   5.243  0.3045  0.3241 -0.1481
 7112TIP3    H121293   6.270   7.727   5.173  0.1791 -0.2137 -0.6853
 7112TIP3    H221294   6.340   7.612   5.243  0.5491  0.7161  0.5177
 7113TIP3   OH221295   5.654   2.745   3.420 -0.0072 -0.4700  0.2324
 7113TIP3    H121296   5.575   2.789   3.452 -0.2210 -0.7997  0.1701
 7113TIP3    H221297   5.634   2.652   3.430  0.3898 -0.5530  0.2485
 7114TIP3   OH221298   7.086   1.243   2.708 -0.1020  0.6910 -0.4255
 7114TIP3    H121299   7.056   1.311   2.768  0.3993  1.9547 -1.5646
 7114TIP3    H221300   7.165   1.208   2.749 -0.2989  0.8710  0.1163
 7115TIP3   OH221301   3.571   5.516   5.834  0.0842 -0.3809  0.3469
 7115TIP3    H121302   3.664   5.525   5.814 -0.0120  1.6854  0.6218
 7115TIP3    H221303   3.569   5.488   5.926  0.4301  0.0840  0.4986
 7116TIP3   OH221304   7.533   5.505   6.632  0.3468 -0.6231  0.1477
 7116TIP3    H121305   7.510   5.598   6.631  0.3593 -0.6045 -1.5044
 7116TIP3    H221306   7.603   5.497   6.697  0.0762  0.4521  0.5755
 7117TIP3   OH221307   5.098   3.301   1.286  0.0077 -0.4332 -0.1440
 7117TIP3    H121308   5.054   3.247   1.352  0.3120  0.5186  0.8605
 7117TIP3    H221309   5.173   3.338   1.332  0.2888  0.1636 -1.0660
 7118TIP3   OH221310   5.517   4.699   4.140 -0.2083 -0.5163 -0.1369
 7118TIP3    H121311   5.469   4.781   4.153  1.5772  0.6823 -0.5943
 7118TIP3    H221312   5.509   4.653   4.224 -0.5334  0.5486  0.4422
 7119TIP3   OH221313   8.119   0.642   5.440 -0.5062  0.4028 -0.4662
 7119TIP3    H121314   8.096   0.550   5.428  1.7695 -0.0560 -1.8120
 7119TIP3    H221315   8.141   0.673   5.352  2.0700  1.2558  0.3896
 7120TIP3   OH221316   3.514   2.082   5.459 -0.3551 -0.1734  0.3077
 7120TIP3    H121317   3.494   1.988   5.456 -1.4155  0.0507 -1.1494
 7120TIP3    H221318   3.475   2.117   5.378  1.2955  1.2810  0.0706
 7121TIP3   OH221319   7.020   0.850   1.538  0.6075  0.6407  0.6293
 7121TIP3    H121320   7.099   0.863   1.485  0.3284  1.5378  0.4233
 7121TIP3    H221321   6.953   0.824   1.475  0.5562  0.6084  0.6974
 7122TIP3   OH221322   7.096   3.205   0.426  0.2001  0.5536  0.3157
 7122TIP3    H121323   7.186   3.179   0.410  0.0784 -0.0962  0.6230
 7122TIP3    H221324   7.088   3.208   0.521 -0.7986 -2.1192  0.4185
 7123TIP3   OH221325   1.715   0.156   3.420 -0.4738  0.1825  0.0741
 7123TIP3    H121326   1.662   0.082   3.450 -0.1676 -0.7464 -1.5623
 7123TIP3    H221327   1.658   0.202   3.358  0.2717 -0.3016 -1.0046
 7124TIP3   OH221328   2.614   7.511   4.794  0.5675  0.2720 -0.2101
 7124TIP3    H121329   2.659   7.514   4.709  1.7151  2.1614  0.3934
 7124TIP3    H221330   2.638   7.426   4.831  0.1545 -0.5234 -1.6997
 7125TIP3   OH221331   1.028   4.503   4.073  0.0370  0.1305 -0.0019
 7125TIP3    H121332   1.094   4.571   4.066 -0.0106  0.1257 -0.6124
 7125TIP3    H221333   0.955   4.545   4.119 -0.3537  0.7870 -1.1700
 7126TIP3   OH221334   6.663   7.752   2.707  0.0741  0.1711  0.5627
 7126TIP3    H121335   6.619   7.834   2.728 -3.2360 -0.7713 -1.7298
 7126TIP3    H221336   6.684   7.760   2.614  0.0725 -1.3722  0.4034
 7127TIP3   OH221337   7.802   4.910   1.399 -0.7966  0.1203 -0.0136
 7127TIP3    H121338   7.810   5.001   1.372  0.2552  0.0432  0.0255
 7127TIP3    H221339   7.714   4.905   1.437 -1.0617  0.9877 -0.4744
 7128TIP3   OH221340   4.396   4.956   0.946  0.4080 -0.1977 -0.1589
 7128TIP3    H121341   4.440   4.874   0.923  1.3425 -0.9782  3.6331
 7128TIP3    H221342   4.303   4.936   0.939  0.6166 -1.6893  0.8316
 7129TIP3   OH221343   5.883   1.718   6.519 -0.4153  0.3142 -0.4678
 7129TIP3    H121344   5.978   1.719   6.535 -0.5071  1.2662  0.1260
 7129TIP3    H221345   5.870   1.648   6.455  0.3997 -1.4746  1.2277
 7130TIP3   OH221346   2.636   6.650   1.529 -0.1688  0.2667 -0.1247
 7130TIP3    H121347   2.635   6.583   1.460 -2.4720  0.9941 -0.8800
 7130TIP3    H221348   2.552   6.641   1.572  0.6264  0.8582  1.6348
 7131TIP3   OH221349   0.260   0.654   1.175 -0.6491  0.5658 -0.0067
 7131TIP3    H121350   0.181   0.661   1.228  0.5684  0.2828  1.9083
 7131TIP3    H221351   0.326   0.702   1.223  0.5944  0.0050 -1.1020
 7132TIP3   OH221352   1.798   1.071   1.160 -0.2349  0.2818  0.2082
 7132TIP3    H121353   1.710   1.055   1.194 -0.5072  0.1392 -0.5425
 7132TIP3    H221354   1.834   1.139   1.218 -0.9281  0.5165  0.3772
 7133TIP3   OH221355   6.750   6.537   1.171  0.8090 -0.0675  0.4071
 7133TIP3    H121356   6.712   6.504   1.090  1.6750 -2.1335  0.7799
 7133TIP3    H221357   6.707   6.621   1.186 -2.6464 -1.6340  0.1336
 7134TIP3   OH221358   3.639   4.542   5.843  0.3786 -0.0093 -0.7979
 7134TIP3    H121359   3.563   4.565   5.789  0.6355  1.1268 -0.6975
 7134TIP3    H221360   3.659   4.452   5.818 -1.2366 -0.4742 -0.5459
 7135TIP3   OH221361   2.880   1.234   6.680  0.5033  0.3541 -0.2404
 7135TIP3    H121362   2.864   1.193   6.765  1.8195  0.9100  0.3139
 7135TIP3    H221363   2.976   1.234   6.671  0.4079  0.7564 -1.4963
 7136TIP3   OH221364   1.890   4.519   5.412  0.3107  0.0741  0.4356
 7136TIP3    H121365   1.890   4.557   5.325 -0.9412 -0.8353 -0.0053
 7136TIP3    H221366   1.803   4.539   5.447  0.1230 -1.1509  0.7231
 7137TIP3   OH221367   3.279   6.331   4.672  0.4023  0.1954 -0.6756
 7137TIP3    H121368   3.216   6.306   4.739  0.8111 -2.9309 -1.3191
 7137TIP3    H221369   3.326   6.405   4.710 -1.7936  0.8739  0.9294
 7138TIP3   OH221370   1.855   1.273   6.152 -0.4582  0.2527 -0.4054
 7138TIP3    H121371   1.887   1.183   6.155 -0.4817  0.2684  0.9857
 7138TIP3    H221372   1.760   1.265   6.144 -0.4470  0.1520 -0.4335
 7139TIP3   OH221373   7.262   1.867   5.778 -0.1284 -0.9519  0.2810
 7139TIP3    H121374   7.273   1.782   5.820  0.7663 -1.1630 -0.3433
 7139TIP3    H221375   7.351   1.899   5.763 -0.4534  0.1195  0.5430
 7140TIP3   OH221376   7.002   3.056   5.436  0.3960  0.1063  0.2182
 7140TIP3    H121377   7.093   3.047   5.463  0.8140  0.8789 -0.8512
 7140TIP3    H221378   6.966   3.123   5.494  0.4700 -0.2642  0.7008
 7141TIP3   OH221379   0.395   2.710   3.983  0.0289  0.1604 -0.2715
 7141TIP3    H121380   0.430   2.621   3.988  2.2698  0.9320 -0.7687
 7141TIP3    H221381   0.303   2.698   3.958  0.6218 -1.9817 -1.7748
 7142TIP3   OH221382   6.132   4.560   3.073  0.1366 -0.0098  0.1801
 7142TIP3    H121383   6.093   4.480   3.108 -0.3896  0.5527  0.9045
 7142TIP3    H221384   6.185   4.594   3.145  1.8114 -0.6242 -0.6996
 7143TIP3   OH221385   1.870   1.971   1.361  0.1432 -0.1164  0.1620
 7143TIP3    H121386   1.932   1.997   1.429  0.2045 -0.9038  0.4163
 7143TIP3    H221387   1.923   1.962   1.282  0.4457 -1.2344  0.4791
 7144TIP3   OH221388   0.856   0.724   0.669 -0.5745  0.1793 -0.3600
 7144TIP3    H121389   0.903   0.695   0.747 -0.7151  0.3675 -0.2038
 7144TIP3    H221390   0.907   0.690   0.595  0.0745  0.7847 -0.2059
 7145TIP3   OH221391   6.332   3.937   2.355  0.0631 -0.0280  0.0244
 7145TIP3    H121392   6.343   3.842   2.350 -0.9580 -0.1977  0.6604
 7145TIP3    H221393   6.244   3.953   2.320 -0.7702  0.3830  2.1023
 7146TIP3   OH221394   4.966   3.739   3.432 -0.5187  0.7453 -0.0016
 7146TIP3    H121395   5.030   3.673   3.405 -0.6689  0.6850 -0.2098
 7146TIP3    H221396   4.920   3.700   3.505  1.0359  1.5543  1.4896
 7147TIP3   OH221397   5.598   2.188   2.423  0.1240  0.3053  0.4677
 7147TIP3    H121398   5.606   2.205   2.329 -0.5003 -0.1207  0.3263
 7147TIP3    H221399   5.607   2.093   2.431 -0.5243  0.2557  0.7427
 7148TIP3   OH221400   7.510   4.726   3.543  0.5535  0.0472 -0.3691
 7148TIP3    H121401   7.532   4.634   3.528  1.1598  0.3306 -1.3250
 7148TIP3    H221402   7.446   4.725   3.614 -2.3098 -1.3941 -2.7787
 7149TIP3   OH221403   5.541   7.795   2.437  0.4808 -0.1203 -0.3919
 7149TIP3    H121404   5.481   7.767   2.367 -1.0451  1.6340  0.1359
 7149TIP3    H221405   5.528   7.730   2.507 -0.3839 -0.1002 -0.5179
 7150TIP3   OH221406   8.279   5.995   1.831 -0.5447 -0.0732 -0.1519
 7150TIP3    H121407   8.344   6.001   1.762 -1.5345 -1.9780 -1.3456
 7150TIP3    H221408   8.210   6.057   1.806 -1.4655 -1.5921 -1.6176
 7151TIP3   OH221409   7.290   0.500   4.408  0.5471 -0.1631  0.2750
 7151TIP3    H121410   7.320   0.418   4.448 -0.8626 -0.6664  0.3398
 7151TIP3    H221411   7.370   0.541   4.374  1.1796 -1.9461 -0.4690
 7152TIP3   OH221412   6.013   0.184   1.766  0.3855 -0.3115  0.0090
 7152TIP3    H121413   5.918   0.197   1.766  0.3791 -0.2310  1.4768
 7152TIP3    H221414   6.024   0.089   1.758  0.1288 -0.4593  1.2628
 7153TIP3   OH221415   3.428   5.412   5.266 -0.1101 -0.4479 -0.0780
 7153TIP3    H121416   3.390   5.468   5.334  0.8967  2.7355 -1.9456
 7153TIP3    H221417   3.385   5.327   5.278 -1.6053  0.6072  3.0509
 7154TIP3   OH221418   7.657   1.005   6.717 -0.0266  0.2876  0.4973
 7154TIP3    H121419   7.712   0.983   6.792  0.7538 -0.1805 -0.1945
 7154TIP3    H221420   7.591   0.935   6.714 -0.2096  0.4407  0.8826
 7155TIP3   OH221421   7.144   7.502   1.694 -0.4323 -0.5080  1.1429
 7155TIP3    H121422   7.063   7.453   1.699 -0.0193 -1.1148  2.0074
 7155TIP3    H221423   7.196   7.455   1.628 -0.0738 -1.1914  1.9027
 7156TIP3   OH221424   7.378   3.762   1.442 -0.1693  0.3848 -0.4490
 7156TIP3    H121425   7.387   3.839   1.498 -0.4421  0.1736 -0.1118
 7156TIP3    H221426   7.391   3.795   1.353 -0.2021  0.8027 -0.2985
 7157TIP3   OH221427   8.050   6.104   3.187  0.5273 -0.6808  0.6195
 7157TIP3    H121428   7.987   6.126   3.118  0.6677  0.2014  0.7691
 7157TIP3    H221429   8.130   6.153   3.164  1.2402 -1.9373  0.3205
 7158TIP3   OH221430   4.996   5.885   2.870 -0.2691 -0.0340  0.1400
 7158TIP3    H121431   4.904   5.859   2.873 -0.6022  0.8010 -1.4425
 7158TIP3    H221432   5.010   5.911   2.779  1.1404  1.2646  0.6881
 7159TIP3   OH221433   0.680   2.357   6.034 -0.4167  0.0710  0.3086
 7159TIP3    H121434   0.772   2.342   6.012 -0.3956  1.3328 -0.5729
 7159TIP3    H221435   0.640   2.269   6.030  0.7743 -0.5148  0.9147
 7160TIP3   OH221436   7.295   6.064   0.137 -0.1909 -0.1879 -0.0393
 7160TIP3    H121437   7.240   6.040   0.062  0.1028 -0.6478 -0.1101
 7160TIP3    H221438   7.243   6.127   0.186 -0.2801  0.3160 -0.7755
 7161TIP3   OH221439   1.784   2.078   3.657  0.3555 -0.2248 -0.3495
 7161TIP3    H121440   1.858   2.127   3.621 -0.7252  1.8173  0.0484
 7161TIP3    H221441   1.711   2.096   3.597 -0.6046  0.4379  0.9708
 7162TIP3   OH221442   6.417   3.724   4.151  0.6340 -0.4180  0.2723
 7162TIP3    H121443   6.411   3.638   4.193  1.2163 -0.1648  0.9069
 7162TIP3    H221444   6.329   3.759   4.156  0.4099 -0.9385  0.0887
 7163TIP3   OH221445   6.993   5.680   6.149  0.3205  0.2006  0.2509
 7163TIP3    H121446   6.909   5.659   6.189  0.7501  1.3838  1.8595
 7163TIP3    H221447   6.994   5.775   6.142  1.2637  0.1620 -0.3371
 7164TIP3   OH221448   7.638   7.204   6.371 -0.5538  0.0797  0.2903
 7164TIP3    H121449   7.561   7.238   6.326  0.0238 -1.5882 -2.1242
 7164TIP3    H221450   7.710   7.259   6.343  0.2088 -2.2624 -2.8527
 7165TIP3   OH221451   5.936   2.649   0.912  0.2964  0.4844 -0.1845
 7165TIP3    H121452   6.001   2.583   0.940 -0.3007  0.4316  1.1311
 7165TIP3    H221453   5.983   2.701   0.847  1.2435 -0.3654 -0.2234
 7166TIP3   OH221454   5.609   4.020   5.011 -0.3141  0.2282  0.4113
 7166TIP3    H121455   5.632   4.026   5.104  0.4853  1.9524  0.1487
 7166TIP3    H221456   5.534   4.079   5.001  1.9848  3.2851 -0.6463
 7167TIP3   OH221457   6.206   4.535   3.791  0.2030  0.8249 -0.3535
 7167TIP3    H121458   6.245   4.614   3.753 -0.3201  0.6177 -1.3505
 7167TIP3    H221459   6.242   4.463   3.740 -1.5278  0.6350 -1.3754
 7168TIP3   OH221460   4.059   0.327   3.773 -1.1324 -0.5914 -0.1639
 7168TIP3    H121461   4.087   0.315   3.864 -0.0513  1.3471 -0.1885
 7168TIP3    H221462   4.138   0.357   3.727 -1.4432 -2.3301 -1.9664
 7169TIP3   OH221463   4.135   5.614   1.347  0.3136  0.8089  0.4825
 7169TIP3    H121464   4.170   5.560   1.276 -0.9526 -0.7150  0.9720
 7169TIP3    H221465   4.054   5.650   1.312 -0.2391  0.1712  1.0865
 7170TIP3   OH221466   3.182   5.214   2.525 -0.1554  0.2426  0.8832
 7170TIP3    H121467   3.189   5.234   2.431  0.3269 -0.9445  0.6453
 7170TIP3    H221468   3.171   5.119   2.528 -0.4125  0.2953  2.0307
 7171TIP3   OH221469   5.586   5.573   5.129 -0.7059 -0.2071  0.3529
 7171TIP3    H121470   5.679   5.561   5.110 -0.4337  2.1425 -0.1678
 7171TIP3    H221471   5.545   5.579   5.043 -1.2410 -0.5401  0.5790
 7172TIP3   OH221472   8.018   7.800   1.390  0.1695 -0.6121 -0.1058
 7172TIP3    H121473   8.056   7.713   1.400  0.7056 -0.9299 -3.6507
 7172TIP3    H221474   8.023   7.819   1.297 -0.9708  2.7981  0.3453
 7173TIP3   OH221475   5.487   6.037   3.680  0.1546 -0.4480  0.0012
 7173TIP3    H121476   5.507   6.093   3.604  0.2993  0.6776  0.8355
 7173TIP3    H221477   5.421   6.087   3.729  1.9945  0.1627  2.0086
 7174TIP3   OH221478   4.985   1.404   1.599 -0.1112 -0.7266  0.3082
 7174TIP3    H121479   5.028   1.460   1.533 -0.1448 -0.8853  0.1517
 7174TIP3    H221480   5.048   1.334   1.615 -0.3135 -0.9613  0.0767
 7175TIP3   OH221481   7.814   7.217   1.253  0.2782 -0.2667  0.5326
 7175TIP3    H121482   7.867   7.285   1.213 -1.1139  0.7054  0.2861
 7175TIP3    H221483   7.817   7.144   1.191  1.3165 -0.2337  0.5335
 7176TIP3   OH221484   4.713   1.524   3.919 -0.1122 -0.5088  0.4777
 7176TIP3    H121485   4.678   1.500   3.834  0.4163 -1.3388  0.4890
 7176TIP3    H221486   4.637   1.555   3.969 -0.1882  1.5813 -0.8150
 7177TIP3   OH221487   1.225   7.397   6.003 -0.1567 -0.0475 -0.4341
 7177TIP3    H121488   1.198   7.482   6.039  2.5959  1.0893 -0.8303
 7177TIP3    H221489   1.239   7.342   6.079 -0.1019  0.4777 -0.0560
 7178TIP3   OH221490   8.043   4.065   0.462 -0.2092 -0.3116  0.0745
 7178TIP3    H121491   8.098   4.137   0.491 -0.4793  1.1321 -2.7115
 7178TIP3    H221492   7.959   4.106   0.440 -0.4424 -1.4861 -1.3686
 7179TIP3   OH221493   4.257   5.973   3.847  0.1178 -0.1698 -0.3146
 7179TIP3    H121494   4.334   5.939   3.891  0.1932 -1.1259 -1.1382
 7179TIP3    H221495   4.188   5.909   3.866 -0.0242 -0.2271 -0.9926
 7180TIP3   OH221496   4.171   5.452   3.124  0.4474 -0.1694 -0.5534
 7180TIP3    H121497   4.117   5.390   3.173 -0.9265  1.8695  0.6650
 7180TIP3    H221498   4.140   5.445   3.033 -0.8264 -0.1318 -0.1344
 7181TIP3   OH221499   2.250   4.146   4.152 -0.5186  0.4117  0.0009
 7181TIP3    H121500   2.171   4.186   4.114 -0.6534  0.4409  0.3090
 7181TIP3    H221501   2.222   4.116   4.238  0.0823  1.3857  0.5512
 7182TIP3   OH221502   6.345   5.442   1.171  0.0444 -0.0215  0.4448
 7182TIP3    H121503   6.294   5.519   1.146 -0.9380  0.1537  2.6911
 7182TIP3    H221504   6.299   5.407   1.247  2.0159 -1.2273  1.1619
 7183TIP3   OH221505   6.109   5.294   0.655  0.3721  0.1810 -0.2677
 7183TIP3    H121506   6.117   5.199   0.660 -1.3996 -0.0170 -0.6140
 7183TIP3    H221507   6.078   5.320   0.742  1.2176  0.5119 -0.0510
 7184TIP3   OH221508   2.193   1.507   4.444  0.0537  0.4384  0.1433
 7184TIP3    H121509   2.147   1.567   4.384  0.1234 -0.2511 -0.6146
 7184TIP3    H221510   2.239   1.447   4.386  1.1771  0.5513  0.8961
 7185TIP3   OH221511   6.668   3.090   4.906 -0.1509 -0.1124  0.0171
 7185TIP3    H121512   6.633   3.002   4.920  0.8081 -0.5755 -0.4392
 7185TIP3    H221513   6.591   3.143   4.884 -0.3773 -1.6272 -3.5102
 7186TIP3   OH221514   7.858   1.113   1.764  0.0337  0.6643 -0.1617
 7186TIP3    H121515   7.806   1.183   1.804  0.9970 -0.3879  3.3210
 7186TIP3    H221516   7.945   1.151   1.752 -0.1519  0.8577 -0.9370
 7187TIP3   OH221517   4.316   0.676   3.493 -0.1925 -0.0450  0.0977
 7187TIP3    H121518   4.398   0.725   3.489  0.5746 -1.3308 -0.2192
 7187TIP3    H221519   4.269   0.703   3.414  1.6606 -2.2452 -1.8854
 7188TIP3   OH221520   6.008   3.130   1.360  0.4480 -0.2308 -0.0376
 7188TIP3    H121521   5.943   3.165   1.421 -1.2618 -0.5514 -1.5680
 7188TIP3    H221522   6.042   3.052   1.403  0.8566  0.6878  1.3819
 7189TIP3   OH221523   6.921   7.568   5.182  0.1797  0.0639 -0.6731
 7189TIP3    H121524   6.868   7.488   5.189 -0.0513  0.2567 -0.1856
 7189TIP3    H221525   7.012   7.537   5.188  0.0759 -0.0956  0.3429
 7190TIP3   OH221526   5.848   2.464   4.548 -0.6012  0.1318 -0.1043
 7190TIP3    H121527   5.913   2.483   4.616 -0.2655 -1.4470  0.0482
 7190TIP3    H221528   5.766   2.454   4.596 -0.5089 -0.2005 -0.0101
 7191TIP3   OH221529   1.111   2.465   3.151 -0.5381  0.5559  0.4682
 7191TIP3    H121530   1.194   2.506   3.176 -0.5838  1.6416 -1.0164
 7191TIP3    H221531   1.132   2.414   3.073 -1.1472  0.3501  0.4309
 7192TIP3   OH221532   6.835   6.960   5.611 -0.1444  0.2949  0.2294
 7192TIP3    H121533   6.927   6.965   5.634 -0.0055 -0.7827 -0.0376
 7192TIP3    H221534   6.834   6.935   5.519 -0.6268 -2.8508  0.9597
 7193TIP3   OH221535   3.329   1.386   0.338 -0.3773 -0.6864 -0.2891
 7193TIP3    H121536   3.284   1.462   0.301 -0.7816 -0.5263  0.5032
 7193TIP3    H221537   3.331   1.322   0.268 -1.0070 -0.3433 -0.6289
 7194TIP3   OH221538   0.973   1.615   6.051  0.5814 -0.4572 -0.1204
 7194TIP3    H121539   1.024   1.691   6.078  1.1667 -0.9857  0.3041
 7194TIP3    H221540   0.887   1.629   6.089  0.5862  0.1479 -0.3201
 7195TIP3   OH221541   8.167   4.485   6.369  0.3812 -0.2434  0.4486
 7195TIP3    H121542   8.158   4.440   6.453 -0.2692  1.2520  1.2148
 7195TIP3    H221543   8.170   4.414   6.304 -1.3325 -1.3793  1.5295
 7196TIP3   OH221544   6.622   7.025   0.035  0.4303 -0.6175 -0.4055
 7196TIP3    H121545   6.555   6.983   0.089 -1.5112  2.1745 -0.4448
 7196TIP3    H221546   6.705   6.986   0.065 -0.9810 -2.7190  1.0683
 7197TIP3   OH221547  -0.020   4.798   0.579 -0.2625  0.7234  0.4354
 7197TIP3    H121548   0.070   4.828   0.566  0.2307 -0.7159  0.4062
 7197TIP3    H221549  -0.028   4.720   0.525 -1.4515  0.6679  0.6594
 7198TIP3   OH221550   7.198   7.052   6.418 -0.5594  0.1834  0.2809
 7198TIP3    H121551   7.108   7.078   6.396 -0.7524  0.1898  1.0577
 7198TIP3    H221552   7.199   7.048   6.513  0.9190  2.6546  0.4603
 7199TIP3   OH221553   5.075   4.427   0.859 -0.7734  0.5860  0.1590
 7199TIP3    H121554   5.066   4.505   0.914  1.0327  1.0474 -0.1430
 7199TIP3    H221555   4.985   4.404   0.836 -1.4073  1.9508  1.1120
 7200TIP3   OH221556   5.636   5.802   2.288  0.5122 -0.0879 -0.2859
 7200TIP3    H121557   5.627   5.714   2.251 -0.7485  0.1687 -0.6462
 7200TIP3    H221558   5.652   5.787   2.381  0.7281 -0.6985 -0.4118
 7201TIP3   OH221559   2.673   7.446   2.566  0.4254 -0.2011  0.2391
 7201TIP3    H121560   2.637   7.360   2.589 -1.0491 -0.0640 -1.3335
 7201TIP3    H221561   2.767   7.432   2.555  0.4173 -1.2847  1.4070
 7202TIP3   OH221562   2.350   3.120   3.111 -0.7305 -0.1775  0.0644
 7202TIP3    H121563   2.389   3.046   3.157  0.2153  0.2931  0.0473
 7202TIP3    H221564   2.420   3.151   3.053 -0.8926  1.1301  0.5499
 7203TIP3   OH221565   1.355   5.691   2.512  0.3948 -0.2426  0.2329
 7203TIP3    H121566   1.441   5.732   2.516  0.1134  0.4033 -0.1455
 7203TIP3    H221567   1.330   5.697   2.420  0.6566 -1.9427  0.0166
 7204TIP3   OH221568   1.791   0.943   2.175 -0.4816 -0.3060  0.6210
 7204TIP3    H121569   1.741   0.963   2.095  0.6202 -1.2100 -0.3244
 7204TIP3    H221570   1.882   0.940   2.147 -0.1424 -1.5128  1.7258
 7205TIP3   OH221571   3.626   2.023   0.907 -0.1799 -0.1192 -0.2085
 7205TIP3    H121572   3.699   2.062   0.957  0.0711  1.1326 -1.4879
 7205TIP3    H221573   3.573   2.097   0.881 -0.0440 -0.6673 -2.1934
 7206TIP3   OH221574   6.972   1.068   3.318  1.1420  0.1124  0.1208
 7206TIP3    H121575   7.003   1.016   3.244 -2.4596 -0.2875 -1.3294
 7206TIP3    H221576   6.972   1.158   3.285  0.2341  0.0234 -0.1584
 7207TIP3   OH221577   2.229   0.720   0.224  0.8768  0.1852  0.3076
 7207TIP3    H121578   2.294   0.737   0.156  0.7950 -0.8758 -0.0551
 7207TIP3    H221579   2.272   0.657   0.282  0.0988 -0.6875 -0.0555
 7208TIP3   OH221580   0.832   4.375   2.346  0.0788 -0.1270  0.5116
 7208TIP3    H121581   0.927   4.366   2.353  0.0277 -1.6951 -0.3895
 7208TIP3    H221582   0.819   4.440   2.277  0.5680 -2.3522 -1.8321
 7209TIP3   OH221583   3.017   6.044   5.031  0.1991  0.1249 -0.5735
 7209TIP3    H121584   2.969   5.962   5.020  0.7359 -0.0036 -2.2159
 7209TIP3    H221585   3.108   6.021   5.011  1.5913 -0.1669  4.5740
 7210TIP3   OH221586   7.597   1.984   6.744  0.5486  0.0947  0.3056
 7210TIP3    H121587   7.572   1.892   6.738  2.6097 -0.5599  0.6348
 7210TIP3    H221588   7.527   2.032   6.700 -0.0997 -1.7055 -0.7184
 7211TIP3   OH221589   8.098   2.181   1.997 -0.1216  0.2127 -0.0047
 7211TIP3    H121590   8.192   2.195   2.001  0.3170 -2.4152  0.4593
 7211TIP3    H221591   8.063   2.228   2.073  1.5097 -2.9386  2.9436
 7212TIP3   OH221592   0.875   5.228   2.092 -0.1020  0.3851  0.6204
 7212TIP3    H121593   0.813   5.157   2.073  0.1742  0.5556 -1.0248
 7212TIP3    H221594   0.857   5.294   2.026  1.7206  0.5079  0.1898
 7213TIP3   OH221595   5.377   7.676   2.237  0.5789  0.1255  0.1330
 7213TIP3    H121596   5.396   7.680   2.143 -1.4654  1.0135 -0.3043
 7213TIP3    H221597   5.386   7.583   2.259  1.2816 -0.0737 -0.8703
 7214TIP3   OH221598   4.511   4.332   0.776 -0.1471  0.4898  0.7372
 7214TIP3    H121599   4.571   4.353   0.849  1.4417 -1.4853  0.0922
 7214TIP3    H221600   4.519   4.238   0.765  1.5247  0.9073 -3.4720
 7215TIP3   OH221601   4.980   3.893   5.179  0.0783  0.3898 -0.0572
 7215TIP3    H121602   5.067   3.928   5.195  0.3845 -0.9968  1.5201
 7215TIP3    H221603   4.921   3.964   5.206  0.6555  1.4849 -1.4950
 7216TIP3   OH221604   2.845   7.005   0.315 -0.5846 -0.0324 -0.7867
 7216TIP3    H121605   2.901   7.081   0.300 -0.5792  0.1893  0.2855
 7216TIP3    H221606   2.896   6.949   0.374 -1.7698  0.5557  0.8924
 7217TIP3   OH221607   7.416   1.668   5.897  0.1586  0.4415 -0.0850
 7217TIP3    H121608   7.406   1.611   5.821 -0.5869  0.1978  0.1843
 7217TIP3    H221609   7.503   1.649   5.932  0.1169 -0.1496 -0.3034
 7218TIP3   OH221610   8.204   5.612   3.956 -0.2387 -0.3238  0.0427
 7218TIP3    H121611   8.110   5.618   3.938 -0.4184  1.5557  1.4111
 7218TIP3    H221612   8.239   5.564   3.881 -1.5712  3.2806 -3.2248
 7219TIP3   OH221613   5.950   4.776   5.594  0.4561 -0.5260  0.1103
 7219TIP3    H121614   5.977   4.858   5.553 -0.3166 -0.6726 -0.7019
 7219TIP3    H221615   5.880   4.801   5.654  0.6475 -0.5089  0.3289
 7220TIP3   OH221616   7.034   4.835   4.231 -0.2175  0.0360  0.1524
 7220TIP3    H121617   7.071   4.851   4.318  0.3567  0.4731 -0.1647
 7220TIP3    H221618   6.975   4.909   4.217 -1.5677 -0.8652  0.8239
 7221TIP3   OH221619   7.618   4.318   5.422 -0.3393  0.4928 -0.2497
 7221TIP3    H121620   7.587   4.405   5.397 -0.0788  0.8183  0.5440
 7221TIP3    H221621   7.646   4.327   5.513  1.3816  0.0240 -0.6977
 7222TIP3   OH221622   3.759   1.588   0.551 -0.1985  0.4117  0.0106
 7222TIP3    H121623   3.833   1.537   0.518  0.0720  2.7769 -3.5642
 7222TIP3    H221624   3.776   1.595   0.645  2.2732 -1.9080 -0.1212
 7223TIP3   OH221625   7.090   4.162   0.256 -0.3664  0.2334 -0.2895
 7223TIP3    H121626   7.111   4.119   0.172  0.7517  0.1521  0.0175
 7223TIP3    H221627   7.094   4.091   0.320  1.6003  0.7691  0.2403
 7224TIP3   OH221628   4.086   0.722   4.912 -0.5725 -0.4356  0.1146
 7224TIP3    H121629   4.170   0.701   4.951  0.1741  3.1546  0.7920
 7224TIP3    H221630   4.106   0.748   4.822 -0.8244  0.8715  0.4090
 7225TIP3   OH221631   3.041   1.029   1.243  0.1693  0.1604 -0.1345
 7225TIP3    H121632   2.977   0.966   1.210 -2.1045  2.5333 -0.5930
 7225TIP3    H221633   3.076   1.071   1.164  0.1661  0.8144  0.2063
 7226TIP3   OH221634   3.138   3.846   1.873 -0.1466  0.1419 -0.4464
 7226TIP3    H121635   3.111   3.852   1.965  2.5655  1.2798  0.3627
 7226TIP3    H221636   3.078   3.906   1.827 -1.4930 -0.3928  0.5404
 7227TIP3   OH221637   6.056   1.546   0.548  0.0736 -0.0778  0.1663
 7227TIP3    H121638   6.090   1.635   0.559  0.5161 -0.3062  0.6970
 7227TIP3    H221639   6.133   1.490   0.558 -0.4569 -0.6092  1.4629
 7228TIP3   OH221640   4.161   0.225   4.465 -0.0216  0.3675 -0.0217
 7228TIP3    H121641   4.205   0.275   4.396 -0.7632  1.3351  0.1790
 7228TIP3    H221642   4.232   0.185   4.515  0.5776  0.8528 -0.4687
 7229TIP3   OH221643   2.059   7.495   2.311  0.2816  0.0552  0.3236
 7229TIP3    H121644   2.067   7.468   2.402 -0.0353 -1.8055 -0.1565
 7229TIP3    H221645   2.103   7.425   2.262  0.8024  1.2170 -0.9368
 7230TIP3   OH221646   6.213   4.962   1.465  0.2449  0.0516  0.2183
 7230TIP3    H121647   6.285   4.912   1.504  0.6190 -0.6319 -1.2751
 7230TIP3    H221648   6.252   5.003   1.387 -1.4168 -2.1549 -1.9408
 7231TIP3   OH221649   4.317   0.655   5.333  0.6325  0.1802  0.4674
 7231TIP3    H121650   4.298   0.676   5.242 -0.9996 -1.8108  0.2896
 7231TIP3    H221651   4.260   0.713   5.383  2.0051  1.7427  0.2994
 7232TIP3   OH221652   0.461   7.318   6.567  0.0119 -0.0297  0.0159
 7232TIP3    H121653   0.396   7.296   6.500  1.7838  0.2504 -1.8811
 7232TIP3    H221654   0.503   7.234   6.587 -0.1878 -0.0302  0.4384
 7233TIP3   OH221655   5.658   2.649   4.720  0.0491 -0.2690 -0.1704
 7233TIP3    H121656   5.643   2.631   4.627 -2.6656 -0.6277  0.2314
 7233TIP3    H221657   5.608   2.581   4.765 -1.7910  1.9886  1.4818
 7234TIP3   OH221658   2.049   7.740   1.488 -0.1837 -0.0060 -0.2592
 7234TIP3    H121659   2.040   7.764   1.396 -0.5262  2.5219  0.3580
 7234TIP3    H221660   2.143   7.728   1.501  0.1850  2.2857 -0.4067
 7235TIP3   OH221661   1.430   0.910   3.871 -0.0829  0.0532 -0.2169
 7235TIP3    H121662   1.521   0.913   3.842  0.4534  0.4131  1.3977
 7235TIP3    H221663   1.420   0.822   3.908 -0.2352  0.1862  0.0620
 7236TIP3   OH221664   1.738   4.685   5.905  0.3797 -0.1931  0.4025
 7236TIP3    H121665   1.759   4.762   5.852  0.9956  0.1553  1.1287
 7236TIP3    H221666   1.716   4.721   5.991  0.4990 -0.8254  0.7009
 7237TIP3   OH221667   5.604   7.701   1.216 -0.2489  0.4914 -0.1231
 7237TIP3    H121668   5.535   7.760   1.247 -2.0293 -0.3863 -2.1669
 7237TIP3    H221669   5.587   7.618   1.261  0.4247  0.6748  0.4914
 7238TIP3   OH221670   1.210   2.209   0.059 -0.0262 -0.4923  0.0215
 7238TIP3    H121671   1.223   2.194   0.153  0.1032 -0.1886  0.0518
 7238TIP3    H221672   1.248   2.295   0.043 -0.0088 -0.5624 -0.3190
 7239TIP3   OH221673   7.643   6.958   4.524  0.9830  0.2375  0.1426
 7239TIP3    H121674   7.679   7.026   4.580  2.0153 -0.6661  0.6230
 7239TIP3    H221675   7.687   6.877   4.553  0.1501 -0.5513 -0.7164
 7240TIP3   OH221676   3.954   2.511   1.611  0.1219 -0.3751 -0.3899
 7240TIP3    H121677   4.046   2.488   1.615 -0.2262 -1.6901  1.4818
 7240TIP3    H221678   3.933   2.543   1.699 -1.5299 -1.5691 -0.2873
 7241TIP3   OH221679   4.600   0.936   4.962  0.7234 -0.2083  0.3043
 7241TIP3    H121680   4.508   0.922   4.941  0.6309 -1.1236  1.2223
 7241TIP3    H221681   4.633   0.992   4.892 -0.3479 -0.4792 -0.4351
 7242TIP3   OH221682   4.894   7.288   0.565 -0.5651  0.1164 -0.4921
 7242TIP3    H121683   4.925   7.306   0.476  2.0841 -0.8800  0.1282
 7242TIP3    H221684   4.898   7.192   0.573  1.3332  0.2783  1.3082
 7243TIP3   OH221685   4.467   7.044   3.264 -0.5108 -0.0988 -0.5632
 7243TIP3    H121686   4.379   7.042   3.228  0.1658 -1.7802 -2.3476
 7243TIP3    H221687   4.493   6.952   3.270  0.5935  0.2785  1.3797
 7244TIP3   OH221688   0.835   1.376   5.442  0.5086 -0.0615 -0.0199
 7244TIP3    H121689   0.860   1.408   5.528  1.1765  0.1957 -0.3016
 7244TIP3    H221690   0.856   1.283   5.444  2.0107  0.2405 -0.4160
 7245TIP3   OH221691   0.754   5.998   4.111 -0.1277  0.6519 -0.2873
 7245TIP3    H121692   0.698   6.006   4.188  0.4468 -0.0131  0.2165
 7245TIP3    H221693   0.836   6.041   4.137  0.2263  0.0266 -0.3508
 7246TIP3   OH221694   5.276   1.054   3.489 -0.5620  0.2652  0.4087
 7246TIP3    H121695   5.327   1.049   3.408  2.4678  0.2206  2.1744
 7246TIP3    H221696   5.231   0.969   3.494  1.9619 -1.1866  0.3784
 7247TIP3   OH221697   1.187   7.465   1.440  0.2899  0.2064 -0.0422
 7247TIP3    H121698   1.148   7.378   1.428 -1.5629  1.1837 -1.8022
 7247TIP3    H221699   1.143   7.500   1.518  1.1225 -0.4290  0.7384
 7248TIP3   OH221700   3.138   4.199   6.562 -0.1328  0.1798  0.7864
 7248TIP3    H121701   3.223   4.230   6.595  0.6446  0.3593 -1.2751
 7248TIP3    H221702   3.157   4.111   6.528 -0.9934 -0.1318  1.0832
 7249TIP3   OH221703   2.393   3.487   5.700 -0.0682  0.0061 -0.0465
 7249TIP3    H121704   2.439   3.438   5.768 -2.8234 -1.4808  0.8751
 7249TIP3    H221705   2.394   3.429   5.624 -0.0693  0.1463 -0.1537
 7250TIP3   OH221706   3.165   0.488   3.639 -0.0422  0.4250  0.4224
 7250TIP3    H121707   3.087   0.496   3.585  0.8825 -0.9134 -1.1976
 7250TIP3    H221708   3.210   0.572   3.630  0.8168 -0.2179 -2.1464
 7251TIP3   OH221709   7.790   3.035   2.316 -0.2495 -0.0361 -0.0425
 7251TIP3    H121710   7.777   3.128   2.334 -1.0983 -0.3698  1.1958
 7251TIP3    H221711   7.880   3.018   2.343 -0.6607  0.0607  1.4802
 7252TIP3   OH221712   0.598   2.005   6.523 -0.8625 -0.1651 -0.5159
 7252TIP3    H121713   0.670   2.041   6.471 -1.3450  0.8757 -0.4837
 7252TIP3    H221714   0.562   2.080   6.570 -0.7257 -1.0104  0.9956
 7253TIP3   OH221715   4.156   1.350   6.248 -0.0600 -0.2258  1.1085
 7253TIP3    H121716   4.088   1.406   6.284 -1.0262 -0.7544  0.1555
 7253TIP3    H221717   4.166   1.279   6.311 -0.6059 -0.2979  1.1144
 7254TIP3   OH221718   3.350   1.759   1.328 -0.3397 -0.3624 -0.1251
 7254TIP3    H121719   3.438   1.729   1.304 -0.0937 -0.7933  1.2289
 7254TIP3    H221720   3.294   1.683   1.312  0.0187 -1.0728  1.7120
 7255TIP3   OH221721   8.074   5.528   0.298  0.4455  0.5697 -0.2203
 7255TIP3    H121722   8.157   5.572   0.318  1.0458 -0.4623 -0.3908
 7255TIP3    H221723   8.011   5.568   0.358  1.2790  0.6455  0.6326
 7256TIP3   OH221724   3.324   5.799   3.587 -0.2554  0.2670 -0.0280
 7256TIP3    H121725   3.407   5.832   3.621 -0.0300 -2.1996  2.1234
 7256TIP3    H221726   3.348   5.745   3.511 -0.0871  0.7949 -0.3564
 7257TIP3   OH221727   4.480   5.826   0.029  0.5263  0.0569  0.1957
 7257TIP3    H121728   4.477   5.919   0.054  2.4630 -0.1586  1.4368
 7257TIP3    H221729   4.391   5.794   0.046  0.0931  1.4545  0.7116
 7258TIP3   OH221730   7.388   4.137   4.097  0.1930 -0.1362  0.3517
 7258TIP3    H121731   7.483   4.133   4.100  0.3483  2.1673  0.4665
 7258TIP3    H221732   7.368   4.229   4.079 -1.9825 -0.9113 -1.9049
 7259TIP3   OH221733   0.943   1.537   4.010 -0.2941 -0.0683 -0.6558
 7259TIP3    H121734   1.014   1.593   3.979  0.2075 -0.8505 -0.9604
 7259TIP3    H221735   0.935   1.558   4.103  1.1800 -0.8349 -0.3264
 7260TIP3   OH221736   2.592   2.137   5.632  0.1633  0.3082  0.2017
 7260TIP3    H121737   2.651   2.203   5.667  0.6977  0.4427 -0.8974
 7260TIP3    H221738   2.510   2.150   5.679  0.2113  1.8544 -0.0989
 7261TIP3   OH221739   1.440   3.897   3.247  0.1462 -0.3203  0.4321
 7261TIP3    H121740   1.467   3.806   3.239  0.7819 -0.0408 -0.9518
 7261TIP3    H221741   1.344   3.894   3.249  0.1620 -1.0117  0.2829
 7262TIP3   OH221742   3.310   0.225   4.256  0.2325 -0.1165 -0.4301
 7262TIP3    H121743   3.255   0.148   4.269  1.2150 -0.5823  1.1912
 7262TIP3    H221744   3.375   0.198   4.192 -0.6350  0.0546 -1.4230
 7263TIP3   OH221745   7.249   3.136   2.932  0.0968 -0.2943  0.1649
 7263TIP3    H121746   7.164   3.172   2.959 -0.0116 -0.7511  0.4408
 7263TIP3    H221747   7.246   3.138   2.836  0.0292  0.2723  0.1731
 7264TIP3   OH221748   5.801   7.201   4.078 -0.4051 -0.2087 -0.1544
 7264TIP3    H121749   5.804   7.234   4.168  2.2763 -1.8540  0.4627
 7264TIP3    H221750   5.836   7.112   4.084 -0.9237 -0.6604 -2.7382
 7265TIP3   OH221751   2.486   5.790   2.494  0.2831 -0.8736  0.0387
 7265TIP3    H121752   2.565   5.752   2.456  0.3172 -1.0759  0.3063
 7265TIP3    H221753   2.482   5.878   2.457  0.3100 -1.0707 -0.4296
 7266TIP3   OH221754   2.614   1.537   5.464 -0.1746 -0.6959  0.3859
 7266TIP3    H121755   2.521   1.515   5.475 -0.0850 -0.9516  0.6492
 7266TIP3    H221756   2.630   1.604   5.530 -0.2513 -0.4222  0.1249
 7267TIP3   OH221757   1.289   2.866   2.330 -0.1201  0.1081 -0.1345
 7267TIP3    H121758   1.341   2.858   2.410 -1.7379 -0.1544  0.9511
 7267TIP3    H221759   1.291   2.959   2.308  2.2056 -0.1234 -1.1422
 7268TIP3   OH221760   6.951   4.156   3.329 -0.2662 -0.2377 -1.2666
 7268TIP3    H121761   6.945   4.175   3.235  0.4424 -0.9858 -1.4669
 7268TIP3    H221762   7.044   4.140   3.344 -0.6361 -2.0995 -0.8313
 7269TIP3   OH221763   5.153   6.292   2.546  0.5978 -0.0904 -0.0352
 7269TIP3    H121764   5.215   6.344   2.495  0.8491 -0.7212 -0.3759
 7269TIP3    H221765   5.206   6.247   2.610  0.1741  1.4922  1.5074
 7270TIP3   OH221766   2.776   6.113   6.411  0.0447  0.5493  0.1830
 7270TIP3    H121767   2.812   6.040   6.461  0.2505  0.0571 -0.6781
 7270TIP3    H221768   2.700   6.141   6.462  0.9255  0.8218  1.3867
 7271TIP3   OH221769   2.211   1.015   4.952  0.3057  0.2607  0.1637
 7271TIP3    H121770   2.170   0.993   5.036  1.8872  0.0739  0.9296
 7271TIP3    H221771   2.294   0.968   4.953  0.0820 -0.2648 -1.8197
 7272TIP3   OH221772   2.346   1.864   0.675 -0.8475  0.1091 -0.0868
 7272TIP3    H121773   2.343   1.772   0.701 -0.4309 -0.1349 -0.8554
 7272TIP3    H221774   2.299   1.911   0.744 -0.9312 -0.6619  0.3866
 7273TIP3   OH221775   7.473   0.864   2.237 -0.1808  0.2001  0.0578
 7273TIP3    H121776   7.412   0.857   2.310  0.7017 -1.0319  0.7030
 7273TIP3    H221777   7.514   0.778   2.231 -1.1019 -0.1551 -2.6865
 7274TIP3   OH221778   0.461   3.460   4.720  0.1144 -0.0542 -0.0513
 7274TIP3    H121779   0.512   3.479   4.799 -0.1485  3.4029 -0.5574
 7274TIP3    H221780   0.527   3.451   4.651  0.2237  1.4407 -0.1752
 7275TIP3   OH221781   1.018   4.176   3.214 -1.0338 -0.0082  0.5501
 7275TIP3    H121782   1.069   4.128   3.280  0.7751  0.0177 -0.7514
 7275TIP3    H221783   1.047   4.139   3.131 -3.6368 -0.3971 -0.2685
 7276TIP3   OH221784   0.954   2.103   1.027  0.8623 -0.1228  0.4766
 7276TIP3    H121785   0.889   2.173   1.028  0.5069 -0.4494  0.2435
 7276TIP3    H221786   0.904   2.023   1.040  0.9863 -0.5612 -1.5231
 7277TIP3   OH221787   1.739   5.240   0.934  0.5464 -0.1403  0.0892
 7277TIP3    H121788   1.786   5.164   0.970  0.6531  0.0335  0.3172
 7277TIP3    H221789   1.782   5.316   0.974  1.1393  0.0877 -0.9446
 7278TIP3   OH221790   6.792   7.212   2.432 -0.1726  0.3664 -0.3820
 7278TIP3    H121791   6.809   7.157   2.355 -0.0139 -3.4497  2.1212
 7278TIP3    H221792   6.701   7.195   2.454 -0.3776  1.8606  0.0001
 7279TIP3   OH221793   0.484   2.675   5.191 -0.1654  0.4219 -0.5025
 7279TIP3    H121794   0.486   2.738   5.263 -1.3971  1.7463 -1.5613
 7279TIP3    H221795   0.396   2.684   5.154 -0.5573 -2.2953 -0.3993
 7280TIP3   OH221796   2.963   7.582   6.585  0.1393 -0.2137  0.0638
 7280TIP3    H121797   2.875   7.548   6.567 -0.3137 -0.5019  2.5320
 7280TIP3    H221798   2.966   7.665   6.538 -1.5383 -0.1004  0.0836
 7281TIP3   OH221799   0.593   1.438   1.975 -0.2244  0.0554 -0.1926
 7281TIP3    H121800   0.620   1.366   1.918  1.6980 -1.5155  2.4446
 7281TIP3    H221801   0.674   1.483   1.998 -1.1419  1.7023 -0.0130
 7282TIP3   OH221802   7.076   0.738   2.693 -0.1652 -0.4221 -1.2642
 7282TIP3    H121803   7.005   0.746   2.629 -0.8872  1.4705 -0.2901
 7282TIP3    H221804   7.074   0.820   2.742  2.3039 -0.5822 -0.7662
 7283TIP3   OH221805   0.152   4.942   4.742 -0.0208 -0.6825  0.9161
 7283TIP3    H121806   0.137   5.021   4.691 -0.5123 -0.5228  1.3015
 7283TIP3    H221807   0.198   4.973   4.820  0.4055 -0.8762  0.7460
 7284TIP3   OH221808   2.491   1.917   4.993  0.0725  0.2801 -0.0256
 7284TIP3    H121809   2.488   1.956   5.080 -0.3257 -0.0227  0.1009
 7284TIP3    H221810   2.486   1.991   4.933 -1.3991  0.3911  0.2050
 7285TIP3   OH221811   4.482   0.249   1.734  0.0743 -0.1818  0.1997
 7285TIP3    H121812   4.569   0.214   1.714  0.2034  0.7420 -0.9680
 7285TIP3    H221813   4.474   0.326   1.678 -1.1114  0.3172  1.0251
 7286TIP3   OH221814   3.392   0.460   4.352  0.0228  0.0530 -0.4282
 7286TIP3    H121815   3.316   0.504   4.390 -0.6542 -0.2109 -1.4409
 7286TIP3    H221816   3.364   0.369   4.340  0.4897 -0.0431 -0.8180
 7287TIP3   OH221817   2.919   6.898   3.478  0.1711  0.3871  0.4854
 7287TIP3    H121818   2.941   6.806   3.496  1.9905  1.0142  1.6928
 7287TIP3    H221819   2.852   6.893   3.409  0.6352 -1.8195  0.1108
 7288TIP3   OH221820   7.146   7.408   5.104 -0.5307  0.4084 -0.2794
 7288TIP3    H121821   7.198   7.409   5.024  0.8908  1.1657  0.6182
 7288TIP3    H221822   7.167   7.324   5.146 -2.4471 -0.6942 -1.3884
 7289TIP3   OH221823   2.741   5.491   6.090  0.9779  0.0496  0.4915
 7289TIP3    H121824   2.753   5.586   6.089 -2.5822  0.6249  0.6719
 7289TIP3    H221825   2.704   5.470   6.005 -0.1009 -0.8529  1.1567
 7290TIP3   OH221826   1.690   2.912   2.200  0.2115  0.2414  0.2205
 7290TIP3    H121827   1.741   2.951   2.271  0.9120  1.3726 -0.8642
 7290TIP3    H221828   1.699   2.974   2.128 -1.5166 -0.2641 -0.4688
 7291TIP3   OH221829   6.681   7.027   3.730 -0.2345 -0.2199 -0.0031
 7291TIP3    H121830   6.765   7.071   3.745 -0.8771  1.6986 -1.7177
 7291TIP3    H221831   6.673   6.967   3.805  1.2541  1.6868  1.8195
 7292TIP3   OH221832   0.402   2.390   2.374  0.4576  0.0489  0.1235
 7292TIP3    H121833   0.490   2.428   2.375  0.8284 -0.8039  1.4731
 7292TIP3    H221834   0.406   2.317   2.435 -1.4022  0.4991  0.8693
 7293TIP3   OH221835   2.376   2.461   6.043 -0.2258 -0.2995  0.2773
 7293TIP3    H121836   2.333   2.378   6.064  0.4518 -1.4111 -2.3498
 7293TIP3    H221837   2.463   2.453   6.082  0.6440 -1.8553 -1.8440
 7294TIP3   OH221838   1.982   2.147   5.791 -0.0545  0.4008  0.6410
 7294TIP3    H121839   2.016   2.118   5.707 -1.7589  1.2903 -0.4205
 7294TIP3    H221840   2.059   2.167   5.843  1.0397  0.0207 -0.7863
 7295TIP3   OH221841   1.635   5.334   5.842 -0.3056  0.0501  0.4337
 7295TIP3    H121842   1.548   5.344   5.880  0.6872 -1.0294  3.1952
 7295TIP3    H221843   1.656   5.421   5.808 -1.5593  0.9178  1.7582
 7296TIP3   OH221844   4.070   4.331   5.612 -0.1230  0.2566  0.1643
 7296TIP3    H121845   4.030   4.411   5.576 -4.4297 -1.5342  0.3705
 7296TIP3    H221846   4.086   4.351   5.704 -2.7549  0.5228  0.6462
 7297TIP3   OH221847   7.256   1.776   5.384  0.6269  0.1578 -0.0632
 7297TIP3    H121848   7.275   1.743   5.296  0.2415  0.6279 -0.3321
 7297TIP3    H221849   7.338   1.816   5.413  0.5677  0.6018 -0.4901
 7298TIP3   OH221850   2.260   1.413   2.387  0.0923 -0.5255  0.2614
 7298TIP3    H121851   2.232   1.322   2.397 -0.2935 -0.4977 -0.5314
 7298TIP3    H221852   2.181   1.464   2.403 -0.2271 -0.4276 -1.5211
 7299TIP3   OH221853   6.333   2.623   6.163  0.6032  0.2129  0.5620
 7299TIP3    H121854   6.326   2.575   6.245  0.2320 -0.7242  0.0022
 7299TIP3    H221855   6.389   2.698   6.183  1.8317 -0.8523  1.3067
 7300TIP3   OH221856   6.356   6.968   5.382 -0.0424  0.0912  0.1141
 7300TIP3    H121857   6.438   6.991   5.427 -0.4414 -0.1243  0.9648
 7300TIP3    H221858   6.383   6.948   5.293  0.3055  4.6675 -1.0742
 7301TIP3   OH221859   1.128   3.350   6.136 -0.0776  0.4547 -0.0494
 7301TIP3    H121860   1.170   3.370   6.053  0.4262  2.4889  0.6217
 7301TIP3    H221861   1.037   3.377   6.125  0.4021  2.4885  0.5775
 7302TIP3   OH221862   4.849   4.035   3.390 -0.0494  0.2989  0.0797
 7302TIP3    H121863   4.907   4.081   3.451 -0.1959  1.0132 -0.3096
 7302TIP3    H221864   4.904   3.966   3.352  0.0352 -0.1704  1.0294
 7303TIP3   OH221865   4.809   6.242   4.524  0.2318  1.1221  0.1023
 7303TIP3    H121866   4.899   6.258   4.553  0.8397 -0.4846 -0.7015
 7303TIP3    H221867   4.793   6.310   4.458  1.2630  0.8316 -0.4853
 7304TIP3   OH221868   7.448   3.514   0.812  0.1635  0.2056  0.1957
 7304TIP3    H121869   7.524   3.509   0.870  0.1554 -0.3102  0.1692
 7304TIP3    H221870   7.466   3.589   0.754  2.6202 -2.2196 -2.5285
 7305TIP3   OH221871   5.669   3.077   4.886 -0.1012  0.5052 -0.4207
 7305TIP3    H121872   5.629   3.158   4.854  0.6449  1.1402  0.2053
 7305TIP3    H221873   5.644   3.073   4.978 -0.5666 -0.2563 -0.5750
 7306TIP3   OH221874   6.640   2.479   5.919  0.0875 -0.0037  0.1839
 7306TIP3    H121875   6.664   2.397   5.875  0.2978  0.1629 -0.0160
 7306TIP3    H221876   6.695   2.480   5.997  0.3147  0.0952  0.0258
 7307TIP3   OH221877   6.260   0.869   4.027 -0.5702  0.3363  0.3915
 7307TIP3    H121878   6.197   0.872   3.955  0.2146 -1.8704 -0.4638
 7307TIP3    H221879   6.345   0.859   3.984 -0.1600 -1.8675  1.6052
 7308TIP3   OH221880   2.077   4.401   4.865 -0.1334 -0.6135  0.0352
 7308TIP3    H121881   2.039   4.343   4.931 -0.2239 -2.3751 -1.4836
 7308TIP3    H221882   2.038   4.372   4.782  1.0133  0.5917 -0.9745
 7309TIP3   OH221883   0.790   0.223   5.903 -0.0795 -0.0701 -0.1128
 7309TIP3    H121884   0.751   0.144   5.866  2.2712 -0.2026 -2.6345
 7309TIP3    H221885   0.845   0.192   5.975  0.2762 -0.6631 -0.6322
 7310TIP3   OH221886   4.362   0.132   0.409  0.9313  0.2866 -0.0548
 7310TIP3    H121887   4.374   0.216   0.365  1.5149  0.7188  0.8871
 7310TIP3    H221888   4.357   0.068   0.338  1.5329  0.9927 -0.7566
 7311TIP3   OH221889   4.994   2.813   6.341  0.0691 -0.3792 -0.0675
 7311TIP3    H121890   4.976   2.722   6.320 -0.8336  0.3354 -2.7271
 7311TIP3    H221891   4.940   2.863   6.281  0.2735  1.9505  1.5548
 7312TIP3   OH221892   4.786   2.692   2.093 -0.0156  0.8068  0.6517
 7312TIP3    H121893   4.704   2.643   2.099  0.3478  0.3123  1.8100
 7312TIP3    H221894   4.771   2.771   2.144  0.1309  0.8414  0.6423
 7313TIP3   OH221895   2.961   2.569   2.409  0.0300  0.6660  0.0690
 7313TIP3    H121896   2.888   2.519   2.445  0.2866 -0.3966 -0.8546
 7313TIP3    H221897   3.037   2.512   2.421  0.2718  0.6844 -1.2851
 7314TIP3   OH221898   6.025   4.024   4.213 -0.2888 -0.0531 -0.5217
 7314TIP3    H121899   5.991   4.074   4.139 -1.8222 -1.1771 -0.6333
 7314TIP3    H221900   5.947   3.988   4.255  0.7096 -1.7930 -0.0669
 7315TIP3   OH221901   5.618   3.789   2.924  0.0710 -0.4280  0.4142
 7315TIP3    H121902   5.633   3.706   2.877  2.1466  0.0450  0.1665
 7315TIP3    H221903   5.588   3.762   3.011 -0.6833 -1.3910 -0.1201
 7316TIP3   OH221904   4.754   1.990   1.347  0.9380  0.0711 -0.3260
 7316TIP3    H121905   4.775   1.907   1.305  1.5638 -1.0671  2.0846
 7316TIP3    H221906   4.796   1.986   1.433  0.2786  2.5361  0.2198
 7317TIP3   OH221907   2.068   5.790   4.936  0.5327 -0.5445  0.6637
 7317TIP3    H121908   2.026   5.830   4.860 -0.9982 -0.6226  1.4370
 7317TIP3    H221909   2.161   5.787   4.913 -0.0948 -2.8196 -2.2748
 7318TIP3   OH221910   7.760   1.509   3.323 -0.0205  0.3137  0.4181
 7318TIP3    H121911   7.782   1.472   3.237 -0.2490 -1.5017  1.0997
 7318TIP3    H221912   7.820   1.465   3.383  0.3886  1.8432  1.1616
 7319TIP3   OH221913   3.041   6.553   3.989 -0.4034 -0.1410 -0.0649
 7319TIP3    H121914   3.117   6.558   4.046 -1.3699  0.9702  1.2137
 7319TIP3    H221915   2.995   6.636   4.002 -1.2345 -0.2910 -1.6776
 7320TIP3   OH221916   5.408   3.085   2.986  0.0056  0.1224 -0.0133
 7320TIP3    H121917   5.396   3.038   2.904 -0.8471 -0.3486  0.3779
 7320TIP3    H221918   5.354   3.163   2.977 -0.3639 -0.1037  0.2374
 7321TIP3   OH221919   0.885   2.363   3.280  0.0698 -0.1333  0.4038
 7321TIP3    H121920   0.947   2.372   3.208 -2.7374 -0.4437 -2.2723
 7321TIP3    H221921   0.900   2.274   3.313  1.8531  0.2460  0.7260
 7322TIP3   OH221922   7.803   6.128   5.933  1.0304  0.6251  0.2192
 7322TIP3    H121923   7.766   6.097   5.851 -0.8618  1.5329  0.6797
 7322TIP3    H221924   7.810   6.223   5.922 -0.2994  0.9005  1.4650
 7323TIP3   OH221925   2.495   3.318   3.275  0.4421  0.6643  0.8147
 7323TIP3    H121926   2.430   3.314   3.204  1.0101  0.9640  0.2633
 7323TIP3    H221927   2.443   3.314   3.355 -0.1696 -0.2921  0.3843
 7324TIP3   OH221928   6.465   6.909   3.580  0.2009  0.7867 -0.0376
 7324TIP3    H121929   6.454   7.004   3.579  1.1731  0.9317  1.1553
 7324TIP3    H221930   6.545   6.894   3.631  1.5267 -0.5293 -2.3056
 7325TIP3   OH221931   7.705   5.987   5.675 -0.3287 -0.5383  0.5555
 7325TIP3    H121932   7.687   5.914   5.734 -1.5472 -0.0044  0.8956
 7325TIP3    H221933   7.701   5.949   5.588  3.6771 -1.8134  0.7218
 7326TIP3   OH221934   5.882   6.861   0.372  0.1712  0.2727 -0.0260
 7326TIP3    H121935   5.843   6.946   0.392  1.5956  0.4111  2.5389
 7326TIP3    H221936   5.969   6.882   0.338 -0.3634 -0.1550 -1.7852
 7327TIP3   OH221937   7.393   1.938   0.776  0.3410 -0.0074 -0.3336
 7327TIP3    H121938   7.397   2.020   0.727  0.3723  1.0631  1.4187
 7327TIP3    H221939   7.368   1.963   0.864 -1.4404 -2.0807 -0.1679
 7328TIP3   OH221940   2.019   6.955   0.803 -0.0682 -0.7880  0.3348
 7328TIP3    H121941   2.043   6.866   0.777  0.8476 -0.5953  0.5101
 7328TIP3    H221942   1.931   6.968   0.765  1.6591 -0.0295 -4.0338
 7329TIP3   OH221943   6.950   6.431   0.816 -0.3509 -0.4983  0.6044
 7329TIP3    H121944   6.959   6.337   0.829 -1.2351 -0.3523  2.7179
 7329TIP3    H221945   6.984   6.469   0.897 -3.9660  0.7587  1.7175
 7330TIP3   OH221946   4.978   5.309   1.487  0.4908 -0.3982  0.3270
 7330TIP3    H121947   4.933   5.327   1.405 -0.6942 -0.6755  0.8814
 7330TIP3    H221948   4.986   5.213   1.490 -0.0713 -0.4419  0.8096
 7331TIP3   OH221949   0.182   7.161   6.570  0.3609  0.2486  0.2162
 7331TIP3    H121950   0.113   7.095   6.563  1.3435 -0.8550  0.5992
 7331TIP3    H221951   0.154   7.217   6.643  1.2015 -1.8883  2.2977
 7332TIP3   OH221952   2.243   2.820   0.137  0.0737  0.0722  0.3788
 7332TIP3    H121953   2.214   2.812   0.228 -0.6976  0.0844  0.1465
 7332TIP3    H221954   2.202   2.746   0.093  0.9740 -0.3061  0.1640
 7333TIP3   OH221955   2.008   2.805   4.855  0.6543 -0.0180 -0.2737
 7333TIP3    H121956   1.947   2.832   4.924  0.7435 -0.1919 -0.1238
 7333TIP3    H221957   1.978   2.717   4.831 -0.7068  0.8359 -1.9637
 7334TIP3   OH221958   4.537   2.972   3.294 -0.5328  0.3185  0.2696
 7334TIP3    H121959   4.521   2.917   3.217 -0.4894  0.8511 -0.1263
 7334TIP3    H221960   4.628   2.999   3.287 -0.2710 -0.3240  0.9739
 7335TIP3   OH221961   6.521   0.569   4.692  0.2207  0.0302 -0.6967
 7335TIP3    H121962   6.486   0.611   4.614  2.0433  2.2389 -0.4337
 7335TIP3    H221963   6.611   0.546   4.669 -0.6015 -3.7144 -0.7489
 7336TIP3   OH221964   2.053   0.896   4.753  0.1229  0.0881  0.2959
 7336TIP3    H121965   2.115   0.906   4.825  0.3995 -0.6220  0.1610
 7336TIP3    H221966   1.970   0.928   4.788  0.1468 -0.6858  1.0862
 7337TIP3   OH221967   5.395   3.225   4.723  0.0803 -0.6374 -0.2891
 7337TIP3    H121968   5.365   3.316   4.729  0.5467 -0.4950 -0.1137
 7337TIP3    H221969   5.475   3.229   4.671  1.0747 -0.7138  1.1916
 7338TIP3   OH221970   2.526   0.407   2.624  0.3457 -0.2336  0.6033
 7338TIP3    H121971   2.527   0.354   2.544 -0.2222  1.0549 -0.2769
 7338TIP3    H221972   2.541   0.496   2.594  0.2084  0.2603  1.9544
 7339TIP3   OH221973   7.089   4.806   2.253  0.0436  0.2706  0.2435
 7339TIP3    H121974   7.137   4.724   2.240 -0.6509  0.0984 -1.5653
 7339TIP3    H221975   7.023   4.785   2.319 -0.4211 -0.7884 -0.5251
 7340TIP3   OH221976   6.699   4.646   6.076  0.4697  0.3318 -0.1287
 7340TIP3    H121977   6.688   4.607   6.163 -2.6313 -0.1226 -0.6249
 7340TIP3    H221978   6.690   4.572   6.016 -2.5589  1.2512 -0.9598
 7341TIP3   OH221979   5.566   6.311   0.125  0.0866 -0.0682  0.3524
 7341TIP3    H121980   5.495   6.249   0.144 -0.0882 -0.4197 -1.2731
 7341TIP3    H221981   5.640   6.256   0.101  0.7591  0.3187  1.4846
 7342TIP3   OH221982   7.644   1.858   1.605  0.2129 -0.6210 -0.0964
 7342TIP3    H121983   7.625   1.894   1.691  2.9808 -1.2390  0.8554
 7342TIP3    H221984   7.592   1.777   1.600 -1.2449  0.2671  0.2597
 7343TIP3   OH221985   1.778   2.953   3.635  0.5196  0.2442  0.2289
 7343TIP3    H121986   1.866   2.986   3.652  0.0055  1.5372  0.5872
 7343TIP3    H221987   1.722   3.006   3.692 -0.4538 -0.7920  0.2621
 7344TIP3   OH221988   4.528   2.033   2.015 -0.1182  0.4880  0.2401
 7344TIP3    H121989   4.550   2.032   2.108 -0.6728  2.1323  0.4036
 7344TIP3    H221990   4.517   2.125   1.993 -1.3474  0.0539 -1.1398
 7345TIP3   OH221991   5.806   5.611   1.274  0.1315  0.0311 -0.1184
 7345TIP3    H121992   5.744   5.538   1.274  1.4411 -1.1591 -1.4642
 7345TIP3    H221993   5.759   5.682   1.317 -1.8032 -1.0945 -0.2333
 7346TIP3   OH221994   4.263   4.244   4.726 -0.8626  0.3852 -0.2409
 7346TIP3    H121995   4.194   4.302   4.757 -1.4879 -0.3952 -0.1539
 7346TIP3    H221996   4.258   4.249   4.631 -1.1801  0.1629 -0.2357
 7347TIP3   OH221997   0.691   5.819   0.077  0.1922 -0.0787 -0.5833
 7347TIP3    H121998   0.765   5.867   0.116 -0.8713  0.2735  1.1124
 7347TIP3    H221999   0.724   5.730   0.065  0.3691 -0.4233  1.9391
 7348TIP3   OH222000   0.956   6.402   1.802 -0.9105  0.0670 -0.2106
 7348TIP3    H122001   0.952   6.495   1.825  4.3055  0.7620 -1.0519
 7348TIP3    H222002   0.940   6.400   1.708 -0.9848  0.1230 -0.1995
 7349TIP3   OH222003   3.532   3.354   0.973  0.2534 -0.0918  0.4096
 7349TIP3    H122004   3.449   3.314   0.948  1.7509 -2.1713 -1.6747
 7349TIP3    H222005   3.527   3.363   1.068 -1.7502 -1.6002  0.5068
 7350TIP3   OH222006   6.636   6.862   4.708  0.1498 -0.3731 -1.1281
 7350TIP3    H122007   6.561   6.843   4.651  2.1397 -0.7749 -3.8217
 7350TIP3    H222008   6.702   6.798   4.682  0.9053 -1.2745  2.4555
 7351TIP3   OH222009   0.036   4.542   3.701 -0.8159  0.0206 -0.1641
 7351TIP3    H122010   0.126   4.514   3.684 -0.5413  0.2330  0.9141
 7351TIP3    H222011   0.039   4.637   3.697 -0.9697  0.0305 -0.0403
 7352TIP3   OH222012   6.898   5.976   4.062  0.5045 -0.0920  0.2656
 7352TIP3    H122013   6.847   6.057   4.052  3.1293  2.0119  2.2576
 7352TIP3    H222014   6.916   5.948   3.972  0.1950  2.0470 -0.5296
 7353TIP3   OH222015   2.600   4.672   5.017  0.1097 -0.3884  0.7122
 7353TIP3    H122016   2.679   4.709   4.976 -0.4706 -0.1146 -0.1900
 7353TIP3    H222017   2.563   4.745   5.067  0.0747 -0.3251  0.5957
 7354TIP3   OH222018   3.187   0.573   4.696 -0.6175 -0.3103 -0.3564
 7354TIP3    H122019   3.270   0.618   4.680 -0.8300  1.1169  1.9918
 7354TIP3    H222020   3.197   0.535   4.783 -1.7844 -1.7646 -0.8078
 7355TIP3   OH222021   5.406   6.095   1.581 -0.2311  0.4528 -0.0259
 7355TIP3    H122022   5.480   6.039   1.603 -0.0505  0.3835 -0.7972
 7355TIP3    H222023   5.445   6.176   1.548 -0.4943  0.1667 -1.0566
 7356TIP3   OH222024   5.589   3.529   0.912 -0.1065 -0.4289  0.8101
 7356TIP3    H122025   5.615   3.496   0.826 -0.4059  0.0300  0.5361
 7356TIP3    H222026   5.567   3.621   0.897 -0.0484 -0.3105  1.4022
 7357TIP3   OH222027   0.343   1.813   5.323  0.7625 -0.3598  0.4176
 7357TIP3    H122028   0.275   1.881   5.321 -1.1206 -2.1524 -0.6870
 7357TIP3    H222029   0.333   1.768   5.239  1.2110 -2.6600  1.5409
 7358TIP3   OH222030   3.958   2.549   3.956 -0.4325  0.2288 -0.8142
 7358TIP3    H122031   4.001   2.619   4.005 -0.3373  1.5066 -2.6472
 7358TIP3    H222032   4.026   2.514   3.899 -0.1245 -2.2951  0.9281
 7359TIP3   OH222033   7.444   4.731   2.214 -0.9461  0.1374  0.6184
 7359TIP3    H122034   7.486   4.750   2.298 -1.0936 -1.1109  0.9978
 7359TIP3    H222035   7.430   4.817   2.174  0.7321  0.6608  1.0749
 7360TIP3   OH222036   7.514   2.722   5.094 -0.0748 -0.0263  0.2491
 7360TIP3    H122037   7.442   2.659   5.094  0.5528 -0.7544 -0.3320
 7360TIP3    H222038   7.471   2.807   5.081 -0.8748 -0.3888  0.4425
 7361TIP3   OH222039   3.070   1.724   1.639  0.1990  0.0792  0.3072
 7361TIP3    H122040   3.023   1.646   1.610  0.9157  0.1681 -1.1604
 7361TIP3    H222041   3.096   1.704   1.729 -1.1308 -0.6571  0.5479
 7362TIP3   OH222042   6.369   7.153   3.527 -0.1791  0.4087  0.2495
 7362TIP3    H122043   6.276   7.132   3.515 -0.6565  1.2072  2.1498
 7362TIP3    H222044   6.376   7.246   3.508  0.3991  0.1911 -0.6370
 7363TIP3   OH222045   0.947   7.695   4.184 -0.1034  0.1814 -0.4189
 7363TIP3    H122046   1.042   7.702   4.178  0.0781 -0.7006  0.9439
 7363TIP3    H222047   0.923   7.754   4.255 -0.3455 -0.9023  0.4292
 7364TIP3   OH222048   4.893   6.544   1.976  0.1749 -0.5748  0.1506
 7364TIP3    H122049   4.899   6.624   1.923  0.1297 -0.4623  0.3169
 7364TIP3    H222050   4.812   6.554   2.026  0.5878 -0.3591  0.7795
 7365TIP3   OH222051   3.428   7.786   6.148  0.2831 -0.3115 -0.4323
 7365TIP3    H122052   3.344   7.753   6.178  0.4347 -0.9237 -0.6737
 7365TIP3    H222053   3.420   7.881   6.156  0.2501 -0.4283  1.3477
 7366TIP3   OH222054   5.435   6.252   3.999  0.1274 -0.1792  0.3324
 7366TIP3    H122055   5.379   6.324   3.972  0.5462  0.0049 -0.0433
 7366TIP3    H222056   5.419   6.244   4.093 -1.6060 -1.0619  0.0001
 7367TIP3   OH222057   5.179   0.430   4.096 -0.0652 -0.5531 -0.0378
 7367TIP3    H122058   5.166   0.511   4.146  1.2843 -0.3669  0.0521
 7367TIP3    H222059   5.248   0.452   4.034  1.9889 -2.2817  1.5285
 7368TIP3   OH222060   6.211   6.312   3.790  0.3851 -0.4823 -0.4490
 7368TIP3    H122061   6.220   6.393   3.839  0.6661 -0.9319  0.2533
 7368TIP3    H222062   6.116   6.303   3.775  0.4855  0.9134 -2.1602
 7369TIP3   OH222063   1.015   7.480   6.400  0.3874 -0.5960  0.9146
 7369TIP3    H122064   0.944   7.440   6.450  0.0790 -1.7182 -0.3800
 7369TIP3    H222065   1.025   7.567   6.439 -0.2363 -1.1953  2.5224
 7370TIP3   OH222066   7.100   1.187   2.043 -0.0118 -0.0608  0.7488
 7370TIP3    H122067   7.187   1.219   2.068 -0.0265 -0.5734  1.4859
 7370TIP3    H222068   7.118   1.107   1.994 -0.0381  0.2794  0.1749
 7371TIP3   OH222069   5.383   5.634   2.865  0.5364 -0.3140 -0.4517
 7371TIP3    H122070   5.393   5.710   2.807 -0.1375 -0.2945 -0.5475
 7371TIP3    H222071   5.454   5.644   2.928  3.1215 -1.8459 -2.8828
 7372TIP3   OH222072   0.513   7.733   0.763 -0.2319 -0.7572  0.1423
 7372TIP3    H122073   0.465   7.706   0.685  0.5975 -0.5484 -0.4550
 7372TIP3    H222074   0.548   7.819   0.742 -0.6207 -0.3724  1.0314
 7373TIP3   OH222075   7.408   1.492   2.619  0.3733 -0.0247  0.4500
 7373TIP3    H122076   7.399   1.482   2.714  1.7026  2.3436  0.9118
 7373TIP3    H222077   7.318   1.497   2.586 -0.1065 -1.0996  1.5238
 7374TIP3   OH222078   2.907   4.220   1.953  0.4073 -0.1093  0.0501
 7374TIP3    H122079   2.861   4.178   1.880  0.2085 -1.5101  0.9520
 7374TIP3    H222080   2.872   4.309   1.955  0.9998  0.2224 -2.0513
 7375TIP3   OH222081   6.186   5.318   2.877 -0.4396 -0.4208 -0.0953
 7375TIP3    H122082   6.199   5.390   2.815  0.7209 -0.0802  0.5130
 7375TIP3    H222083   6.180   5.361   2.962  2.3907 -1.1242  0.5386
 7376TIP3   OH222084   4.461   1.377   0.718  0.4880  0.7401  0.0221
 7376TIP3    H122085   4.493   1.442   0.781 -1.1921  0.0090  1.7405
 7376TIP3    H222086   4.422   1.309   0.773 -1.1095  0.0893 -1.8232
 7377TIP3   OH222087   2.934   0.223   3.835 -0.2031  0.1825 -0.3564
 7377TIP3    H122088   2.934   0.269   3.920 -1.6659  2.9941 -1.7426
 7377TIP3    H222089   3.024   0.233   3.803 -0.2237  1.1802 -0.1364
 7378TIP3   OH222090   4.528   6.854   5.264  0.4823 -0.0605  0.2768
 7378TIP3    H122091   4.505   6.767   5.295  1.3571  0.3282  2.1867
 7378TIP3    H222092   4.623   6.851   5.254  0.4541  0.5077 -0.1681
 7379TIP3   OH222093   6.611   1.836   5.724 -0.0282 -0.4932  0.6648
 7379TIP3    H122094   6.554   1.912   5.731  0.3568  0.0626 -1.3861
 7379TIP3    H222095   6.583   1.792   5.644  1.3283 -1.1314  0.4997
 7380TIP3   OH222096   5.829   6.364   5.899  0.1615 -0.9135  0.8436
 7380TIP3    H122097   5.741   6.335   5.877 -0.5226  0.8857  1.0928
 7380TIP3    H222098   5.855   6.308   5.973 -0.6349 -1.6453  0.5773
 7381TIP3   OH222099   2.950   0.022   3.665 -0.1711  0.0449 -0.4996
 7381TIP3    H122100   2.928   0.060   3.580 -0.4169 -1.3740 -1.0947
 7381TIP3    H222101   2.922   0.088   3.728 -1.2386  0.5543 -1.4699
 7382TIP3   OH222102   7.370   0.656   1.117  0.0211 -0.0162  0.4151
 7382TIP3    H122103   7.328   0.643   1.032 -0.9655 -2.0424  1.1267
 7382TIP3    H222104   7.298   0.676   1.176  0.3791 -0.8286  1.1531
 7383TIP3   OH222105   8.156   0.558   0.657  0.4952 -0.2342 -0.1558
 7383TIP3    H122106   8.154   0.591   0.567  0.9904  0.2166 -0.0086
 7383TIP3    H222107   8.217   0.617   0.702  0.0925 -0.3323  0.5238
 7384TIP3   OH222108   1.920   2.618   0.701  0.2843  0.5064 -0.2066
 7384TIP3    H122109   1.963   2.533   0.697  0.1093  0.2692  1.9241
 7384TIP3    H222110   1.989   2.679   0.725 -0.0324  0.5671  0.5729
 7385TIP3   OH222111   1.706   0.327   2.260 -0.6670  0.1627  0.0761
 7385TIP3    H122112   1.788   0.362   2.296 -1.6505  1.9161  0.7349
 7385TIP3    H222113   1.641   0.342   2.329 -1.9027  0.4491 -1.1081
 7386TIP3   OH222114   3.395   5.000   0.982 -0.3762 -0.1596  0.3648
 7386TIP3    H122115   3.340   4.941   0.931 -1.1927  0.6694  0.2426
 7386TIP3    H222116   3.342   5.019   1.060 -0.8135  1.5941 -0.3118
 7387TIP3   OH222117   1.492   5.981   5.501  0.1159  0.1091 -0.3297
 7387TIP3    H122118   1.568   6.034   5.527 -0.3900  0.7364 -0.1211
 7387TIP3    H222119   1.426   6.044   5.474 -1.1602 -0.2671  1.6576
 7388TIP3   OH222120   4.123   1.432   3.300  0.2437  0.1374 -0.0274
 7388TIP3    H122121   4.071   1.395   3.229 -0.1431 -0.5118  0.5948
 7388TIP3    H222122   4.084   1.399   3.380 -0.1820  1.9714  0.5715
 7389TIP3   OH222123   3.115   6.990   4.168 -1.0222 -0.3092  0.0073
 7389TIP3    H122124   3.150   7.074   4.196 -4.3180  0.8786  1.0835
 7389TIP3    H222125   3.187   6.928   4.179  0.8074  1.9371  1.4646
 7390TIP3   OH222126   3.098   4.599   4.876  0.0265 -0.2280  0.3371
 7390TIP3    H122127   3.101   4.539   4.950 -2.0462  0.0003  0.6668
 7390TIP3    H222128   3.132   4.681   4.911  0.1628 -0.4410  0.7126
 7391TIP3   OH222129   5.115   7.007   1.219  0.7800 -0.1354 -0.0271
 7391TIP3    H122130   5.151   7.048   1.140  1.4987 -0.0563  0.3278
 7391TIP3    H222131   5.043   6.953   1.188  1.7880 -1.0378 -0.9053
 7392TIP3   OH222132   3.180   2.996   0.919  0.1092 -0.2595  0.1961
 7392TIP3    H122133   3.156   3.078   0.876 -2.0506 -1.6454 -1.4738
 7392TIP3    H222134   3.169   3.014   1.012 -1.9202  0.9315 -0.2046
 7393TIP3   OH222135   2.486   6.304   2.528  0.2884  0.1419  0.7095
 7393TIP3    H122136   2.570   6.320   2.485  0.0064  1.2449  0.5288
 7393TIP3    H222137   2.425   6.362   2.482 -0.5001 -0.4102  1.0551
 7394TIP3   OH222138   4.004   7.156   5.787  0.2817  0.0440  0.2272
 7394TIP3    H122139   3.964   7.226   5.838 -0.6069  0.6288 -1.2035
 7394TIP3    H222140   3.931   7.096   5.768  0.1897  0.6952 -1.7120
 7395TIP3   OH222141   7.867   1.018   6.063 -0.1155 -0.1517 -0.0920
 7395TIP3    H122142   7.949   1.067   6.069 -1.2075  1.8402 -0.4442
 7395TIP3    H222143   7.868   0.960   6.139  1.0140  0.8053  0.6648
 7396TIP3   OH222144   7.480   6.585   0.900 -0.1171 -0.0868 -0.4107
 7396TIP3    H122145   7.509   6.647   0.833  2.7885 -0.6213  0.2227
 7396TIP3    H222146   7.491   6.631   0.983  0.9506 -0.9900 -0.0197
 7397TIP3   OH222147   7.597   4.192   2.329 -0.5029  0.0148 -0.2505
 7397TIP3    H122148   7.601   4.279   2.290 -1.1346  1.2317  2.1815
 7397TIP3    H222149   7.504   4.170   2.330 -0.5379  0.1727  0.8445
 7398TIP3   OH222150   4.414   5.850   0.819  0.1543 -0.1449  0.1450
 7398TIP3    H122151   4.472   5.836   0.893  0.2107  3.0388  0.8637
 7398TIP3    H222152   4.454   5.922   0.769 -1.4053 -0.1692 -1.2667
 7399TIP3   OH222153   4.618   4.749   3.164  0.1826 -0.2394 -0.4914
 7399TIP3    H122154   4.641   4.841   3.168  1.1016 -0.4926  0.5601
 7399TIP3    H222155   4.560   4.742   3.088  0.6672  1.0648 -1.0098
 7400TIP3   OH222156   0.980   3.592   6.048  0.0945  0.4334  0.3564
 7400TIP3    H122157   0.943   3.678   6.070  0.6959  0.5039  1.1148
 7400TIP3    H222158   1.072   3.598   6.073  0.7264  0.3511 -1.7931
 7401TIP3   OH222159   8.145   3.386   6.200 -0.2632  0.5763 -0.2805
 7401TIP3    H122160   8.053   3.361   6.208  0.1056 -0.9704 -0.6050
 7401TIP3    H222161   8.167   3.425   6.285 -1.0004  0.2451  0.0660
 7402TIP3   OH222162   0.710   4.637   0.792 -0.1342  0.2703  0.0569
 7402TIP3    H122163   0.680   4.726   0.772 -1.0250  0.1671  0.8696
 7402TIP3    H222164   0.637   4.581   0.766 -0.4855 -0.0277  1.5538
 7403TIP3   OH222165   6.659   4.226   2.933 -0.0874  0.3226  0.6688
 7403TIP3    H122166   6.665   4.321   2.941  0.2513  0.2210  1.6607
 7403TIP3    H222167   6.641   4.195   3.021  2.2843 -0.7276  0.8533
 7404TIP3   OH222168   6.053   7.504   2.977  0.1717  0.3573  0.1037
 7404TIP3    H122169   6.119   7.435   2.980 -1.4093 -1.1995  0.4670
 7404TIP3    H222170   6.101   7.581   2.945  1.7338 -1.1713 -1.4389
 7405TIP3   OH222171   1.069   6.055   1.500 -0.1637 -0.4623 -0.1424
 7405TIP3    H122172   1.007   6.076   1.570  0.0586  0.3168 -0.1690
 7405TIP3    H222173   1.145   6.109   1.519 -0.0669 -0.3143 -0.9367
 7406TIP3   OH222174   3.281   4.098   3.142 -0.0046  0.1050  0.0086
 7406TIP3    H122175   3.358   4.051   3.175  0.3470  0.4920 -0.2559
 7406TIP3    H222176   3.286   4.185   3.182  0.6585  0.7291 -1.3716
 7407TIP3   OH222177   0.650   2.442   3.143  0.4309  0.4089 -0.0093
 7407TIP3    H122178   0.731   2.403   3.176  1.8680  1.9869 -1.5117
 7407TIP3    H222179   0.677   2.524   3.103 -1.9510  1.0425 -0.4748
 7408TIP3   OH222180   8.156   6.114   2.871 -0.4015 -0.5425  0.6141
 7408TIP3    H122181   8.063   6.101   2.892 -0.9897  1.4602 -0.5568
 7408TIP3    H222182   8.156   6.168   2.792  1.7831 -0.5625  0.5434
 7409TIP3   OH222183   2.825   6.771   2.818  0.3423  0.3962 -0.2935
 7409TIP3    H122184   2.915   6.771   2.851  0.3008  1.5456 -0.1638
 7409TIP3    H222185   2.835   6.766   2.723  0.5231 -0.1045 -0.2504
 7410TIP3   OH222186   1.180   0.139   6.524  0.0900  0.3365  0.6750
 7410TIP3    H122187   1.122   0.160   6.451  2.8686 -1.0670 -2.1738
 7410TIP3    H222188   1.240   0.214   6.529  0.8706 -0.2540  0.4186
 7411TIP3   OH222189   7.591   0.099   3.648 -0.1737 -0.3406  0.1029
 7411TIP3    H122190   7.522   0.163   3.666  0.2552  0.2383 -0.3107
 7411TIP3    H222191   7.672   0.149   3.650  0.3128 -1.1094  1.1426
 7412TIP3   OH222192   0.723   3.940   1.646 -0.4999  0.3482  0.3238
 7412TIP3    H122193   0.818   3.935   1.640 -0.6065 -0.4213 -1.5598
 7412TIP3    H222194   0.695   3.850   1.662 -0.9028  0.7274  1.9704
 7413TIP3   OH222195   2.205   7.139   5.692 -0.6052 -0.8439 -0.3108
 7413TIP3    H122196   2.130   7.190   5.721 -0.6289 -0.8792 -0.3093
 7413TIP3    H222197   2.230   7.088   5.769  0.8715  0.8753  0.4034
 7414TIP3   OH222198   5.306   5.613   6.010  0.0941 -0.1545  0.2226
 7414TIP3    H122199   5.371   5.644   6.073  1.1124  0.8933 -1.2683
 7414TIP3    H222200   5.279   5.692   5.962  0.3777 -1.0665 -1.5402
 7415TIP3   OH222201   3.491   0.902   2.361 -0.1878  0.2555  0.2699
 7415TIP3    H122202   3.458   0.812   2.361  0.9032 -0.1720  0.3643
 7415TIP3    H222203   3.448   0.944   2.287  0.7726 -0.9404 -1.0171
 7416TIP3   OH222204   0.630   1.227   2.396 -0.2315  0.7224 -1.0253
 7416TIP3    H122205   0.679   1.305   2.369  0.6239 -0.1560 -2.1222
 7416TIP3    H222206   0.619   1.177   2.315 -1.3232 -0.0006 -0.4504
 7417TIP3   OH222207   3.116   2.309   3.177 -0.2349 -0.6033 -0.6661
 7417TIP3    H122208   3.144   2.316   3.086 -2.0615  2.7026 -1.1313
 7417TIP3    H222209   3.052   2.238   3.177 -2.2318  1.0318 -2.6918
 7418TIP3   OH222210   0.248   6.768   3.242  0.0739 -0.1641  0.2637
 7418TIP3    H122211   0.232   6.701   3.309  2.3434 -1.1522 -0.1128
 7418TIP3    H222212   0.343   6.781   3.243  0.0942  0.3239 -2.2611
 7419TIP3   OH222213   7.206   0.317   2.006  0.0978 -0.1546  0.2918
 7419TIP3    H122214   7.112   0.318   1.985  0.3020  1.2891 -0.6031
 7419TIP3    H222215   7.239   0.238   1.963 -1.0150 -1.7947  2.2301
 7420TIP3   OH222216   7.175   3.175   6.545  0.1050 -0.0150 -0.0145
 7420TIP3    H122217   7.123   3.153   6.467  0.2730 -1.4428  0.2577
 7420TIP3    H222218   7.263   3.188   6.511  0.2413 -0.9356 -0.0410
 7421TIP3   OH222219   1.177   1.925   1.072  0.4535  0.7362 -0.2012
 7421TIP3    H122220   1.110   1.981   1.033  1.0373  1.2765 -0.4434
 7421TIP3    H222221   1.215   1.978   1.142 -1.1224 -0.4963  1.7180
 7422TIP3   OH222222   2.708   5.273   6.500 -0.2153  0.4905  0.3096
 7422TIP3    H122223   2.720   5.183   6.529  2.9368  1.2851  2.0415
 7422TIP3    H222224   2.687   5.321   6.581 -0.1908  1.5333 -0.2834
 7423TIP3   OH222225   0.218   6.580   6.238  0.0768  0.1961 -0.5539
 7423TIP3    H122226   0.141   6.535   6.204  0.1103 -1.1326  1.0260
 7423TIP3    H222227   0.223   6.554   6.330  2.9629 -0.5725 -0.8255
 7424TIP3   OH222228   3.599   1.088   5.869  0.0963 -0.4059 -0.4761
 7424TIP3    H122229   3.538   1.016   5.856  0.1702 -0.3564 -1.0973
 7424TIP3    H222230   3.610   1.093   5.964 -1.6166  0.1943 -0.2596
 7425TIP3   OH222231   2.958   4.988   3.139  0.0664  0.3653 -0.1113
 7425TIP3    H122232   2.904   5.059   3.174 -1.4054 -0.0376 -1.4376
 7425TIP3    H222233   2.962   5.006   3.045 -0.5515 -1.4144 -0.5064
 7426TIP3   OH222234   3.889   2.862   1.656  0.4125  0.4315  0.4765
 7426TIP3    H122235   3.835   2.795   1.615  1.2069  2.4876 -4.6863
 7426TIP3    H222236   3.828   2.914   1.708 -1.3534 -0.8293 -0.2390
 7427TIP3   OH222237   6.980   5.508   0.557 -0.1820 -0.4739  0.5685
 7427TIP3    H122238   6.886   5.523   0.546  0.0635  0.3913 -0.6624
 7427TIP3    H222239   6.988   5.415   0.575 -1.4652 -0.1014  3.6494
 7428TIP3   OH222240   8.108   1.650   6.180  0.2421 -0.1033 -0.0398
 7428TIP3    H122241   8.092   1.566   6.137 -1.7675  1.2012 -2.0775
 7428TIP3    H222242   8.135   1.627   6.269 -0.7584 -2.8771 -0.3671
 7429TIP3   OH222243   6.741   5.397   2.155  0.2492  0.2992 -0.1151
 7429TIP3    H122244   6.765   5.407   2.247 -3.5521 -1.3879  1.2460
 7429TIP3    H222245   6.730   5.303   2.143 -0.0865  0.5507 -2.1198
 7430TIP3   OH222246   2.956   7.083   1.588  0.3406 -0.1505  0.3160
 7430TIP3    H122247   2.968   7.158   1.647  0.8315 -1.1171  1.5042
 7430TIP3    H222248   2.925   7.121   1.506  1.4469  1.4417  0.5915
 7431TIP3   OH222249   8.133   0.965   4.035  0.1249  0.1435  0.4888
 7431TIP3    H122250   8.080   0.885   4.033  0.4250 -0.0473 -0.4498
 7431TIP3    H222251   8.135   0.994   3.944 -0.5104  1.5750  0.9000
 7432TIP3   OH222252   4.735   4.532   1.278  0.1771 -0.3313 -0.4441
 7432TIP3    H122253   4.781   4.461   1.234 -1.8201 -1.8562 -0.1915
 7432TIP3    H222254   4.764   4.611   1.233  0.1469 -1.5874 -2.7876
 7433TIP3   OH222255   0.947   2.710   1.168 -0.3257 -0.3059 -0.0964
 7433TIP3    H122256   0.916   2.790   1.125  0.0730  0.6759  1.3570
 7433TIP3    H222257   0.904   2.711   1.253  2.1902  0.1462  1.2645
 7434TIP3   OH222258   7.369   0.989   4.204 -0.0859  0.3095 -0.5520
 7434TIP3    H122259   7.411   1.000   4.290  0.0336  0.6939 -0.6609
 7434TIP3    H222260   7.403   1.060   4.151 -0.3267  0.1981 -0.8575
 7435TIP3   OH222261   3.245   6.483   3.259  0.0890  0.5931 -0.1381
 7435TIP3    H122262   3.195   6.419   3.310  1.1950 -0.8207 -0.7734
 7435TIP3    H222263   3.269   6.550   3.323  0.1471 -0.3572  0.8734
 7436TIP3   OH222264   0.625   3.627   1.047 -0.1205  0.4050 -0.3341
 7436TIP3    H122265   0.595   3.636   1.137 -0.7072 -3.3793  0.0143
 7436TIP3    H222266   0.669   3.543   1.045 -0.6287  0.0806 -3.7041
 7437TIP3   OH222267   4.946   2.414   2.328  0.4209  0.0168 -0.5513
 7437TIP3    H122268   4.973   2.485   2.270  2.7721 -0.1992  0.1744
 7437TIP3    H222269   4.914   2.458   2.407  2.5718  0.3720  0.2011
 7438TIP3   OH222270   4.145   5.896   3.125  0.3163  0.3027 -0.1945
 7438TIP3    H122271   4.080   5.826   3.122  1.0353 -0.3684 -0.6651
 7438TIP3    H222272   4.217   5.860   3.178 -0.3335  1.6217  1.6974
 7439TIP3   OH222273   7.782   0.296   5.699 -0.5846  0.1500  0.2008
 7439TIP3    H122274   7.865   0.251   5.683 -1.1469 -0.7886 -0.1494
 7439TIP3    H222275   7.797   0.385   5.668  0.4223  0.1036  0.5311
 7440TIP3   OH222276   5.410   4.885   4.697 -0.2586 -0.2065  0.5736
 7440TIP3    H122277   5.406   4.979   4.714 -0.3361 -0.0524 -0.2259
 7440TIP3    H222278   5.501   4.869   4.671 -0.5557 -0.0849 -0.6368
 7441TIP3   OH222279   5.020   0.954   3.712 -0.2305 -0.4394  0.5424
 7441TIP3    H122280   5.001   1.046   3.731 -0.0588 -0.4337  0.6876
 7441TIP3    H222281   5.045   0.916   3.797  1.9769 -0.0714  0.1127
 7442TIP3   OH222282   3.843   0.319   2.975 -0.1635  0.5365 -0.2186
 7442TIP3    H122283   3.835   0.240   3.029 -1.1185  0.4097 -0.5377
 7442TIP3    H222284   3.756   0.360   2.979 -0.1728  0.6735 -1.4335
 7443TIP3   OH222285   7.938   2.424   6.626 -0.3673 -0.0788  0.6761
 7443TIP3    H122286   7.983   2.342   6.606  0.5188  0.7859 -1.2215
 7443TIP3    H222287   7.845   2.403   6.619 -0.1606 -1.0070  0.6296
 7444TIP3   OH222288   5.133   2.029   0.508 -0.2052 -0.1351 -0.2990
 7444TIP3    H122289   5.093   2.112   0.533  2.1596  0.4067  2.1834
 7444TIP3    H222290   5.120   1.972   0.583  1.5873 -0.6681 -0.3510
 7445TIP3   OH222291   3.012   2.310   5.337  0.3292 -0.1083  0.4440
 7445TIP3    H122292   3.032   2.265   5.255  1.8288 -0.9594  1.2155
 7445TIP3    H222293   2.923   2.343   5.326 -0.0704 -1.5339 -0.9258
 7446TIP3   OH222294   0.527   6.248   5.774  0.3105  0.2067 -0.2980
 7446TIP3    H122295   0.445   6.298   5.781 -1.2545 -2.2095 -0.3943
 7446TIP3    H222296   0.543   6.242   5.680  0.0417 -0.1629 -0.3218
 7447TIP3   OH222297   1.120   5.558   6.373  0.2683  0.0499  0.3548
 7447TIP3    H122298   1.028   5.554   6.345  0.2502  2.0750 -0.0856
 7447TIP3    H222299   1.165   5.603   6.301  1.9124 -2.0731 -0.0397
 7448TIP3   OH222300   1.801   4.234   5.679 -0.1530 -0.7901 -0.1493
 7448TIP3    H122301   1.875   4.288   5.707  0.8240 -0.9635 -2.1988
 7448TIP3    H222302   1.725   4.292   5.685  0.1519 -0.4999  1.6481
 7449TIP3   OH222303   2.210   6.209   4.145 -0.9917  0.2382 -0.1747
 7449TIP3    H122304   2.152   6.154   4.197 -0.8455  0.1474 -0.1056
 7449TIP3    H222305   2.269   6.147   4.102  1.1845  0.4499  2.2909
 7450TIP3   OH222306   2.080   3.965   1.952 -0.1524  0.0497 -0.3800
 7450TIP3    H122307   2.114   3.986   1.865  0.8905  0.5738  0.1274
 7450TIP3    H222308   2.029   4.042   1.977 -0.6009 -0.1755 -0.5967
 7451TIP3   OH222309   4.331   6.046   2.361  0.7744 -0.3283  0.0903
 7451TIP3    H122310   4.296   6.071   2.447  0.5806 -0.6587  0.1065
 7451TIP3    H222311   4.345   6.130   2.316  0.5839 -0.1674  0.3282
 7452TIP3   OH222312   0.291   1.589   5.930 -0.1696  0.0920 -1.0152
 7452TIP3    H122313   0.330   1.520   5.877 -0.0568 -0.2962 -0.4440
 7452TIP3    H222314   0.218   1.546   5.974 -0.1138  0.3455 -0.6720
 7453TIP3   OH222315   1.175   5.231   5.127  0.0813 -0.0583 -0.3101
 7453TIP3    H122316   1.122   5.191   5.058 -0.9989  0.3981  0.2200
 7453TIP3    H222317   1.132   5.315   5.144  1.1756  0.4702 -0.0670
 7454TIP3   OH222318   7.594   2.907   2.153  0.2628 -0.2879 -0.4217
 7454TIP3    H122319   7.510   2.949   2.171  0.8546  0.3095  1.1051
 7454TIP3    H222320   7.655   2.947   2.215  1.5136 -1.2760 -0.9632
 7455TIP3   OH222321   2.865   5.901   0.837  0.3957 -0.0759  0.0388
 7455TIP3    H122322   2.949   5.877   0.876  0.0381 -2.0557 -0.3170
 7455TIP3    H222323   2.813   5.821   0.842  0.0032 -0.2020 -3.5840
 7456TIP3   OH222324   6.496   4.705   3.155  0.5051  0.0611  0.6309
 7456TIP3    H122325   6.490   4.659   3.238 -0.7031 -1.3546 -0.1994
 7456TIP3    H222326   6.572   4.763   3.165  0.4945 -0.1971  2.6296
 7457TIP3   OH222327   4.349   1.229   4.670 -0.1331  0.4286  0.6644
 7457TIP3    H122328   4.301   1.146   4.669  2.3906 -1.1430 -0.4725
 7457TIP3    H222329   4.428   1.211   4.721  1.0562  1.7286 -0.6111
 7458TIP3   OH222330   0.297   1.037   0.893  0.1675 -0.0780  0.2210
 7458TIP3    H122331   0.344   1.108   0.937  2.1036 -1.0189 -0.2326
 7458TIP3    H222332   0.214   1.030   0.940 -0.1747  2.5876  0.1648
 7459TIP3   OH222333   6.716   5.505   0.449 -0.5931 -0.4283 -0.3933
 7459TIP3    H122334   6.652   5.562   0.489 -1.3697 -1.6316  0.1436
 7459TIP3    H222335   6.740   5.548   0.367 -0.5939  1.0028  0.3354
 7460TIP3   OH222336   4.732   0.010   1.887  0.2125  0.2283  0.1333
 7460TIP3    H122337   4.670   0.083   1.892 -1.2759 -1.0577  1.6241
 7460TIP3    H222338   4.764  -0.001   1.976 -0.1279 -1.3557  0.0980
 7461TIP3   OH222339   1.073   6.330   6.588 -0.0386  0.4970 -0.0890
 7461TIP3    H122340   1.099   6.366   6.503 -0.6714  0.2711 -0.3844
 7461TIP3    H222341   1.153   6.334   6.641  0.1021  1.5841 -0.3652
 7462TIP3   OH222342   0.836   5.407   3.958  0.1623  0.3643 -0.6626
 7462TIP3    H122343   0.932   5.402   3.957  0.1194 -2.3869 -2.1759
 7462TIP3    H222344   0.816   5.494   3.923  2.1081  0.7782 -0.8861
 7463TIP3   OH222345   0.836   2.539   3.487 -0.2734  0.3516  0.0190
 7463TIP3    H122346   0.808   2.487   3.412 -0.1472 -1.9568  1.4890
 7463TIP3    H222347   0.772   2.520   3.556  2.3772 -1.7073  2.1004
 7464TIP3   OH222348   8.229   3.280   5.241 -0.0710  0.2442  0.2112
 7464TIP3    H122349   8.252   3.331   5.164  0.5479  0.6057  0.6260
 7464TIP3    H222350   8.206   3.194   5.207 -0.1776  0.5167 -0.4092
 7465TIP3   OH222351   2.265   3.879   4.014 -0.1091 -0.1373 -0.1566
 7465TIP3    H122352   2.231   3.924   4.091  1.1004 -0.0301  0.3369
 7465TIP3    H222353   2.198   3.814   3.992 -0.8001  0.3314  0.5279
 7466TIP3   OH222354   4.086   4.230   1.987 -0.1301 -0.1418  0.6003
 7466TIP3    H122355   4.031   4.253   1.913 -0.3999  0.8889  1.1099
 7466TIP3    H222356   4.031   4.174   2.042  0.4301 -1.8449 -0.4907
 7467TIP3   OH222357   0.683   7.088   3.019  0.0968  0.3756 -0.0454
 7467TIP3    H122358   0.700   7.124   2.932  0.5345  0.4176  0.0546
 7467TIP3    H222359   0.769   7.081   3.060 -0.0270 -0.3409  0.1128
 7468TIP3   OH222360   6.397   2.042   0.976  0.1299  0.4003 -0.1481
 7468TIP3    H122361   6.488   2.063   0.993  0.6890  0.5103 -2.8385
 7468TIP3    H222362   6.381   1.963   1.028  1.3042  1.1399  1.4165
 7469TIP3   OH222363   0.423   1.722   1.218 -0.3065 -0.0176 -0.1085
 7469TIP3    H122364   0.420   1.793   1.282  0.0718 -0.9336  0.9735
 7469TIP3    H222365   0.375   1.650   1.260  1.0011 -1.0421 -0.2987
 7470TIP3   OH222366   5.240   3.759   1.434 -0.0560 -0.3846 -0.6852
 7470TIP3    H122367   5.160   3.721   1.470  0.1639  0.9835  1.4339
 7470TIP3    H222368   5.290   3.684   1.401 -0.1381 -1.8953  2.2878
 7471TIP3   OH222369   6.472   1.378   4.868 -0.3635  0.3781  0.0701
 7471TIP3    H122370   6.432   1.431   4.799 -2.3387  0.6279  1.3188
 7471TIP3    H222371   6.420   1.298   4.869  2.7242 -1.8552 -1.9533
 7472TIP3   OH222372   6.494   5.795   0.825 -0.3461 -0.2420  0.1282
 7472TIP3    H122373   6.416   5.842   0.855 -1.1982 -1.7082  0.3036
 7472TIP3    H222374   6.516   5.836   0.741 -2.4752 -1.0333 -0.8867
 7473TIP3   OH222375   2.049   1.609   5.433  0.2347  0.4156 -0.1101
 7473TIP3    H122376   1.995   1.544   5.389  0.0111 -0.0798  0.8638
 7473TIP3    H222377   2.065   1.676   5.366 -1.0311  0.2545 -0.6090
 7474TIP3   OH222378   3.885   7.296   4.849 -0.3229 -0.0049 -0.1279
 7474TIP3    H122379   3.813   7.358   4.863  1.1058  1.9538 -1.0290
 7474TIP3    H222380   3.947   7.343   4.795  2.0879 -1.2904  1.3454
 7475TIP3   OH222381   0.172   3.837   0.125  0.1609  0.1805 -0.5167
 7475TIP3    H122382   0.102   3.786   0.084  1.7212 -1.4457 -1.3368
 7475TIP3    H222383   0.214   3.776   0.186  1.8185  0.5592 -1.2003
 7476TIP3   OH222384   6.723   7.287   0.378  0.1546 -0.3270 -0.4233
 7476TIP3    H122385   6.730   7.198   0.411  0.3061 -1.3720 -3.0459
 7476TIP3    H222386   6.636   7.292   0.339 -1.1093  1.7440  2.3295
 7477TIP3   OH222387   1.375   4.968   2.044  0.4700 -0.3173 -0.2259
 7477TIP3    H122388   1.294   5.003   2.082  1.6494  1.4197  0.8424
 7477TIP3    H222389   1.410   4.909   2.111  0.3445 -0.6824 -0.4798
 7478TIP3   OH222390   3.816   0.799   4.928 -0.1493 -0.0908  0.0214
 7478TIP3    H122391   3.825   0.806   4.833 -0.9128  1.6188  0.0234
 7478TIP3    H222392   3.905   0.788   4.960  0.3671  1.3676 -0.7909
 7479TIP3   OH222393   5.483   1.371   4.877  0.1153 -0.6321 -0.3454
 7479TIP3    H122394   5.453   1.316   4.949  0.4733 -0.5601 -0.1412
 7479TIP3    H222395   5.421   1.353   4.806  0.7722 -2.0406 -0.6029
 7480TIP3   OH222396   6.677   0.854   0.879  0.8793 -0.3863  0.9735
 7480TIP3    H122397   6.664   0.945   0.908 -2.2314 -0.8470  1.3334
 7480TIP3    H222398   6.671   0.859   0.783  0.1765 -0.2827  1.0228
 7481TIP3   OH222399   5.617   7.549   6.730 -0.4797 -0.5544 -0.1821
 7481TIP3    H122400   5.617   7.618   6.664  0.3899 -0.7695 -0.4297
 7481TIP3    H222401   5.588   7.592   6.810 -0.5815 -0.0549 -0.4818
 7482TIP3   OH222402   1.040   6.928   4.793 -0.2585 -0.2091 -0.5272
 7482TIP3    H122403   1.083   6.855   4.748  0.6695 -0.2219  0.3516
 7482TIP3    H222404   1.033   6.899   4.884  2.6353  1.8095  0.4816
 7483TIP3   OH222405   0.679   2.100   4.630  0.0227 -0.3626  0.6183
 7483TIP3    H122406   0.773   2.092   4.646  0.3512 -1.5780 -1.5524
 7483TIP3    H222407   0.666   2.058   4.545 -2.1684  1.6843 -0.1433
 7484TIP3   OH222408   0.992   4.190   6.338 -0.0075  0.4434 -0.1789
 7484TIP3    H122409   1.003   4.139   6.418 -0.6294 -2.3552 -1.7216
 7484TIP3    H222410   1.073   4.174   6.288  0.0234  1.4564 -0.4681
 7485TIP3   OH222411   3.575   1.262   6.641  0.1996 -0.1310  0.2280
 7485TIP3    H122412   3.562   1.301   6.728  0.2474  1.2949 -0.3785
 7485TIP3    H222413   3.661   1.293   6.614 -0.7555  1.3657 -1.2816
 7486TIP3   OH222414   2.309   6.133   1.753 -0.5496 -0.4406 -0.2283
 7486TIP3    H122415   2.302   6.163   1.844 -1.4814 -0.0438 -0.4238
 7486TIP3    H222416   2.224   6.151   1.715  0.8000  2.6319 -2.1620
 7487TIP3   OH222417   0.410   2.048   3.959  0.3963 -0.0971 -0.1209
 7487TIP3    H122418   0.383   2.076   4.047  1.1302 -0.7140  0.3133
 7487TIP3    H222419   0.506   2.051   3.962  0.4198  0.4800 -1.1071
 7488TIP3   OH222420   2.315   2.815   1.233 -0.2900 -0.2655 -0.0662
 7488TIP3    H122421   2.394   2.763   1.247 -1.4850 -1.9163  0.9323
 7488TIP3    H222422   2.324   2.889   1.294 -0.3497 -1.4769  1.4787
 7489TIP3   OH222423   0.823   5.097   5.700 -0.0433  0.1314 -0.1560
 7489TIP3    H122424   0.836   5.170   5.760 -0.1402  0.5164 -0.6014
 7489TIP3    H222425   0.728   5.093   5.686  0.0975  1.1450 -1.6267
 7490TIP3   OH222426   4.692   6.283   0.557  0.1293  0.0712 -0.4040
 7490TIP3    H122427   4.631   6.219   0.519 -0.5311  0.6279 -0.2917
 7490TIP3    H222428   4.636   6.349   0.597  0.8146  0.3207  0.1588
 7491TIP3   OH222429   0.726   7.567   0.797 -0.1540  0.5870 -0.1386
 7491TIP3    H122430   0.716   7.548   0.704 -1.2263 -0.0276  0.0779
 7491TIP3    H222431   0.673   7.646   0.811 -1.2179 -0.1603  0.2020
 7492TIP3   OH222432   0.219   1.863   0.561 -0.4843 -0.2145  0.4888
 7492TIP3    H122433   0.278   1.909   0.501  0.7132  0.3469  2.0346
 7492TIP3    H222434   0.276   1.801   0.607 -1.4230 -0.8007  0.8885
 7493TIP3   OH222435   7.882   4.057   5.142 -0.1114  0.1349  0.4402
 7493TIP3    H122436   7.789   4.077   5.133 -0.0275  1.2108  1.6587
 7493TIP3    H222437   7.904   4.009   5.063 -1.7833 -0.4640  0.2993
 7494TIP3   OH222438   3.065   6.945   1.924  0.7728 -0.0834 -0.1717
 7494TIP3    H122439   3.104   7.032   1.917  0.7230 -0.0586 -0.1506
 7494TIP3    H222440   3.084   6.903   1.841 -1.7111  0.9854 -1.4059
 7495TIP3   OH222441   4.042   6.658   2.323 -0.2264  0.2615 -0.2191
 7495TIP3    H122442   3.972   6.610   2.367 -0.5280  1.4557  0.6581
 7495TIP3    H222443   4.016   6.659   2.231 -0.9196 -0.0606 -0.0349
 7496TIP3   OH222444   5.353   1.464   3.441  0.5114 -0.3474 -0.3547
 7496TIP3    H122445   5.317   1.492   3.357 -0.3010  2.2733  0.7848
 7496TIP3    H222446   5.279   1.423   3.487  0.2388  0.6299  0.0942
 7497TIP3   OH222447   4.726   3.349   5.795 -0.3769 -0.4008  0.4826
 7497TIP3    H122448   4.636   3.348   5.763  0.1485 -0.7479 -1.1113
 7497TIP3    H222449   4.739   3.438   5.827 -1.3366 -0.4040  0.9139
 7498TIP3   OH222450   6.966   6.456   0.495  0.4142  0.6197  0.8432
 7498TIP3    H122451   6.920   6.462   0.579 -1.3452  0.1669 -0.0375
 7498TIP3    H222452   6.960   6.364   0.471  1.9172  0.5190  0.7212
 7499TIP3   OH222453   6.172   3.032   4.986 -0.4627  0.5595 -0.3778
 7499TIP3    H122454   6.155   2.938   4.973  1.2282  0.2993 -0.9807
 7499TIP3    H222455   6.268   3.039   4.985 -0.5458  2.1831  0.5686
 7500TIP3   OH222456   7.509   6.765   3.651  0.2571 -0.4474 -0.0167
 7500TIP3    H122457   7.589   6.804   3.616 -0.6156  0.6622 -0.8593
 7500TIP3    H222458   7.457   6.743   3.574 -0.2908 -1.0770  0.5164
 7501TIP3   OH222459   2.215   3.668   5.439 -0.7941 -0.0980 -0.0977
 7501TIP3    H122460   2.140   3.643   5.493 -0.5736 -1.1187 -0.2445
 7501TIP3    H222461   2.271   3.590   5.437  0.2495  0.6309 -0.0352
 7502TIP3   OH222462   1.161   2.929   6.102  0.3328 -0.3192 -0.1830
 7502TIP3    H122463   1.181   3.011   6.147 -0.3128 -0.3508  0.1714
 7502TIP3    H222464   1.095   2.886   6.157  0.2669 -0.8274 -0.6427
 7503TIP3   OH222465   2.447   7.677   0.513 -0.4278  0.5250  0.1193
 7503TIP3    H122466   2.423   7.758   0.557 -0.1489  0.6951 -0.0419
 7503TIP3    H222467   2.466   7.703   0.423  3.7593  1.0349  0.9585
 7504TIP3   OH222468  -0.025   0.299   1.310 -0.1780 -0.2891 -0.0365
 7504TIP3    H122469   0.025   0.381   1.315  0.8302 -0.9492  1.5453
 7504TIP3    H222470   0.038   0.234   1.279 -0.4345 -0.8467  0.5986
 7505TIP3   OH222471   1.059   3.608   1.562 -0.0187  0.0379  0.1056
 7505TIP3    H122472   1.009   3.566   1.493  0.1353  1.9182 -1.2049
 7505TIP3    H222473   1.128   3.655   1.517  0.7802  0.4079  1.6327
 7506TIP3   OH222474   7.752   2.780   3.993  0.5075  0.2083 -0.4607
 7506TIP3    H122475   7.719   2.783   4.083 -1.7160 -0.0378 -1.2058
 7506TIP3    H222476   7.802   2.861   3.983 -0.1580  0.7845  0.6486
 7507TIP3   OH222477   1.748   3.299   4.930 -0.4639 -0.2049 -0.2565
 7507TIP3    H122478   1.833   3.331   4.958  0.8220 -2.0051 -1.8630
 7507TIP3    H222479   1.717   3.364   4.867 -0.2368  0.4132  0.2666
 7508TIP3   OH222480   0.671   6.445   0.448  0.1783  0.0200 -0.0559
 7508TIP3    H122481   0.669   6.423   0.355 -0.2949 -1.0486  0.1936
 7508TIP3    H222482   0.643   6.537   0.451  0.9672  0.3098 -1.0170
 7509TIP3   OH222483   3.174   1.606   0.189  0.0140 -0.2219 -0.3736
 7509TIP3    H122484   3.173   1.676   0.254 -0.8472  0.3959 -1.0408
 7509TIP3    H222485   3.256   1.618   0.141  0.5223 -0.5147  0.3964
 7510TIP3   OH222486   2.616   7.217   0.653 -0.0013  0.7344  0.2044
 7510TIP3    H122487   2.674   7.282   0.693 -0.5706 -0.0492  2.4497
 7510TIP3    H222488   2.541   7.213   0.711 -1.2026 -0.0566 -1.3337
 7511TIP3   OH222489   7.542   0.713   0.578 -0.1027  0.5503  0.0634
 7511TIP3    H122490   7.541   0.656   0.501 -0.2460 -1.7634  1.6861
 7511TIP3    H222491   7.454   0.705   0.614  0.6814 -0.5230  1.8815
 7512TIP3   OH222492   2.572   7.334   0.198  0.5340  0.2703 -0.2962
 7512TIP3    H122493   2.640   7.301   0.139 -0.6413 -0.5840 -1.2558
 7512TIP3    H222494   2.557   7.262   0.260 -0.4562 -0.1468 -0.9830
 7513TIP3   OH222495   5.125   5.313   4.208  0.6587 -0.0998 -0.6597
 7513TIP3    H122496   5.176   5.299   4.128  0.2416  0.9644 -1.1282
 7513TIP3    H222497   5.036   5.330   4.178  0.5062  0.3773  0.0192
 7514TIP3   OH222498   0.639   2.297   4.931 -0.6838  0.3066  0.2223
 7514TIP3    H122499   0.556   2.325   4.970 -1.8802 -1.4008 -0.9361
 7514TIP3    H222500   0.614   2.263   4.845  1.2025 -0.4699 -0.0652
 7515TIP3   OH222501   4.813   0.781   3.627  0.4567  0.3982 -0.2028
 7515TIP3    H122502   4.881   0.839   3.660  2.6555 -1.2257 -1.5629
 7515TIP3    H222503   4.860   0.704   3.596 -2.1501 -1.4217 -0.0354
 7516TIP3   OH222504   4.824   3.551   1.985  0.3905 -0.7228 -0.1706
 7516TIP3    H122505   4.803   3.507   2.067 -0.3902  1.2080  0.7450
 7516TIP3    H222506   4.828   3.644   2.009 -1.8131  0.1275 -2.6353
 7517TIP3   OH222507   2.704   7.766   6.590 -0.2772  0.0775  0.1788
 7517TIP3    H122508   2.613   7.796   6.588 -0.8721 -1.6551 -1.2668
 7517TIP3    H222509   2.706   7.700   6.660  0.0023  0.4803  0.5529
 7518TIP3   OH222510   2.185   3.708   1.288  0.0110  0.0963  0.2720
 7518TIP3    H122511   2.134   3.628   1.300  2.9777 -1.9279  0.4538
 7518TIP3    H222512   2.235   3.692   1.208  0.4329  1.9436  0.1222
 7519TIP3   OH222513   4.484   5.451   0.119  0.1234  0.8264  0.2338
 7519TIP3    H122514   4.408   5.417   0.071  1.0448 -0.3289 -0.4901
 7519TIP3    H222515   4.486   5.400   0.200  0.0291  0.9658  0.3228
 7520TIP3   OH222516   5.007   1.212   6.421  0.4033  0.5143 -0.1825
 7520TIP3    H122517   5.092   1.250   6.399  1.0776 -1.4748 -1.2559
 7520TIP3    H222518   4.956   1.286   6.455  2.1374  2.0078 -0.6528
 7521TIP3   OH222519   2.163   2.408   1.286  0.1527  0.4358 -0.2899
 7521TIP3    H122520   2.223   2.335   1.289 -0.8925 -0.5108 -1.3587
 7521TIP3    H222521   2.202   2.474   1.343  1.6217 -0.5541 -0.1035
 7522TIP3   OH222522   4.949   4.979   3.270 -0.2041 -0.5052 -0.3177
 7522TIP3    H122523   4.989   4.928   3.200 -0.5875 -1.9945  0.4961
 7522TIP3    H222524   4.855   4.975   3.254 -0.2003  0.8646 -0.8222
 7523TIP3   OH222525   6.349   6.933   6.502 -0.1522  0.4888 -0.3690
 7523TIP3    H122526   6.407   6.888   6.563  0.0912 -1.0594 -1.6921
 7523TIP3    H222527   6.397   6.937   6.420 -1.7856 -0.6156 -1.4366
 7524TIP3   OH222528   2.641   6.558   0.530  0.4834  0.3211  0.4345
 7524TIP3    H122529   2.610   6.645   0.504 -0.1112 -0.0376 -0.0891
 7524TIP3    H222530   2.692   6.527   0.455 -1.3720 -0.7833 -0.4677
 7525TIP3   OH222531   2.787   6.117   5.958  0.2382  0.0696 -0.3070
 7525TIP3    H122532   2.774   6.111   6.053  2.2933 -0.1362  0.0068
 7525TIP3    H222533   2.699   6.131   5.923 -0.3870  2.1112  1.7689
 7526TIP3   OH222534   1.955   7.609   5.048 -0.2333 -0.0969  0.2924
 7526TIP3    H122535   2.012   7.629   5.123 -1.1864 -1.1105  1.3444
 7526TIP3    H222536   1.918   7.523   5.069 -2.1697  0.5276 -0.3205
 7527TIP3   OH222537   2.618   4.319   2.654  0.4402 -0.1278  0.1384
 7527TIP3    H122538   2.704   4.279   2.668  0.8632  0.0862 -1.5713
 7527TIP3    H222539   2.564   4.286   2.726  1.7754 -0.7699  0.8893
 7528TIP3   OH222540   7.723   2.018   4.408 -0.0724  0.1136  0.5940
 7528TIP3    H122541   7.792   1.961   4.441  2.7231  1.6000 -2.1946
 7528TIP3    H222542   7.648   1.960   4.394  1.3463 -2.0431  1.4932
 7529TIP3   OH222543   3.238   2.799   1.260 -0.3399 -0.2893 -0.7743
 7529TIP3    H122544   3.165   2.834   1.208  0.1710 -0.9564 -1.9546
 7529TIP3    H222545   3.317   2.825   1.212  0.1951 -0.1690  0.1328
 7530TIP3   OH222546   2.271   0.597   6.117 -0.6606  0.1959  0.0104
 7530TIP3    H122547   2.220   0.528   6.075 -0.7081  0.7811 -0.9144
 7530TIP3    H222548   2.295   0.656   6.046 -0.5037  1.0623  0.7671
 7531TIP3   OH222549   1.250   4.343   0.905  0.1482  1.2056  0.6688
 7531TIP3    H122550   1.253   4.357   0.999 -1.1340  0.5815  0.8309
 7531TIP3    H222551   1.341   4.347   0.876  0.6641  0.3847  2.0952
 7532TIP3   OH222552   1.596   3.119   2.656 -0.0036  0.1243  0.0255
 7532TIP3    H122553   1.624   3.188   2.597 -0.5784  0.4977  0.1734
 7532TIP3    H222554   1.594   3.161   2.742  0.0698 -0.1984  0.1869
 7533TIP3   OH222555   5.344   5.712   4.333  0.7697  0.6657 -0.1811
 7533TIP3    H122556   5.300   5.715   4.248  1.1021  1.2212 -0.3421
 7533TIP3    H222557   5.339   5.620   4.360 -0.2756  0.6723 -0.2986
 7534TIP3   OH222558   5.373   3.837   6.405 -0.0183 -0.3983  0.2172
 7534TIP3    H122559   5.347   3.753   6.443 -0.1943 -0.8330 -0.8463
 7534TIP3    H222560   5.447   3.816   6.348  0.5531  0.3205  0.6730
 7535TIP3   OH222561   2.444   4.131   2.089  0.1438  0.1178 -0.7261
 7535TIP3    H122562   2.400   4.053   2.123 -0.2990  0.1630 -1.1747
 7535TIP3    H222563   2.536   4.105   2.081  0.0933 -0.1827 -0.3726
 7536TIP3   OH222564   2.445   5.212   6.181 -0.5835 -0.3407  0.4033
 7536TIP3    H122565   2.515   5.277   6.188 -1.4202  0.6852 -0.3701
 7536TIP3    H222566   2.366   5.260   6.204 -1.6119 -0.2810 -2.7439
 7537TIP3   OH222567   2.042   1.280   3.362  0.8702  0.1306  0.3709
 7537TIP3    H122568   2.120   1.227   3.346  1.3229 -0.0434  2.6870
 7537TIP3    H222569   2.013   1.253   3.449 -1.6079  0.4423 -0.2908
 7538TIP3   OH222570   0.263   4.887   3.236  0.7694 -0.0602  0.1143
 7538TIP3    H122571   0.199   4.958   3.241  1.4855  0.6884 -0.8299
 7538TIP3    H222572   0.225   4.816   3.288 -0.1059  0.9007  0.8252
 7539TIP3   OH222573   3.528   3.933   4.271 -0.1351  0.2995  0.4547
 7539TIP3    H122574   3.474   3.990   4.216 -0.3090 -0.1116  0.1941
 7539TIP3    H222575   3.617   3.948   4.240  0.0462  1.6955  1.5171
 7540TIP3   OH222576   1.246   2.800   5.860  0.0890  0.3324 -0.2432
 7540TIP3    H122577   1.227   2.846   5.942 -1.1131 -0.9164  0.2028
 7540TIP3    H222578   1.337   2.824   5.841  1.3444 -1.3385  2.8500
 7541TIP3   OH222579   7.658   2.305   6.522  0.1417 -0.0004  0.0515
 7541TIP3    H122580   7.648   2.383   6.467  0.2286 -0.5712 -0.8015
 7541TIP3    H222581   7.592   2.245   6.488 -0.4046 -0.0448  1.1697
 7542TIP3   OH222582   3.029   4.569   5.295  0.5038 -0.0081  0.1028
 7542TIP3    H122583   2.947   4.613   5.271  0.7208 -0.2158 -1.0726
 7542TIP3    H222584   3.007   4.519   5.374 -0.1671  0.9183  0.5250
 7543TIP3   OH222585   4.565   3.475   4.516 -0.1225  0.2558 -0.8640
 7543TIP3    H122586   4.590   3.384   4.533 -0.4262 -0.1452 -2.4352
 7543TIP3    H222587   4.541   3.509   4.602 -2.6258 -1.9589 -0.5465
 7544TIP3   OH222588   1.085   4.782   5.171 -0.1568 -0.6005  0.0073
 7544TIP3    H122589   1.016   4.734   5.217 -0.5547 -0.0841 -0.0485
 7544TIP3    H222590   1.040   4.829   5.101  0.2005  0.0298  0.1962
 7545TIP3   OH222591   0.026   6.882   0.612 -0.0602  0.1900 -0.0400
 7545TIP3    H122592   0.073   6.850   0.689  1.4134  2.1101 -0.0605
 7545TIP3    H222593  -0.048   6.822   0.602 -0.5595  0.0918  3.1282
 7546TIP3   OH222594   7.727   2.948   0.415 -0.0744 -0.3046 -0.3487
 7546TIP3    H122595   7.729   2.978   0.506  0.4842  0.8249 -0.7122
 7546TIP3    H222596   7.798   2.996   0.372 -1.9812  1.1999 -2.0063
 7547TIP3   OH222597   0.784   3.693   5.530  0.1652 -0.0345 -0.2989
 7547TIP3    H122598   0.857   3.730   5.481  0.3351  0.1874  0.1167
 7547TIP3    H222599   0.824   3.659   5.610 -0.4183  1.8195  0.8498
 7548TIP3   OH222600   5.038   2.812   5.866 -0.0908 -0.1024 -0.3569
 7548TIP3    H122601   5.119   2.843   5.825  0.4696  1.3483  1.6646
 7548TIP3    H222602   4.979   2.887   5.862 -0.5932 -0.4690  0.0123
 7549TIP3   OH222603   6.235   4.657   5.254 -0.5593 -0.2274  0.2279
 7549TIP3    H122604   6.299   4.679   5.322 -0.7826  1.2177 -0.0164
 7549TIP3    H222605   6.164   4.613   5.301  0.6631 -2.0877  0.4788
 7550TIP3   OH222606   3.856   7.095   1.890  0.6996  0.4958  0.6818
 7550TIP3    H122607   3.944   7.096   1.928  0.9033 -0.0728  0.2263
 7550TIP3    H222608   3.798   7.115   1.964  1.0172 -1.4252  1.5042
 7551TIP3   OH222609   2.335   5.994   4.023  0.2396 -0.1685  0.1535
 7551TIP3    H122610   2.426   5.983   4.050 -0.0094 -0.2419  0.9899
 7551TIP3    H222611   2.340   6.022   3.932  1.1133  0.1651  0.2962
 7552TIP3   OH222612   3.737   2.387   5.931  0.7932 -0.4064  0.5207
 7552TIP3    H122613   3.689   2.304   5.930  1.4770 -0.8193  1.1382
 7552TIP3    H222614   3.802   2.378   5.861 -0.1549  0.2539 -0.4886
 7553TIP3   OH222615   3.329   2.311   0.225  0.6556  0.4376  1.1915
 7553TIP3    H122616   3.278   2.388   0.202  0.5748 -0.5453 -2.8261
 7553TIP3    H222617   3.416   2.344   0.246  0.5172  1.7010 -0.0870
 7554TIP3   OH222618   7.572   1.907   2.164  0.0039  0.8196 -0.0470
 7554TIP3    H122619   7.506   1.966   2.199 -0.0433  0.1071  1.1603
 7554TIP3    H222620   7.655   1.949   2.185 -0.0178  0.2670  1.2375
 7555TIP3   OH222621   1.444   4.555   1.598  0.2345 -0.3091 -0.0083
 7555TIP3    H122622   1.449   4.460   1.604 -0.5060 -0.4868 -1.7511
 7555TIP3    H222623   1.356   4.573   1.566  0.4665  0.9442 -0.0049
 7556TIP3   OH222624   2.327   7.628   4.262 -0.0819 -0.1348  0.1016
 7556TIP3    H122625   2.378   7.690   4.314  1.8404  0.7366 -2.5866
 7556TIP3    H222626   2.388   7.600   4.193 -2.4585 -1.1591 -1.7068
 7557TIP3   OH222627   1.371   4.314   2.718  0.5011 -0.1989  0.5134
 7557TIP3    H122628   1.290   4.331   2.670  0.9202  0.6593  0.0948
 7557TIP3    H222629   1.377   4.219   2.721 -0.7412 -0.2752  0.9252
 7558TIP3   OH222630   1.379   2.718   2.001 -0.6356 -0.2163  0.6269
 7558TIP3    H122631   1.461   2.670   2.013  0.0123  0.4155 -0.9598
 7558TIP3    H222632   1.325   2.694   2.076 -0.1269 -2.9780  0.2185
 7559TIP3   OH222633   2.316   7.264   1.389 -0.1499  0.1964  0.3689
 7559TIP3    H122634   2.346   7.348   1.354  0.8508  0.5204  1.9131
 7559TIP3    H222635   2.233   7.285   1.433  0.8421  0.7467  2.0818
 7560TIP3   OH222636   4.370   4.856   4.408 -0.0349 -0.3690  0.0397
 7560TIP3    H122637   4.442   4.834   4.349 -1.9105  0.2357 -2.6671
 7560TIP3    H222638   4.330   4.772   4.430  1.1547 -0.6666  1.1813
 7561TIP3   OH222639   5.991   6.965   4.760  0.5415 -0.3352  0.2142
 7561TIP3    H122640   6.002   7.045   4.812  0.9224 -1.4843  2.0123
 7561TIP3    H222641   5.939   6.908   4.816 -1.0520 -0.8127 -1.6802
 7562TIP3   OH222642   7.149   6.715   3.655 -0.4588 -0.0580 -0.1451
 7562TIP3    H122643   7.103   6.787   3.699  0.0645  0.2887 -0.1599
 7562TIP3    H222644   7.223   6.757   3.610 -0.1320 -0.6060 -0.1304
 7563TIP3   OH222645   0.994   1.805   3.022 -0.2933  0.2394 -0.0998
 7563TIP3    H122646   0.959   1.753   2.950  0.5039  1.2905 -1.2950
 7563TIP3    H222647   1.044   1.742   3.075  1.9039 -0.0443 -2.3259
 7564TIP3   OH222648   5.046   6.320   4.687  0.3889  0.2810 -0.6458
 7564TIP3    H122649   5.114   6.387   4.688  1.5657 -0.8476  1.2710
 7564TIP3    H222650   5.095   6.237   4.690 -1.0417 -0.6531 -1.7794
 7565TIP3   OH222651   7.319   0.896   6.188 -0.0487 -0.4143  0.1403
 7565TIP3    H122652   7.371   0.830   6.143 -0.2337 -0.3520 -0.1653
 7565TIP3    H222653   7.372   0.920   6.264  1.1045  0.8023 -0.9955
 7566TIP3   OH222654   7.240   4.112   1.378 -0.7182  0.3896  0.0783
 7566TIP3    H122655   7.275   4.165   1.306  1.7076 -2.7918 -1.3146
 7566TIP3    H222656   7.313   4.105   1.440  0.7520 -4.4417 -1.7550
 7567TIP3   OH222657   4.338   0.100   6.320 -1.1070  0.4534 -0.7744
 7567TIP3    H122658   4.318   0.190   6.293  1.6843  1.2773 -0.4469
 7567TIP3    H222659   4.432   0.102   6.342 -0.7747 -2.7171 -1.4475
 7568TIP3   OH222660   4.757   3.364   0.765  0.0360  0.0641  0.2181
 7568TIP3    H122661   4.816   3.344   0.693  1.3123 -0.9173  1.4878
 7568TIP3    H222662   4.694   3.426   0.727  1.5355  0.7468 -1.3362
 7569TIP3   OH222663   5.253   1.889   2.560 -0.5119  0.0980  0.0801
 7569TIP3    H122664   5.316   1.885   2.632 -0.6412 -1.1135  0.1415
 7569TIP3    H222665   5.185   1.949   2.590  0.2866  0.9188  0.2738
 7570TIP3   OH222666   2.869   4.218   6.665  0.4051  0.6082  0.1569
 7570TIP3    H122667   2.832   4.292   6.617  0.6029 -0.7809 -2.3432
 7570TIP3    H222668   2.963   4.220   6.643  0.3657 -0.4895 -0.2003
 7571TIP3   OH222669   1.701   7.346   3.744 -0.3596 -0.1438  0.1683
 7571TIP3    H122670   1.684   7.440   3.735  1.1116  0.3069  1.5440
 7571TIP3    H222671   1.633   7.304   3.692 -0.8088  1.6903 -0.8117
 7572TIP3   OH222672   3.056   4.525   0.186  0.1328 -0.4874 -1.0047
 7572TIP3    H122673   3.127   4.568   0.233 -0.5731 -0.5414  0.1586
 7572TIP3    H222674   3.062   4.558   0.096  0.5102  0.8972 -0.4888
 7573TIP3   OH222675   2.840   2.348   5.087 -0.3793 -0.5886  0.1645
 7573TIP3    H122676   2.890   2.421   5.123 -0.4599 -0.6270  0.3598
 7573TIP3    H222677   2.755   2.386   5.065 -0.2850 -0.5361 -0.1109
 7574TIP3   OH222678   0.613   4.482   4.684 -0.6300  0.3977 -0.7613
 7574TIP3    H122679   0.531   4.437   4.662 -0.3251 -0.6862  0.2176
 7574TIP3    H222680   0.640   4.443   4.767  1.9846 -0.8629 -2.0891
 7575TIP3   OH222681   7.057   3.374   2.501  0.1101 -0.5611  0.4056
 7575TIP3    H122682   7.065   3.469   2.503  0.2484 -0.5839  1.6238
 7575TIP3    H222683   6.962   3.359   2.494 -0.1176 -0.3054  2.2973
 7576TIP3   OH222684   5.010   4.660   0.989 -0.0088  0.2090 -0.1938
 7576TIP3    H122685   5.038   4.738   0.940 -1.9265  1.5171  0.6681
 7576TIP3    H222686   4.920   4.679   1.015 -1.3072 -3.1571 -1.6278
 7577TIP3   OH222687   6.035   2.853   2.425  0.3395 -0.8130  0.2079
 7577TIP3    H122688   6.128   2.844   2.446  0.8070 -0.3102 -1.4712
 7577TIP3    H222689   6.006   2.930   2.474  0.9162 -0.7398  0.4390
 7578TIP3   OH222690   7.293   6.113   1.692  0.5875  0.2125  0.5190
 7578TIP3    H122691   7.226   6.048   1.672  1.1052 -0.0004 -0.5666
 7578TIP3    H222692   7.366   6.061   1.726  0.3410  0.4186  1.4146
 7579TIP3   OH222693   6.685   6.567   5.997  0.2020  0.4911 -0.0487
 7579TIP3    H122694   6.655   6.631   5.932 -3.1444 -0.5593  0.2968
 7579TIP3    H222695   6.679   6.612   6.081 -1.0752  0.1039  0.0805
 7580TIP3   OH222696   5.412   6.662   4.456  0.1676 -0.0399 -0.1881
 7580TIP3    H122697   5.395   6.723   4.528  0.2216 -0.3349  0.0789
 7580TIP3    H222698   5.469   6.711   4.397 -0.1585  0.3263 -0.2021
 7581TIP3   OH222699   0.756   7.753   5.485  0.0333 -0.2108 -0.4681
 7581TIP3    H122700   0.785   7.815   5.552  0.0193 -0.7685  0.0640
 7581TIP3    H222701   0.776   7.666   5.522  0.2536 -0.5190 -1.2927
 7582TIP3   OH222702   1.233   0.722   6.030  0.1807 -0.0332 -0.3119
 7582TIP3    H122703   1.208   0.635   6.000 -1.5555  0.6053 -0.8583
 7582TIP3    H222704   1.221   0.720   6.125 -1.2604  0.0083 -0.4774
 7583TIP3   OH222705   3.024   7.309   6.360 -0.2287  0.3815 -0.2600
 7583TIP3    H122706   3.055   7.239   6.302 -0.6755 -1.5597  1.7259
 7583TIP3    H222707   3.099   7.326   6.418 -0.7145  0.2796  0.4000
 7584TIP3   OH222708   4.975   0.124   5.247 -0.2106 -0.3502  0.1636
 7584TIP3    H122709   4.912   0.173   5.194  0.0035  0.1895  0.3981
 7584TIP3    H222710   5.058   0.131   5.199  0.6255  2.3143  1.7257
 7585TIP3   OH222711   0.062   1.199   2.336 -0.5513  0.0675 -0.4560
 7585TIP3    H122712   0.042   1.266   2.401  0.5420  0.5412 -0.5820
 7585TIP3    H222713   0.014   1.121   2.365 -0.5744  0.4522  0.5762
 7586TIP3   OH222714   7.224   5.002   6.128 -0.0632 -0.2641 -0.0801
 7586TIP3    H122715   7.172   5.002   6.047 -0.2661  0.1755  0.0448
 7586TIP3    H222716   7.177   4.943   6.187 -0.4421  0.1483  0.0409
 7587TIP3   OH222717   8.121   7.700   6.373  0.3773 -0.2671 -0.0467
 7587TIP3    H122718   8.114   7.781   6.324  1.5184 -0.1006  0.0331
 7587TIP3    H222719   8.031   7.675   6.393 -0.1205 -0.2607 -2.0824
 7588TIP3   OH222720   4.403   2.811   1.674  0.2613 -0.3071  0.1905
 7588TIP3    H122721   4.438   2.847   1.755  0.7094 -0.9658  0.2967
 7588TIP3    H222722   4.309   2.831   1.677  0.1395 -0.9670  1.2270
 7589TIP3   OH222723   4.862   6.579   1.219 -0.1684 -0.0730 -0.3752
 7589TIP3    H122724   4.767   6.589   1.213 -0.0468  1.3567 -0.2117
 7589TIP3    H222725   4.874   6.488   1.247 -1.4888 -0.2251 -0.2133
 7590TIP3   OH222726   4.458   5.317   0.757  0.5401 -0.1027 -0.3456
 7590TIP3    H122727   4.438   5.248   0.693 -2.9938 -0.0943  0.5661
 7590TIP3    H222728   4.511   5.272   0.824 -1.1050 -1.8397 -0.1105
 7591TIP3   OH222729   1.142   0.188   3.411  0.2231  0.6037  0.0319
 7591TIP3    H122730   1.097   0.168   3.493 -0.0538 -1.7759 -0.6279
 7591TIP3    H222731   1.234   0.195   3.435  0.3293 -1.4976  0.4036
 7592TIP3   OH222732   6.883   1.138   0.148  0.0573  0.2945  0.3653
 7592TIP3    H122733   6.862   1.219   0.101 -0.9569 -1.3989 -2.3414
 7592TIP3    H222734   6.965   1.109   0.110  0.7031  0.3008  1.7187
 7593TIP3   OH222735   4.904   7.276   6.732  0.1892 -0.3319 -0.0958
 7593TIP3    H122736   4.939   7.220   6.800  0.2690  0.3273  0.4216
 7593TIP3    H222737   4.809   7.273   6.745  0.1754 -0.5737 -0.2527
 7594TIP3   OH222738   4.118   7.330   5.129  0.1679  0.6287 -0.4483
 7594TIP3    H122739   4.116   7.361   5.039 -1.4943  0.8365 -0.3846
 7594TIP3    H222740   4.044   7.376   5.171  1.8970  1.8510  1.4681
 7595TIP3   OH222741   0.132   0.814   2.211  0.0357  0.7041  0.1524
 7595TIP3    H122742   0.097   0.780   2.128 -1.9953  0.5520  1.0306
 7595TIP3    H222743   0.160   0.736   2.259  1.6708  0.8213 -0.5239
 7596TIP3   OH222744   2.103   7.489   4.011 -0.0532 -0.0336  0.1982
 7596TIP3    H122745   2.197   7.473   4.001 -0.2570 -0.7560 -0.6704
 7596TIP3    H222746   2.097   7.577   4.048  0.8979  1.1471 -2.2831
 7597TIP3   OH222747   1.440   4.326   1.856 -0.1974 -0.2251  0.2463
 7597TIP3    H122748   1.457   4.295   1.767 -1.3645 -0.2450  0.0153
 7597TIP3    H222749   1.516   4.297   1.907  0.6424  0.0711 -0.8012
 7598TIP3   OH222750   4.352   5.600   2.617  0.3662 -0.0891 -0.3122
 7598TIP3    H122751   4.343   5.514   2.577 -0.7572 -1.0539  1.8501
 7598TIP3    H222752   4.446   5.615   2.621  0.5751 -1.2083 -0.7299
 7599TIP3   OH222753   5.508   3.425   5.747 -0.1052  0.3634 -0.0337
 7599TIP3    H122754   5.585   3.472   5.780  0.4556 -0.1966 -0.5137
 7599TIP3    H222755   5.525   3.415   5.653 -1.0115  0.6822 -0.2392
 7600TIP3   OH222756   3.049   3.769   1.331 -0.0198 -0.6708 -0.5834
 7600TIP3    H122757   3.063   3.745   1.423 -0.3013 -1.1977 -0.6790
 7600TIP3    H222758   2.961   3.805   1.329  0.2950  0.1195 -0.4946
 7601TIP3   OH222759   7.097   6.047   1.426 -0.1927 -0.0024 -0.6910
 7601TIP3    H122760   7.063   6.111   1.488  1.0104 -1.2774  1.3958
 7601TIP3    H222761   7.190   6.067   1.419  0.4432 -2.0726  0.8382
 7602TIP3   OH222762   3.531   6.757   5.466 -0.3129  0.5515 -0.0038
 7602TIP3    H122763   3.553   6.690   5.401  1.6275  0.0788  1.0944
 7602TIP3    H222764   3.469   6.713   5.525 -0.3318  0.2618 -0.2359
 7603TIP3   OH222765   6.868   5.029   4.172  0.1743 -0.7517 -0.4603
 7603TIP3    H122766   6.910   5.056   4.254  0.4176  2.5595 -1.5226
 7603TIP3    H222767   6.783   5.073   4.174 -0.5295 -2.0227 -1.2655
 7604TIP3   OH222768   4.520   3.518   0.943  0.7095  0.3494 -0.3425
 7604TIP3    H122769   4.567   3.540   1.023 -0.7447 -0.1950  0.7239
 7604TIP3    H222770   4.492   3.602   0.907 -1.7719  0.5552  1.7708
 7605TIP3   OH222771   4.392   6.222   6.081  0.4705 -0.2911  0.3648
 7605TIP3    H122772   4.470   6.228   6.137  0.8106  0.6452 -0.1755
 7605TIP3    H222773   4.396   6.134   6.044  0.5048 -0.7479  1.4233
 7606TIP3   OH222774   7.762   7.120   1.522 -0.1636  0.2325 -0.0175
 7606TIP3    H122775   7.750   7.131   1.427  0.2015  0.9949  0.0149
 7606TIP3    H222776   7.679   7.085   1.553 -0.0246 -0.7678 -0.7332
 7607TIP3   OH222777   2.437   5.651   6.659 -0.1871 -0.0851 -0.1004
 7607TIP3    H122778   2.395   5.581   6.710  1.2382 -1.1039 -0.2595
 7607TIP3    H222779   2.387   5.729   6.680 -1.9838 -1.1786 -0.0787
 7608TIP3   OH222780   2.859   4.660   6.037  0.6645  0.4940 -0.5144
 7608TIP3    H122781   2.919   4.588   6.017 -0.1227  0.2024 -1.9296
 7608TIP3    H222782   2.775   4.633   6.001 -0.0786  1.3699  0.4944
 7609TIP3   OH222783   4.812   6.680   5.538 -0.3541  0.5500 -0.1720
 7609TIP3    H122784   4.733   6.727   5.564 -1.3481 -0.6988 -0.8069
 7609TIP3    H222785   4.785   6.589   5.534  1.6001 -0.1608  1.3404
 7610TIP3   OH222786   2.560   4.537   1.804 -0.2781 -0.3021  0.5964
 7610TIP3    H122787   2.573   4.453   1.848  1.1811 -0.3237  0.1747
 7610TIP3    H222788   2.530   4.596   1.874 -2.2776 -1.3550  0.7071
 7611TIP3   OH222789   5.681   0.489   4.595 -0.5374  0.5435  0.2246
 7611TIP3    H122790   5.594   0.453   4.576 -0.1900 -0.1129 -0.1455
 7611TIP3    H222791   5.706   0.448   4.678 -1.1034  1.7000  0.9970
 7612TIP3   OH222792   8.216   7.497   0.333 -0.2792  0.1756  0.1834
 7612TIP3    H122793   8.301   7.468   0.366 -0.5083 -0.2688  0.3876
 7612TIP3    H222794   8.209   7.588   0.362  0.6983  0.6487 -0.9541
 7613TIP3   OH222795   7.672   4.284   6.018 -0.0709  0.3368  0.3697
 7613TIP3    H122796   7.741   4.255   6.078  0.3211  0.0799 -0.1957
 7613TIP3    H222797   7.689   4.377   6.005 -0.9499  0.7112  1.6878
 7614TIP3   OH222798   0.860   6.754   4.353 -0.3040 -0.1208  0.2991
 7614TIP3    H122799   0.843   6.663   4.330  1.6992 -0.3939 -0.3169
 7614TIP3    H222800   0.926   6.783   4.289 -0.8012  1.7223  0.5671
 7615TIP3   OH222801   4.287   7.574   0.973 -0.5114  0.0685  0.4157
 7615TIP3    H122802   4.334   7.554   1.054  0.1191  1.4245  0.4147
 7615TIP3    H222803   4.313   7.505   0.912 -1.6359 -1.4346  1.5951
 7616TIP3   OH222804   0.114   7.602   4.065 -0.0009  0.3843  0.0912
 7616TIP3    H122805   0.186   7.637   4.012 -0.0464  2.5580  1.3593
 7616TIP3    H222806   0.083   7.526   4.016  0.0891  2.1158 -2.8901
 7617TIP3   OH222807   4.876   2.243   6.211 -0.1815 -0.1191  0.5550
 7617TIP3    H122808   4.811   2.235   6.281  0.2482  1.2257  1.1368
 7617TIP3    H222809   4.907   2.153   6.197 -0.5041 -0.4540  1.8752
 7618TIP3   OH222810   0.834   5.453   2.746  0.5350  0.5159  0.2628
 7618TIP3    H122811   0.760   5.399   2.719  1.1716 -0.7692  0.9799
 7618TIP3    H222812   0.877   5.478   2.664  0.0677  0.1590 -0.0934
 7619TIP3   OH222813   1.480   7.331   5.413  0.5517  0.0404 -0.1824
 7619TIP3    H122814   1.569   7.306   5.436 -0.3731 -2.6744  0.9263
 7619TIP3    H222815   1.468   7.299   5.324  1.4140  2.7223 -1.3357
 7620TIP3   OH222816   8.086   1.460   4.725 -0.4053  0.0874 -0.3537
 7620TIP3    H122817   8.071   1.546   4.687  0.7563 -0.5489 -2.3512
 7620TIP3    H222818   8.179   1.458   4.747  0.2486 -1.5170 -2.8328
 7621TIP3   OH222819   1.755   0.992   4.205 -0.2314 -0.1028 -0.4297
 7621TIP3    H122820   1.775   0.921   4.144 -0.1326  0.1908 -0.7403
 7621TIP3    H222821   1.824   1.056   4.191 -0.7782  0.4262 -0.7419
 7622TIP3   OH222822   4.192   5.489   4.471  0.2803  0.1566  0.3067
 7622TIP3    H122823   4.223   5.555   4.533  0.8799  0.7085 -0.5653
 7622TIP3    H222824   4.260   5.422   4.472  0.2683  0.1442  0.2760
 7623TIP3   OH222825   7.262   0.149   6.151 -0.2240  0.4101  0.4361
 7623TIP3    H122826   7.354   0.156   6.174 -0.6441 -1.1720  3.1371
 7623TIP3    H222827   7.233   0.239   6.141  1.3372  1.0027  0.9252
 7624TIP3   OH222828   4.787   3.921   2.889 -0.0398  0.2488  0.0953
 7624TIP3    H122829   4.832   3.949   2.809  0.5941  2.1608  1.0660
 7624TIP3    H222830   4.817   3.982   2.956  1.3703 -2.7872  2.4178
 7625TIP3   OH222831   5.386   1.357   1.821  0.7806  0.0259  0.7479
 7625TIP3    H122832   5.370   1.429   1.882  0.2321 -1.2098  2.1267
 7625TIP3    H222833   5.459   1.309   1.860  1.1349 -0.1939 -0.1520
 7626TIP3   OH222834   3.468   3.799   6.648  0.3853 -0.3788  0.3207
 7626TIP3    H122835   3.415   3.771   6.573 -0.6694  0.0486  0.8817
 7626TIP3    H222836   3.495   3.717   6.690 -0.6931 -0.6163  0.5911
 7627TIP3   OH222837   2.761   3.092   4.779 -0.1764 -0.7038 -0.5955
 7627TIP3    H122838   2.680   3.122   4.820 -0.2185 -0.5970 -0.7584
 7627TIP3    H222839   2.826   3.096   4.849 -0.5629 -1.8966 -0.1358
 7628TIP3   OH222840   2.462   5.235   6.672  0.2434  0.5533 -0.1500
 7628TIP3    H122841   2.486   5.203   6.758 -0.5279  0.0771 -0.1034
 7628TIP3    H222842   2.479   5.329   6.675  1.5792  0.3150  0.0397
 7629TIP3   OH222843   4.946   5.027   1.537 -0.1096  0.2944  0.3588
 7629TIP3    H122844   4.873   5.033   1.599 -0.2792 -1.4026  0.3690
 7629TIP3    H222845   5.024   5.029   1.592 -0.2298 -0.2330  0.5555
 7630TIP3   OH222846   4.911   1.142   5.966  0.2486  0.1019  0.4335
 7630TIP3    H122847   4.845   1.135   5.897 -1.4141 -1.7006  2.0749
 7630TIP3    H222848   4.951   1.227   5.952 -1.9708  0.9969 -1.0465
 7631TIP3   OH222849   3.015   0.004   5.475  0.0004 -0.2970 -0.4814
 7631TIP3    H122850   3.080  -0.009   5.406  0.8135 -1.5288  0.4913
 7631TIP3    H222851   3.065   0.024   5.553 -0.8435 -0.2603  0.0677
 7632TIP3   OH222852   6.352   6.529   0.775 -0.7391 -0.3951  0.4907
 7632TIP3    H122853   6.315   6.615   0.756 -1.1034 -0.9100 -1.2600
 7632TIP3    H222854   6.441   6.533   0.743  0.5728  0.4974  3.7928
 7633TIP3   OH222855   7.358   5.829   5.546  0.4069 -0.3606 -0.3341
 7633TIP3    H122856   7.368   5.829   5.642 -0.0542 -0.1983 -0.2841
 7633TIP3    H222857   7.446   5.847   5.513  0.7418 -1.2386  0.0394
 7634TIP3   OH222858   3.697   6.179   2.461  0.1189  0.6190  0.0718
 7634TIP3    H122859   3.633   6.224   2.406  0.0638 -2.0150 -2.2743
 7634TIP3    H222860   3.749   6.127   2.399  0.2878 -2.3216  2.4385
 7635TIP3   OH222861   5.868   3.592   2.430  0.1373 -1.2664  0.3550
 7635TIP3    H122862   5.926   3.572   2.503  0.8070  1.2645  0.5972
 7635TIP3    H222863   5.927   3.604   2.355 -0.3532 -1.6174 -0.0979
 7636TIP3   OH222864   5.236   7.762   2.755 -0.1707 -0.0163 -0.6124
 7636TIP3    H122865   5.220   7.737   2.664  1.8766 -0.5986 -0.8628
 7636TIP3    H222866   5.324   7.800   2.755  0.1415 -0.6166  1.2259
 7637TIP3   OH222867   2.607   7.133   2.388  0.6070  0.3241 -0.2810
 7637TIP3    H122868   2.621   7.189   2.312  2.0602  0.9298  0.3823
 7637TIP3    H222869   2.695   7.102   2.411 -0.0787 -1.7326 -0.2292
 7638TIP3   OH222870   0.413   7.476   3.315 -0.0238 -0.6580 -0.3888
 7638TIP3    H122871   0.482   7.427   3.270  2.4134 -0.1949  2.5643
 7638TIP3    H222872   0.451   7.562   3.331 -1.2564 -0.3826  1.3064
 7639TIP3   OH222873   2.207   0.129   2.159  0.3952  0.2314 -0.5988
 7639TIP3    H122874   2.227   0.222   2.145 -2.1795  0.6256 -2.3657
 7639TIP3    H222875   2.284   0.083   2.125  2.1852  1.6430  1.2438
 7640TIP3   OH222876   5.858   1.295   3.584 -0.3956  0.3179  0.0901
 7640TIP3    H122877   5.763   1.292   3.584 -0.3785 -0.6433  0.1824
 7640TIP3    H222878   5.884   1.223   3.642  0.3984 -0.4350 -1.1663
 7641TIP3   OH222879   6.163   6.768   4.217 -0.3794 -0.3674  0.0501
 7641TIP3    H122880   6.228   6.756   4.148 -0.4930  1.7451 -0.5054
 7641TIP3    H222881   6.168   6.688   4.269  1.4017 -1.0070 -1.0073
 7642TIP3   OH222882   3.141   3.097   2.696  0.2891 -0.2029  0.0003
 7642TIP3    H122883   3.125   3.068   2.606  0.3904  0.2719 -0.1728
 7642TIP3    H222884   3.230   3.130   2.695 -0.1044  0.8978 -0.0198
 7643TIP3   OH222885   1.718   7.478   0.274 -0.7733  0.7069  0.4323
 7643TIP3    H122886   1.655   7.480   0.202  1.0897  0.6808 -1.2725
 7643TIP3    H222887   1.747   7.569   0.282 -0.0648  0.4923  0.3115
 7644TIP3   OH222888   3.505   0.743   0.075  0.3042 -0.6153  0.0859
 7644TIP3    H122889   3.579   0.686   0.096  1.2299  0.4906 -0.1325
 7644TIP3    H222890   3.430   0.684   0.074  1.3239 -1.9593 -0.7633
 7645TIP3   OH222891   7.866   4.421   4.115  0.0228 -0.0166 -0.2406
 7645TIP3    H122892   7.951   4.404   4.157 -0.4844 -0.0047  0.8316
 7645TIP3    H222893   7.864   4.361   4.041  0.4737 -0.8915  0.4246
 7646TIP3   OH222894   7.157   1.867   2.664  0.0168  0.0422  0.2125
 7646TIP3    H122895   7.084   1.879   2.725 -0.0519  0.0276  0.1338
 7646TIP3    H222896   7.223   1.930   2.694  0.6942 -1.1767  1.3794
 7647TIP3   OH222897   6.298   6.242   0.240  0.1143  0.4780 -0.1510
 7647TIP3    H122898   6.228   6.264   0.180  0.2086  0.4357 -0.2760
 7647TIP3    H222899   6.268   6.274   0.325  0.1469  0.8789 -0.2874
 7648TIP3   OH222900   2.222   1.037   1.053 -0.1540  0.1924  0.2793
 7648TIP3    H122901   2.250   0.999   1.136  0.0506 -1.0562 -0.3441
 7648TIP3    H222902   2.217   1.131   1.070  1.8226  0.1829  1.1717
 7649TIP3   OH222903   2.376   7.532   3.817 -0.1521  0.0108 -0.2332
 7649TIP3    H122904   2.421   7.532   3.902 -1.7101  0.0823  0.6307
 7649TIP3    H222905   2.418   7.461   3.768  2.7277  1.7695 -0.5515
 7650TIP3   OH222906   2.501   2.499   6.626  0.1037 -0.3461 -0.1313
 7650TIP3    H122907   2.477   2.495   6.718  0.8187 -0.3653  0.0556
 7650TIP3    H222908   2.572   2.436   6.616 -2.1323 -2.8721 -1.3998
 7651TIP3   OH222909   8.033   2.965   6.374 -0.6737  0.1044 -0.3946
 7651TIP3    H122910   8.098   3.005   6.315 -0.8103  0.9031 -0.0295
 7651TIP3    H222911   7.993   3.040   6.418 -0.1283 -0.4779  1.1857
 7652TIP3   OH222912   8.230   6.945   3.892 -0.4889 -0.1355  0.3563
 7652TIP3    H122913   8.280   7.025   3.905 -1.0881  0.2946  0.0647
 7652TIP3    H222914   8.141   6.967   3.921 -0.2406 -1.2812  2.1393
 7653TIP3   OH222915   2.039   6.466   2.362 -0.0999 -0.6592  0.1114
 7653TIP3    H122916   1.999   6.404   2.301 -1.5255  0.2807  0.0299
 7653TIP3    H222917   1.965   6.507   2.406  0.7333  1.4881 -0.3410
 7654TIP3   OH222918   5.872   7.280   6.223 -0.5332  0.4550  0.5663
 7654TIP3    H122919   5.794   7.227   6.213 -1.6035  2.0580 -0.0327
 7654TIP3    H222920   5.868   7.312   6.313 -1.8271  2.3032 -0.0739
 7655TIP3   OH222921   3.946   6.704   4.219  0.1096 -0.1496  0.3397
 7655TIP3    H122922   4.022   6.650   4.242 -0.2050 -1.1350 -0.8440
 7655TIP3    H222923   3.964   6.788   4.261  0.7925 -1.0264  1.9127
 7656TIP3   OH222924   5.935   2.904   5.214  0.0635  0.1687  0.3554
 7656TIP3    H122925   5.921   2.809   5.221 -0.3522  0.2808  1.0598
 7656TIP3    H222926   5.976   2.915   5.128 -2.4129 -0.3820 -1.0125
 7657TIP3   OH222927   7.608   6.436   4.175 -0.3072  0.0567  0.5875
 7657TIP3    H122928   7.673   6.494   4.215 -0.7179  0.1596  1.1189
 7657TIP3    H222929   7.641   6.348   4.193  0.5784  0.1132 -0.6587
 7658TIP3   OH222930   1.283   4.844   4.784 -0.2709  0.0210 -0.3232
 7658TIP3    H122931   1.320   4.903   4.849 -1.3537  0.1391  0.2213
 7658TIP3    H222932   1.305   4.884   4.700  1.1394 -0.1323 -0.0395
 7659TIP3   OH222933   5.800   0.608   3.772 -0.1255 -0.9597 -0.1133
 7659TIP3    H122934   5.837   0.561   3.846  0.8683 -1.5538 -0.9676
 7659TIP3    H222935   5.859   0.682   3.758  0.3910 -1.5399 -1.0687
 7660TIP3   OH222936   5.887   1.269   0.247 -0.3191  0.0541  0.5065
 7660TIP3    H122937   5.966   1.264   0.193 -2.6137  0.7922 -3.2830
 7660TIP3    H222938   5.884   1.360   0.277 -0.4659  0.4470 -0.6514
 7661TIP3   OH222939   8.132   2.232   5.368  0.2440  0.4180 -1.0333
 7661TIP3    H122940   8.154   2.319   5.336 -1.1367  1.1543 -0.0615
 7661TIP3    H222941   8.127   2.242   5.463  0.0763 -0.7260 -0.9059
 7662TIP3   OH222942   5.357   6.118   4.777 -0.6422 -0.0272 -0.1093
 7662TIP3    H122943   5.339   6.145   4.867 -0.2099  1.5761 -0.4588
 7662TIP3    H222944   5.275   6.079   4.747 -0.5649 -1.3017  1.1917
 7663TIP3   OH222945   2.481   1.117   6.053 -0.4086 -0.1833 -0.0124
 7663TIP3    H122946   2.573   1.100   6.072 -0.0454  0.3348 -1.2456
 7663TIP3    H222947   2.434   1.083   6.130  0.6999 -1.5832  0.0870
 7664TIP3   OH222948   1.946   0.665   4.659  0.5012 -0.2148  0.0344
 7664TIP3    H122949   1.931   0.611   4.736 -1.2739  0.8353  0.4780
 7664TIP3    H222950   1.967   0.752   4.694 -1.7170  0.6396 -0.5962
 7665TIP3   OH222951   2.420   6.324   6.454  0.0503  0.0504 -0.1114
 7665TIP3    H122952   2.453   6.242   6.493  1.5961  1.0685  0.8533
 7665TIP3    H222953   2.499   6.371   6.427 -0.8136  1.2007 -0.7199
 7666TIP3   OH222954   6.147   4.111   5.779  0.3697  0.5013  0.3057
 7666TIP3    H122955   6.192   4.031   5.750  0.9594  0.9757 -0.1068
 7666TIP3    H222956   6.207   4.182   5.756 -0.6699  1.1706 -0.4632
 7667TIP3   OH222957   8.003   4.880   1.857  0.7860 -0.3579 -0.3691
 7667TIP3    H122958   8.060   4.823   1.805  1.8004 -0.5296  0.8923
 7667TIP3    H222959   8.057   4.908   1.931 -1.0728 -1.4037  1.4965
 7668TIP3   OH222960   6.205   2.558   0.846  0.1900 -0.9226 -0.3077
 7668TIP3    H122961   6.206   2.642   0.800 -0.5830 -0.4281  0.5440
 7668TIP3    H222962   6.185   2.494   0.778 -0.5309 -0.2553 -0.7459
 7669TIP3   OH222963   0.221   6.847   1.285  0.1336 -0.1572 -0.2186
 7669TIP3    H122964   0.256   6.780   1.343  0.4419 -0.6140 -0.9249
 7669TIP3    H222965   0.242   6.930   1.328  1.7662 -0.4292 -0.4421
 7670TIP3   OH222966   1.694   1.968   3.312  0.3700  0.2621 -0.0007
 7670TIP3    H122967   1.736   1.911   3.376 -0.5746  1.1520  1.4616
 7670TIP3    H222968   1.600   1.954   3.325  0.1554  0.4110 -1.2476
 7671TIP3   OH222969   3.189   4.064   1.327 -0.1285 -0.2214  0.6322
 7671TIP3    H122970   3.199   4.159   1.318 -0.6521 -0.2020  0.1404
 7671TIP3    H222971   3.095   4.049   1.316  0.1153 -0.9320 -0.7911
 7672TIP3   OH222972   0.403   4.817   1.720 -0.1665 -0.0637 -0.4678
 7672TIP3    H122973   0.423   4.885   1.656 -2.3226  0.8573 -0.2426
 7672TIP3    H222974   0.348   4.860   1.785  0.4951 -1.4232  1.0686
 7673TIP3   OH222975   1.832   6.704   5.892 -0.3334  0.3216  0.2757
 7673TIP3    H122976   1.857   6.687   5.982  1.1123 -1.2069 -0.3594
 7673TIP3    H222977   1.896   6.767   5.860 -1.2844  1.4381  0.4866
 7674TIP3   OH222978   5.209   1.327   4.751 -0.0442 -0.4278  0.2912
 7674TIP3    H122979   5.237   1.305   4.662  0.6039 -0.7312  0.5614
 7674TIP3    H222980   5.116   1.304   4.753 -0.1057 -0.2577 -0.3586
 7675TIP3   OH222981   5.614   5.909   3.045  0.0326 -0.1559 -0.3659
 7675TIP3    H122982   5.596   5.979   3.108  2.4271  0.2908 -0.0723
 7675TIP3    H222983   5.578   5.830   3.086 -1.9481  0.7435 -0.3084
 7676TIP3   OH222984   5.315   1.645   2.745  0.0624  0.3915  0.5516
 7676TIP3    H122985   5.233   1.692   2.732 -0.6085 -0.6268  1.0133
 7676TIP3    H222986   5.289   1.554   2.758  1.2773  0.0278  0.5457
 7677TIP3   OH222987   7.291   4.336   2.522 -0.4152 -0.0464 -0.3601
 7677TIP3    H122988   7.332   4.280   2.456  1.9443  0.2496  0.7157
 7677TIP3    H222989   7.270   4.417   2.476 -0.6933 -0.5856 -1.1889
 7678TIP3   OH222990   5.860   2.115   3.309  0.2204 -0.1650 -0.2131
 7678TIP3    H122991   5.812   2.187   3.268 -1.7840 -0.4722  1.4111
 7678TIP3    H222992   5.891   2.062   3.235 -2.1347 -0.0280 -1.3950
 7679TIP3   OH222993   2.851   0.450   2.397 -0.3853  0.3606  0.3449
 7679TIP3    H122994   2.877   0.473   2.308  1.9124 -2.1333  0.2222
 7679TIP3    H222995   2.933   0.453   2.447 -1.1714 -0.7455  1.7901
 7680TIP3   OH222996   3.146   1.197   6.655 -0.1578 -0.1283  0.1710
 7680TIP3    H122997   3.219   1.245   6.616 -0.5670 -0.5888 -1.2272
 7680TIP3    H222998   3.187   1.126   6.705  0.3667  0.0454 -0.0075
 7681TIP3   OH222999   5.685   4.879   6.100  0.4522 -0.0748  0.4753
 7681TIP3    H123000   5.737   4.849   6.174  0.3423 -1.0175  0.1809
 7681TIP3    H223001   5.615   4.932   6.138 -0.9925 -2.4167  1.2970
 7682TIP3   OH223002   3.942   7.030   1.527  0.0709  0.0185  0.1341
 7682TIP3    H123003   3.850   7.044   1.549 -0.3656 -0.0330 -1.5436
 7682TIP3    H223004   3.973   6.970   1.596 -0.5099  1.7444  1.9968
 7683TIP3   OH223005   0.639   5.780   0.402 -0.4283  0.0127 -0.5231
 7683TIP3    H123006   0.593   5.803   0.321 -1.8287  0.9936  0.4976
 7683TIP3    H223007   0.588   5.707   0.438 -0.9444  0.8108  0.3978
 7684TIP3   OH223008   2.987   1.093   2.730  0.0148 -0.3861 -0.4585
 7684TIP3    H123009   3.047   1.163   2.755 -0.4031  0.0020 -0.5272
 7684TIP3    H223010   3.043   1.022   2.699  0.4525 -0.1845 -0.1260
 7685TIP3   OH223011   3.189   7.625   1.992 -0.0962  0.0094 -0.0318
 7685TIP3    H123012   3.100   7.624   1.957 -0.6805  2.4431  1.1462
 7685TIP3    H223013   3.236   7.685   1.934  0.0086  0.8950  0.9577
 7686TIP3   OH223014   7.416   3.513   5.100  0.0700 -0.2402 -0.0818
 7686TIP3    H123015   7.340   3.485   5.152  1.1590 -0.5788  1.4068
 7686TIP3    H223016   7.449   3.432   5.061  0.0745 -0.1992 -0.1616
 7687TIP3   OH223017   5.742   3.883   1.441  0.6547 -0.4431  0.0181
 7687TIP3    H123018   5.727   3.825   1.367 -1.1143 -0.8488  0.6434
 7687TIP3    H223019   5.726   3.828   1.518  1.9706  0.0932  0.7035
 7688TIP3   OH223020   5.527   2.685   1.224 -0.8990  0.5198 -0.2235
 7688TIP3    H123021   5.506   2.715   1.136  0.7318 -1.1540 -1.2323
 7688TIP3    H223022   5.591   2.748   1.256 -0.6178  0.4734 -0.6921
 7689TIP3   OH223023   4.746   0.926   3.210 -0.4520  0.3813 -0.2014
 7689TIP3    H123024   4.829   0.927   3.257 -1.5427  1.0438  1.8567
 7689TIP3    H223025   4.719   0.834   3.209  0.2791  0.1560 -0.9240
 7690TIP3   OH223026   4.715   2.804   6.635 -0.1924 -0.3917 -0.5847
 7690TIP3    H123027   4.769   2.882   6.620 -0.3154  0.1793  1.6405
 7690TIP3    H223028   4.778   2.732   6.637  0.6152  0.2980  2.2282
 7691TIP3   OH223029   1.773   1.319   0.498  0.5303  0.1457 -0.4424
 7691TIP3    H123030   1.810   1.356   0.578 -1.5729 -0.6760  0.9909
 7691TIP3    H223031   1.849   1.291   0.447  1.9907  2.1980  0.4793
 7692TIP3   OH223032   2.406   0.799   5.977 -0.2846  0.1526 -0.0572
 7692TIP3    H123033   2.485   0.748   5.993 -1.8893 -2.0352  1.2943
 7692TIP3    H223034   2.436   0.890   5.978  2.4676 -0.6384 -1.3264
 7693TIP3   OH223035   7.645   6.721   5.413 -0.2398 -0.1751 -0.1941
 7693TIP3    H123036   7.640   6.701   5.506  0.8626  2.0627  0.4212
 7693TIP3    H223037   7.735   6.749   5.399 -0.8187  1.1816 -1.5402
 7694TIP3   OH223038   0.866   3.329   2.162 -0.2710 -0.3777 -0.3647
 7694TIP3    H123039   0.858   3.285   2.077 -2.2223  1.9763 -1.5263
 7694TIP3    H223040   0.900   3.261   2.220 -3.0979 -3.5193 -1.9829
 7695TIP3   OH223041   0.402   0.490   0.776 -0.2586 -0.0909 -0.1537
 7695TIP3    H123042   0.342   0.508   0.704 -1.5425 -2.1712  0.3177
 7695TIP3    H223043   0.412   0.574   0.821 -1.4588  0.6689 -1.2616
 7696TIP3   OH223044   4.654   6.773   4.885  0.1862 -0.2339  0.3112
 7696TIP3    H123045   4.560   6.756   4.892 -0.1946  1.7051  0.6164
 7696TIP3    H223046   4.674   6.759   4.792 -1.0258  1.8427 -0.3367
 7697TIP3   OH223047   7.121   3.728   3.080 -0.3215  0.3848  0.5989
 7697TIP3    H123048   7.185   3.657   3.080 -1.2312 -0.4873 -0.6400
 7697TIP3    H223049   7.156   3.793   3.140  1.6959 -0.0828 -0.0158
 7698TIP3   OH223050   5.346   3.297   4.304  0.2273 -0.3286 -0.1205
 7698TIP3    H123051   5.392   3.219   4.334  1.4421  0.7393  0.9777
 7698TIP3    H223052   5.396   3.328   4.229  0.5305  0.1187  0.2642
 7699TIP3   OH223053   7.507   6.164   3.893 -0.0785  0.3701  0.1872
 7699TIP3    H123054   7.521   6.136   3.983 -0.8348 -0.7855 -0.0343
 7699TIP3    H223055   7.493   6.083   3.844 -1.3229  1.0646 -0.6663
 7700TIP3   OH223056   7.973   6.753   4.194 -0.2426 -0.4039 -0.1199
 7700TIP3    H123057   7.913   6.825   4.175 -0.1545 -0.7725 -2.0248
 7700TIP3    H223058   8.026   6.744   4.114  1.2743 -1.1217  0.9121
 7701TIP3   OH223059   1.862   5.502   5.698 -0.1399 -0.4806 -0.2743
 7701TIP3    H123060   1.798   5.569   5.721 -1.0207 -0.8556 -1.5013
 7701TIP3    H223061   1.842   5.480   5.607  1.8638 -0.4898 -0.7555
 7702TIP3   OH223062   5.934   4.620   4.959 -0.2758 -0.4010  0.1906
 7702TIP3    H123063   5.858   4.637   4.903 -0.8947 -2.2422  0.4020
 7702TIP3    H223064   5.960   4.706   4.991 -2.0798  0.3141 -0.1585
 7703TIP3   OH223065   0.441   3.550   1.959  0.0401 -0.3641 -0.6314
 7703TIP3    H123066   0.400   3.538   1.873 -0.6267 -1.4449 -0.1891
 7703TIP3    H223067   0.500   3.623   1.948  0.5946 -1.0233 -2.2475
 7704TIP3   OH223068   3.821   6.381   4.176 -0.1623 -0.3347  0.5358
 7704TIP3    H123069   3.906   6.392   4.134  0.1445 -0.4175  1.1255
 7704TIP3    H223070   3.772   6.459   4.152  0.3690  0.1037  0.8788
 7705TIP3   OH223071   6.694   6.242   6.412  0.3814 -0.1700  0.2806
 7705TIP3    H123072   6.692   6.245   6.316 -0.0052 -0.2873  0.2798
 7705TIP3    H223073   6.654   6.157   6.433  1.9932 -0.9186  0.5063
 7706TIP3   OH223074   0.824   6.648   0.573 -0.1615 -0.0037 -0.2727
 7706TIP3    H123075   0.860   6.728   0.611 -1.5484  0.4086  0.2506
 7706TIP3    H223076   0.854   6.649   0.482  1.7344 -0.0919  0.3210
 7707TIP3   OH223077   3.241   6.952   3.761  0.1277 -0.3985  0.0744
 7707TIP3    H123078   3.315   7.011   3.770  0.1467 -0.5228  0.8105
 7707TIP3    H223079   3.275   6.866   3.788 -0.2751 -0.4534  0.4295
 7708TIP3   OH223080   0.775   1.199   4.857 -0.1103 -0.0739  0.3645
 7708TIP3    H123081   0.829   1.257   4.911  0.4269 -0.4590  0.2451
 7708TIP3    H223082   0.804   1.111   4.879 -0.7807 -0.2928  0.3882
 7709TIP3   OH223083   2.824   7.545   0.186  0.6205  0.0873  0.1497
 7709TIP3    H123084   2.869   7.531   0.103  0.4658 -0.3488  0.1391
 7709TIP3    H223085   2.741   7.500   0.176  0.5408  0.1577  0.4914
 7710TIP3   OH223086   1.946   0.973   6.163 -0.4014 -0.1311 -0.3830
 7710TIP3    H123087   1.951   0.885   6.200 -0.7041 -0.0858 -0.2246
 7710TIP3    H223088   1.904   0.961   6.078 -0.8065 -0.0979 -0.1927
 7711TIP3   OH223089   6.428   7.248   5.799 -0.1189  0.0185  0.1373
 7711TIP3    H123090   6.416   7.266   5.705 -2.8737  1.9572  0.7215
 7711TIP3    H223091   6.339   7.237   5.832  0.7753 -0.3522  2.6044
 7712TIP3   OH223092   7.052   4.597   4.502  0.4096  0.1603 -0.2538
 7712TIP3    H123093   6.980   4.652   4.470  0.9069  1.0188  0.0744
 7712TIP3    H223094   7.008   4.522   4.542 -0.6751  2.6423  3.9232
 7713TIP3   OH223095   7.919   6.690   0.371  0.6073  0.0878 -0.3901
 7713TIP3    H123096   8.005   6.699   0.329  0.5399  0.2686 -0.4911
 7713TIP3    H223097   7.894   6.780   0.395  0.2028  0.1067 -0.8537
 7714TIP3   OH223098   0.494   2.912   1.159  0.8535 -0.1087 -0.0508
 7714TIP3    H123099   0.549   2.955   1.224 -0.3162  1.6459 -0.1578
 7714TIP3    H223100   0.420   2.877   1.208  0.4421  0.3871 -0.3137
 7715TIP3   OH223101   1.736   5.589   1.466  0.0062 -0.4667  0.3199
 7715TIP3    H123102   1.771   5.500   1.472 -0.3124 -0.5849  0.4651
 7715TIP3    H223103   1.674   5.595   1.539 -0.2078 -0.2347  0.1202
 7716TIP3   OH223104   7.349   6.474   3.293  0.1372 -0.1988  0.1156
 7716TIP3    H123105   7.382   6.495   3.205  0.0334  0.8238  0.3015
 7716TIP3    H223106   7.271   6.421   3.277 -0.2680  0.5354 -0.4540
 7717TIP3   OH223107   4.282   3.247   3.514 -0.0257  0.1019  0.0863
 7717TIP3    H123108   4.268   3.337   3.484  0.5198  0.3865  0.6587
 7717TIP3    H223109   4.239   3.193   3.448 -1.7704  0.8235  0.5693
 7718TIP3   OH223110   3.665   6.500   0.442 -0.0851 -0.0443  0.3753
 7718TIP3    H123111   3.665   6.407   0.421 -1.1373 -0.2815  1.2946
 7718TIP3    H223112   3.633   6.543   0.362 -0.2717 -0.5461  0.1760
 7719TIP3   OH223113   2.860   1.810   6.338  0.2365  0.2953  0.1081
 7719TIP3    H123114   2.948   1.832   6.370 -0.2915  0.5189  1.5175
 7719TIP3    H223115   2.827   1.747   6.402  0.0438 -1.2371 -1.4343
 7720TIP3   OH223116   1.603   4.091   0.800 -0.5063 -0.1759  0.1219
 7720TIP3    H123117   1.690   4.128   0.784  0.1768 -1.8066 -0.1293
 7720TIP3    H223118   1.570   4.069   0.712 -1.1477  0.3570  0.2219
 7721TIP3   OH223119   1.515   3.891   3.909  0.2548  0.9092 -0.3320
 7721TIP3    H123120   1.440   3.942   3.939 -1.9088 -0.0591 -3.6324
 7721TIP3    H223121   1.566   3.952   3.855  0.7000  0.9641  0.1328
 7722TIP3   OH223122   6.603   3.178   0.921 -0.1328  0.1457 -0.2302
 7722TIP3    H123123   6.582   3.146   0.833 -3.4568  1.7332 -0.1928
 7722TIP3    H223124   6.665   3.115   0.956 -0.1198 -1.5624 -3.0450
 7723TIP3   OH223125   0.926   3.034   4.021 -0.7029  0.3319 -0.3865
 7723TIP3    H123126   0.885   3.105   3.971 -0.7046  1.9749  1.8116
 7723TIP3    H223127   1.004   3.075   4.060 -0.0642 -1.2194  0.0164
 7724TIP3   OH223128   2.225   0.384   5.249 -0.0611 -0.5338  0.1242
 7724TIP3    H123129   2.243   0.460   5.304  1.0904 -0.9820  0.3925
 7724TIP3    H223130   2.248   0.412   5.161  2.4004 -1.1581  0.4784
 7725TIP3   OH223131   5.065   6.990   0.400 -0.1898  0.5915 -0.4933
 7725TIP3    H123132   5.017   6.925   0.452 -2.5937  1.0155 -2.0124
 7725TIP3    H223133   5.047   6.965   0.309  3.7599 -0.0579 -1.2758
 7726TIP3   OH223134   8.219   6.141   0.826 -0.8918 -0.5077 -0.1347
 7726TIP3    H123135   8.140   6.129   0.878 -0.6435  2.6617  1.2390
 7726TIP3    H223136   8.192   6.200   0.755  0.0273 -0.0020 -0.0852
 7727TIP3   OH223137   5.210   0.521   3.762  0.1914 -0.0352  0.6709
 7727TIP3    H123138   5.294   0.495   3.799  0.7857  0.1811 -0.4667
 7727TIP3    H223139   5.222   0.612   3.736 -0.6069  0.1930  1.0772
 7728TIP3   OH223140   0.469   4.365   4.467 -0.0002  0.2430 -0.6561
 7728TIP3    H123141   0.488   4.458   4.479  2.3165 -0.4645  2.5601
 7728TIP3    H223142   0.552   4.328   4.438 -0.6935 -0.9445 -1.1720
 7729TIP3   OH223143   6.832   1.475   0.588  0.1320  0.2683  0.5776
 7729TIP3    H123144   6.883   1.467   0.669 -2.4619 -0.5544  2.2941
 7729TIP3    H223145   6.810   1.385   0.565  0.1856  0.5466 -0.6158
 7730TIP3   OH223146   6.432   5.304   5.789  0.0079  0.3474  0.1254
 7730TIP3    H123147   6.480   5.259   5.859 -3.3779 -0.9334  1.8717
 7730TIP3    H223148   6.355   5.249   5.774 -1.9102  3.1448 -1.1056
 7731TIP3   OH223149   4.703   1.960   0.514  0.4051 -0.1184 -0.0175
 7731TIP3    H123150   4.637   1.894   0.536 -1.0842  0.9821 -0.9998
 7731TIP3    H223151   4.775   1.910   0.475  0.7446 -1.4792  2.2063
 7732TIP3   OH223152   4.132   5.259   6.116  0.0841 -0.1646  0.2152
 7732TIP3    H123153   4.094   5.331   6.166  0.9188  0.1312  0.4418
 7732TIP3    H223154   4.176   5.205   6.181  2.6197  1.1097 -0.2944
 7733TIP3   OH223155   2.702   3.618   4.848 -0.4766  0.0696  0.2276
 7733TIP3    H123156   2.695   3.693   4.789  0.0424 -1.0720 -1.3601
 7733TIP3    H223157   2.679   3.543   4.794 -1.7149 -0.8776  1.9695
 7734TIP3   OH223158   7.469   0.857   6.437  0.4727 -0.0014  0.0431
 7734TIP3    H123159   7.426   0.780   6.399 -0.7783  0.6569  0.0581
 7734TIP3    H223160   7.402   0.895   6.494  1.9148 -0.3116  2.0351
 7735TIP3   OH223161   0.946   4.283   4.236 -0.8100  0.7200  0.1619
 7735TIP3    H123162   1.022   4.229   4.258 -0.3748  1.1302 -0.2878
 7735TIP3    H223163   0.980   4.345   4.171 -1.2587  1.6115  0.7607
 7736TIP3   OH223164   3.982   7.332   6.454  0.7815 -0.0013  0.3127
 7736TIP3    H123165   3.953   7.380   6.376  2.2167 -1.7244 -1.3992
 7736TIP3    H223166   4.034   7.395   6.503 -2.3110  1.9371  1.3943
 7737TIP3   OH223167   2.405   2.400   3.022  0.2412 -0.4402 -0.2259
 7737TIP3    H123168   2.383   2.462   2.953  1.0737 -0.0577 -0.1610
 7737TIP3    H223169   2.382   2.314   2.985 -0.8968 -0.1089 -0.3163
 7738TIP3   OH223170   4.506   2.426   2.445 -0.0204 -0.1273 -0.0909
 7738TIP3    H123171   4.459   2.480   2.509  0.7804 -0.1202  0.5122
 7738TIP3    H223172   4.443   2.360   2.418 -1.2019  1.4029 -1.2434
 7739TIP3   OH223173   2.955   4.780   2.916 -0.5537 -0.1721  0.0258
 7739TIP3    H123174   2.989   4.864   2.886  2.8349 -2.0191 -2.0574
 7739TIP3    H223175   2.864   4.779   2.888 -0.8696  2.9501  0.6588
 7740TIP3   OH223176   0.980   5.486   1.348 -0.4220 -0.6453 -0.6360
 7740TIP3    H123177   1.002   5.442   1.266 -0.4319  1.7593 -2.0208
 7740TIP3    H223178   0.985   5.579   1.327  0.3792  0.0758  2.3353
 7741TIP3   OH223179   0.076   4.418   2.185 -0.3199  0.4263 -0.1025
 7741TIP3    H123180   0.108   4.330   2.204  0.7760  1.0296  0.9273
 7741TIP3    H223181  -0.016   4.416   2.213 -1.4035 -1.3550 -3.2147
 7742TIP3   OH223182   5.173   4.971   2.837  0.2708 -0.3120  0.6685
 7742TIP3    H123183   5.158   4.977   2.743  0.2859 -1.1200  0.6055
 7742TIP3    H223184   5.191   5.060   2.865 -1.4160  0.2098  0.1951
 7743TIP3   OH223185   0.814   0.612   4.162 -0.1960  0.9135  0.2754
 7743TIP3    H123186   0.830   0.569   4.247  1.2299 -0.1228 -0.4668
 7743TIP3    H223187   0.807   0.705   4.183  2.3383  0.9590  1.3335
 7744TIP3   OH223188   2.678   0.881   5.781  0.4352  0.0070 -0.0827
 7744TIP3    H123189   2.626   0.805   5.751 -1.1564  1.2363 -0.5747
 7744TIP3    H223190   2.710   0.855   5.867 -0.7273 -0.9383  0.0911
 7745TIP3   OH223191   7.138   2.953   4.671 -0.4044 -0.0735 -0.5680
 7745TIP3    H123192   7.197   2.900   4.617 -0.0064 -0.2358  0.0141
 7745TIP3    H223193   7.127   2.902   4.751 -1.7983 -0.3088 -0.8953
 7746TIP3   OH223194   6.117   7.378   4.547  0.3887  0.1582  0.8521
 7746TIP3    H123195   6.167   7.304   4.512  0.6423  0.5647  0.3525
 7746TIP3    H223196   6.042   7.338   4.590 -0.5127 -0.2950 -1.0718
 7747TIP3   OH223197   4.965   2.647   2.831  0.0331  0.2441  0.0838
 7747TIP3    H123198   4.969   2.569   2.887  1.8778  0.6339  0.5591
 7747TIP3    H223199   4.880   2.686   2.850 -0.9192 -1.6284 -0.1600
 7748TIP3   OH223200   6.964   4.559   6.230 -0.4433 -0.6009  0.4079
 7748TIP3    H123201   6.986   4.470   6.204 -2.9117 -1.0184 -0.5413
 7748TIP3    H223202   6.939   4.602   6.148 -2.4836 -0.0740  1.2368
 7749TIP3   OH223203   8.020   2.228   4.789  0.8657  0.7277  0.9729
 7749TIP3    H123204   7.989   2.308   4.833  0.6182  0.0917  1.9727
 7749TIP3    H223205   8.097   2.201   4.838  0.4076 -0.1636  1.2207
 7750TIP3   OH223206   0.462   3.205   3.494 -0.2024 -0.4200  0.3542
 7750TIP3    H123207   0.422   3.256   3.424 -0.5814 -1.4327 -0.1907
 7750TIP3    H223208   0.556   3.220   3.485 -0.3843  2.1459  1.7628
 7751TIP3   OH223209   6.557   5.928   0.585  0.2964 -0.3096  0.4413
 7751TIP3    H123210   6.600   5.928   0.499 -1.6527 -0.0198 -0.5886
 7751TIP3    H223211   6.600   5.999   0.633 -0.2534  1.2020 -1.2010
 7752TIP3   OH223212   5.065   4.492   3.651 -0.5853 -0.0586 -0.6210
 7752TIP3    H123213   5.080   4.400   3.629 -0.1268 -0.0190 -0.4833
 7752TIP3    H223214   5.143   4.538   3.619 -0.3501  0.1385  0.2098
 7753TIP3   OH223215   5.269   5.979   3.508  0.4977  0.1088  0.2580
 7753TIP3    H123216   5.284   6.030   3.429 -1.2446 -0.0063 -0.1863
 7753TIP3    H223217   5.351   5.985   3.557  0.8651  1.9805 -0.5270
 7754TIP3   OH223218   5.885   2.801   4.730  0.2834 -0.0855  0.0896
 7754TIP3    H123219   5.964   2.749   4.744  0.1614 -0.4034 -0.3767
 7754TIP3    H223220   5.814   2.738   4.734  0.0639  0.1815  0.3852
 7755TIP3   OH223221   5.653   2.497   0.168 -0.1041 -0.2993  0.1358
 7755TIP3    H123222   5.664   2.405   0.191  0.9364 -0.4222 -0.7530
 7755TIP3    H223223   5.738   2.523   0.132 -0.0032  1.3481  1.4667
 7756TIP3   OH223224   1.248   7.730   0.042 -0.0882  0.0316 -0.1462
 7756TIP3    H123225   1.293   7.647   0.059  0.8987  0.6688  0.4590
 7756TIP3    H223226   1.170   7.705  -0.006 -0.2745 -1.3435  0.8042
 7757TIP3   OH223227   2.399   3.987   1.766  0.4012 -0.1152  0.1159
 7757TIP3    H123228   2.438   3.906   1.731 -1.2333 -0.6662 -0.5067
 7757TIP3    H223229   2.310   3.962   1.789 -0.1637  1.5469 -0.1889
 7758TIP3   OH223230   2.983   6.755   6.428  0.0948  0.3179  0.4022
 7758TIP3    H123231   2.889   6.767   6.415  0.0101 -0.5472  0.1091
 7758TIP3    H223232   3.016   6.842   6.451 -0.4915  1.0160 -1.2011
 7759TIP3   OH223233   1.387   7.507   0.060  0.0027 -0.8049  0.3703
 7759TIP3    H123234   1.353   7.432   0.109  1.8636 -2.3591 -0.5849
 7759TIP3    H223235   1.457   7.471   0.005  0.6513  1.5576 -0.5035
 7760TIP3   OH223236   3.803   3.471   0.718  0.0940  0.2116 -0.1079
 7760TIP3    H123237   3.754   3.524   0.655 -0.7875 -0.6886 -0.2093
 7760TIP3    H223238   3.817   3.528   0.793  1.0429  1.2670 -1.0495
 7761TIP3   OH223239   6.677   0.900   2.766  0.2579  0.2003  0.7987
 7761TIP3    H123240   6.743   0.865   2.706  0.6447  0.2943  1.1604
 7761TIP3    H223241   6.656   0.826   2.824 -1.9345 -0.6644 -0.9340
 7762TIP3   OH223242   4.602   0.115   3.882  0.1843 -0.2507 -0.4126
 7762TIP3    H123243   4.593   0.166   3.801 -0.5590  0.1939 -0.0663
 7762TIP3    H223244   4.523   0.059   3.883  1.3827 -2.0597 -1.2096
 7763TIP3   OH223245   7.752   1.664   2.897 -0.0495  0.1538 -0.2802
 7763TIP3    H123246   7.813   1.738   2.891  0.8753 -0.6181 -0.7770
 7763TIP3    H223247   7.698   1.671   2.819 -0.0599  0.3796 -0.2548
 7764TIP3   OH223248   6.451   2.909   2.023  0.4369  0.0057  0.1328
 7764TIP3    H123249   6.519   2.921   2.089 -0.3833  0.7359  0.8818
 7764TIP3    H223250   6.421   2.819   2.034  0.8569 -0.1272  0.2060
 7765TIP3   OH223251   3.324   6.858   0.937 -0.3645 -0.0066  0.1496
 7765TIP3    H123252   3.284   6.780   0.897 -2.0569  1.4214 -1.0708
 7765TIP3    H223253   3.250   6.913   0.961  0.7965  2.2078 -1.0480
 7766TIP3   OH223254   5.228   0.189   2.830  0.3032 -0.9414  0.3048
 7766TIP3    H123255   5.274   0.190   2.746  0.1425 -1.4601  0.2015
 7766TIP3    H223256   5.263   0.111   2.875  0.8110 -0.3500  0.9651
 7767TIP3   OH223257   4.445   2.297   1.525  0.2525 -0.1716 -0.2582
 7767TIP3    H123258   4.460   2.205   1.505 -1.3464 -0.5997  0.3681
 7767TIP3    H223259   4.530   2.329   1.557  0.5599 -1.7152  0.5742
 7768TIP3   OH223260   7.496   5.797   6.619  0.6106 -0.3329  0.3104
 7768TIP3    H123261   7.588   5.799   6.590  0.6231 -0.3642  0.3488
 7768TIP3    H223262   7.489   5.870   6.681  0.6457 -0.4233  0.4198
 7769TIP3   OH223263   6.795   0.148   5.727  0.4398 -0.2921 -0.0144
 7769TIP3    H123264   6.858   0.148   5.799 -0.8177  0.4398  1.1289
 7769TIP3    H223265   6.828   0.215   5.667  0.5819  0.3170  0.7303
 7770TIP3   OH223266   5.577   0.982   5.005  0.5094 -0.0389  0.4005
 7770TIP3    H123267   5.625   1.021   5.077 -0.0224 -1.1886  1.4171
 7770TIP3    H223268   5.485   1.004   5.023  0.3903 -0.1757 -0.0236
 7771TIP3   OH223269   5.367   2.765   3.763  0.2688 -0.0023  0.2580
 7771TIP3    H123270   5.379   2.781   3.669  1.6692  0.2405  0.4475
 7771TIP3    H223271   5.286   2.716   3.769  0.2619 -0.2008 -1.1096
 7772TIP3   OH223272   5.111   2.526   1.469  0.3866 -0.1679  0.1041
 7772TIP3    H123273   5.140   2.501   1.557 -0.9221 -2.1615  0.0365
 7772TIP3    H223274   5.190   2.556   1.425  1.1303  0.5601  1.8517
 7773TIP3   OH223275   5.617   4.193   0.198 -0.0622 -1.2181 -0.1701
 7773TIP3    H123276   5.632   4.172   0.106  0.3589 -2.3756  0.1388
 7773TIP3    H223277   5.700   4.172   0.241 -0.4760 -1.3524  0.5762
 7774TIP3   OH223278   6.071   0.394   4.237  0.4322  0.4282 -0.0329
 7774TIP3    H123279   6.160   0.408   4.204  0.6736  0.9340  0.7799
 7774TIP3    H223280   6.083   0.385   4.332 -0.5569  2.3422  0.3208
 7775TIP3   OH223281   8.102   3.822   1.488 -0.3537  0.1550  0.8320
 7775TIP3    H123282   8.082   3.843   1.579  0.4222 -0.5803  1.1863
 7775TIP3    H223283   8.186   3.866   1.472 -0.7328  0.6994  0.3120
 7776TIP3   OH223284   2.519   4.196   6.161  0.1854  0.0142 -0.6414
 7776TIP3    H123285   2.435   4.181   6.119 -0.7718  1.2687  0.7204
 7776TIP3    H223286   2.506   4.170   6.252  2.1814 -2.5891 -0.9873
 7777TIP3   OH223287   0.330   7.700   3.921 -0.1632 -0.6393  0.6335
 7777TIP3    H123288   0.355   7.636   3.854 -0.9181  0.5165 -0.8367
 7777TIP3    H223289   0.386   7.775   3.904 -0.5475 -0.2341  1.1359
 7778TIP3   OH223290   7.544   6.484   3.062  0.3347 -0.2266 -0.1681
 7778TIP3    H123291   7.557   6.574   3.034  0.3416  0.2327  1.2465
 7778TIP3    H223292   7.485   6.446   2.997 -0.0590  0.9433 -0.5017
 7779TIP3   OH223293   4.542   1.860   3.404 -0.0979 -0.0713  0.4707
 7779TIP3    H123294   4.521   1.952   3.421  0.8750  0.3566 -0.5310
 7779TIP3    H223295   4.551   1.854   3.309 -0.5231 -1.2951  0.4851
 7780TIP3   OH223296   7.708   2.181   4.177 -0.0091  0.2998  0.3407
 7780TIP3    H123297   7.773   2.245   4.205 -1.1740  1.0900  1.4268
 7780TIP3    H223298   7.706   2.116   4.248 -1.2619  0.9889  0.9927
 7781TIP3   OH223299   3.849   2.723   0.209 -0.1878 -0.0392 -0.2777
 7781TIP3    H123300   3.851   2.702   0.303 -0.5315 -0.6773 -0.4055
 7781TIP3    H223301   3.839   2.818   0.205  2.0491  0.2910  0.3437
 7782TIP3   OH223302   2.468   3.708   0.845  0.5738  0.1934 -0.1212
 7782TIP3    H123303   2.473   3.612   0.839  2.1612  0.2959 -1.5568
 7782TIP3    H223304   2.528   3.738   0.776  0.2617  2.2224  0.4457
 7783TIP3   OH223305   1.051   7.238   4.692  0.1787  0.4762  0.3755
 7783TIP3    H123306   1.056   7.333   4.693 -1.4483  0.5902 -0.0343
 7783TIP3    H223307   1.118   7.211   4.628  0.0699  1.3827 -0.1330
 7784TIP3   OH223308   6.128   7.082   0.262 -0.4372 -0.1534 -0.2511
 7784TIP3    H123309   6.179   7.066   0.341 -1.0640  0.7377  0.3451
 7784TIP3    H223310   6.123   6.996   0.219  0.9198 -0.4067  0.0482
 7785TIP3   OH223311   2.007   0.932   2.001  0.2928  0.6481 -0.5454
 7785TIP3    H123312   1.993   0.925   1.907  2.3610 -1.3629 -0.7815
 7785TIP3    H223313   2.091   0.978   2.009  0.3831  0.3460  0.2975
 7786TIP3   OH223314   1.506   6.749   4.637 -0.6017 -0.3418 -0.5177
 7786TIP3    H123315   1.586   6.732   4.587 -0.2810 -0.6268  0.0845
 7786TIP3    H223316   1.498   6.844   4.637 -0.6203 -0.3361 -1.1252
 7787TIP3   OH223317   4.607   1.935   3.144 -0.1177 -0.6779  0.4579
 7787TIP3    H123318   4.686   1.977   3.113 -0.7416  1.3719  1.4834
 7787TIP3    H223319   4.613   1.845   3.112  2.6389 -0.6110  0.5969
 7788TIP3   OH223320   0.322   4.786   2.264 -0.7474 -0.1105 -0.4762
 7788TIP3    H123321   0.388   4.823   2.204 -0.1238 -0.1953  0.1457
 7788TIP3    H223322   0.372   4.761   2.341 -1.5211 -0.1780  0.0075
 7789TIP3   OH223323   7.407   2.183   0.607 -0.5441  0.0971 -0.3870
 7789TIP3    H123324   7.452   2.190   0.523  0.2484 -0.7124 -0.0485
 7789TIP3    H223325   7.346   2.256   0.608  0.0130  0.5912 -1.3186
 7790TIP3   OH223326   2.949   2.639   1.457 -0.1686 -0.4824 -0.8040
 7790TIP3    H123327   2.903   2.593   1.527  1.6060 -1.4925 -0.2372
 7790TIP3    H223328   2.915   2.728   1.460 -0.1544 -0.5054  1.3406
 7791TIP3   OH223329   1.499   0.630   2.634  0.1218 -0.2661 -0.1959
 7791TIP3    H123330   1.579   0.643   2.684  0.7695 -1.2379 -0.9409
 7791TIP3    H223331   1.445   0.573   2.689 -0.1246  0.4902  0.3605
 7792TIP3   OH223332   2.450   5.510   5.482  0.4072  0.0450  0.1924
 7792TIP3    H123333   2.397   5.515   5.561  0.4149  0.8923  0.1486
 7792TIP3    H223334   2.485   5.421   5.482 -3.0689 -1.4946 -1.1297
 7793TIP3   OH223335   3.316   6.797   6.290  0.0892 -0.4784 -0.4420
 7793TIP3    H123336   3.301   6.767   6.200 -2.4164 -0.0013 -0.2564
 7793TIP3    H223337   3.230   6.794   6.331  0.8727  0.9170  1.4555
 7794TIP3   OH223338   1.097   6.863   4.260 -0.2879  0.2202  0.1416
 7794TIP3    H123339   1.097   6.882   4.167 -0.7350 -0.5355 -0.0245
 7794TIP3    H223340   1.178   6.815   4.275 -0.9231 -0.9800 -0.1587
 7795TIP3   OH223341   6.807   6.925   6.743  0.4406  0.4874  0.2013
 7795TIP3    H123342   6.818   6.874   6.663  2.0821  1.3616 -0.1701
 7795TIP3    H223343   6.715   6.913   6.767 -0.0790  0.1738 -1.7865
 7796TIP3   OH223344   3.064   2.938   4.432  0.3657  0.0654  0.0720
 7796TIP3    H123345   3.039   2.996   4.361 -0.2198 -0.9196 -0.5462
 7796TIP3    H223346   2.995   2.872   4.435  0.2482  0.2100  1.7165
 7797TIP3   OH223347   2.201   2.633   2.226 -0.0737  0.3806  0.3452
 7797TIP3    H123348   2.145   2.641   2.303 -0.2372 -0.3978  0.3107
 7797TIP3    H223349   2.225   2.723   2.204  1.2451  0.5587  2.2528
 7798TIP3   OH223350   7.121   6.056   4.550  0.1916  0.1261  0.2182
 7798TIP3    H123351   7.061   6.032   4.621  0.1006 -0.9255 -0.2069
 7798TIP3    H223352   7.087   6.012   4.473  2.9546 -2.8319  0.4529
 7799TIP3   OH223353   6.767   3.701   1.724 -0.0002  0.2106 -0.6212
 7799TIP3    H123354   6.837   3.645   1.692 -0.3319 -0.9911  0.6188
 7799TIP3    H223355   6.776   3.699   1.820 -1.1463  0.7960 -0.4762
 7800TIP3   OH223356   3.798   0.334   6.648  0.1132  0.4497  0.4507
 7800TIP3    H123357   3.789   0.298   6.736 -1.6118  0.7329  0.4281
 7800TIP3    H223358   3.709   0.332   6.612  1.0295 -1.4806 -2.0212
 7801TIP3   OH223359   5.919   6.965   2.624  0.2477  0.5416  0.0272
 7801TIP3    H123360   6.008   6.933   2.636  0.8572  1.2945 -2.0930
 7801TIP3    H223361   5.900   7.014   2.704  1.8159  0.5578  0.4241
 7802TIP3   OH223362   6.087   2.860   3.504 -0.2287 -0.0874  0.1874
 7802TIP3    H123363   6.099   2.923   3.433  0.8309 -0.2007  0.2472
 7802TIP3    H223364   6.026   2.903   3.564 -0.8480  0.1627 -0.6047
 7803TIP3   OH223365   6.907   5.800   4.635 -0.1689  0.6001 -0.2738
 7803TIP3    H123366   6.948   5.814   4.549  0.6158 -0.5777 -0.1121
 7803TIP3    H223367   6.964   5.737   4.678 -0.8519  0.7795  0.9203
 7804TIP3   OH223368   6.895   5.951   2.401  0.1630  0.4838  0.0064
 7804TIP3    H123369   6.880   6.045   2.391  0.9423  0.7034  0.7496
 7804TIP3    H223370   6.981   5.937   2.363  0.5519  0.2855  0.9383
 7805TIP3   OH223371   2.984   1.358   0.813  0.2161 -0.3126 -0.3338
 7805TIP3    H123372   2.934   1.436   0.788  0.1226 -0.2847 -0.0586
 7805TIP3    H223373   3.074   1.389   0.821  0.3451 -0.4338 -1.1711
 7806TIP3   OH223374   4.997   7.367   1.000  0.1771 -0.6265  0.1123
 7806TIP3    H123375   5.014   7.356   0.906 -1.4465 -1.8629 -0.0747
 7806TIP3    H223376   4.907   7.338   1.012  0.7526 -1.7373  2.2666
 7807TIP3   OH223377   1.031   5.133   3.514  0.3655 -0.5780  0.2455
 7807TIP3    H123378   1.061   5.210   3.564  1.7446 -1.8451  1.4600
 7807TIP3    H223379   1.090   5.130   3.439  0.2825 -0.4164  0.1735
 7808TIP3   OH223380   8.111   4.066   4.140  0.5715 -0.0782 -0.5622
 7808TIP3    H123381   8.120   3.986   4.089 -0.9135 -0.8651  0.3088
 7808TIP3    H223382   8.037   4.112   4.100  0.8698  0.4427 -0.5276
 7809TIP3   OH223383   3.280   3.897   0.860  0.2319 -0.3593  0.7071
 7809TIP3    H123384   3.297   3.803   0.868  0.3623 -0.3764  0.2972
 7809TIP3    H223385   3.200   3.912   0.910 -0.1997 -0.8215  0.1635
 7810TIP3   OH223386   0.818   6.474   4.248 -0.2142  0.7362  0.0163
 7810TIP3    H123387   0.882   6.416   4.207 -1.2496 -1.5156  1.3818
 7810TIP3    H223388   0.766   6.507   4.175 -0.6739 -1.4652 -0.7313
 7811TIP3   OH223389   4.290   4.722   5.478 -0.2060 -0.2068 -0.3265
 7811TIP3    H123390   4.285   4.683   5.390 -0.1134  0.5052 -0.6508
 7811TIP3    H223391   4.314   4.813   5.463  1.9030 -0.5672  0.5439
 7812TIP3   OH223392   0.545   6.478   3.066  0.1545  0.3645 -0.7682
 7812TIP3    H123393   0.617   6.509   3.010  1.4984 -0.1973  0.5763
 7812TIP3    H223394   0.571   6.505   3.154 -0.1682 -1.7752  0.0398
 7813TIP3   OH223395   1.251   5.672   2.244 -0.0576 -1.0445 -0.0584
 7813TIP3    H123396   1.288   5.692   2.159 -0.2876  0.9813  0.2806
 7813TIP3    H223397   1.190   5.600   2.227 -0.6882 -0.1645 -1.7654
 7814TIP3   OH223398   4.384   1.855   5.041  0.0810 -0.6452  0.0950
 7814TIP3    H123399   4.347   1.800   5.110 -2.8510 -0.7314 -1.3743
 7814TIP3    H223400   4.319   1.852   4.971  2.7220 -0.2922 -2.5855
 7815TIP3   OH223401   3.738   7.137   0.421 -0.2805 -0.2323 -0.3588
 7815TIP3    H123402   3.686   7.056   0.426  1.4512 -1.4142 -0.4792
 7815TIP3    H223403   3.822   7.109   0.384  0.6987  1.4572  0.4779
 7816TIP3   OH223404   1.388   0.650   1.372  0.0239  0.0227  0.0795
 7816TIP3    H123405   1.437   0.719   1.417 -0.3772  0.3898 -0.0328
 7816TIP3    H223406   1.441   0.571   1.383  1.6840  0.7869 -1.7574
 7817TIP3   OH223407   7.033   3.495   3.894 -0.5715 -0.5564 -0.4261
 7817TIP3    H123408   7.067   3.438   3.824 -0.0515 -0.9249  0.1161
 7817TIP3    H223409   6.948   3.525   3.861 -1.0404 -1.9637 -0.5550
 7818TIP3   OH223410   5.883   5.338   0.081 -0.1195  0.3771 -0.4161
 7818TIP3    H123411   5.896   5.322   0.175 -0.5431  1.6214 -0.1205
 7818TIP3    H223412   5.808   5.283   0.058 -0.2418  0.3312  0.0714
 7819TIP3   OH223413   2.627   2.344   0.908  0.2640 -0.1129  0.2161
 7819TIP3    H123414   2.707   2.355   0.960 -0.0403  1.4314  0.4020
 7819TIP3    H223415   2.651   2.375   0.821  0.0417 -0.2301  0.1144
 7820TIP3   OH223416   2.213   1.981   4.288 -0.0947 -0.1924  0.7918
 7820TIP3    H123417   2.274   1.941   4.226  0.2684  2.0501 -0.4170
 7820TIP3    H223418   2.198   1.914   4.354  2.9111 -1.1894  0.6050
 7821TIP3   OH223419   5.370   6.458   0.751  0.2647  0.0917 -0.0288
 7821TIP3    H123420   5.336   6.387   0.696  1.0715 -0.8079  0.6143
 7821TIP3    H223421   5.296   6.482   0.807  0.3848 -1.1939  0.7042
 7822TIP3   OH223422   1.612   6.196   2.925 -0.2771 -0.1880 -0.3907
 7822TIP3    H123423   1.699   6.159   2.942 -0.3648 -0.1199  0.2217
 7822TIP3    H223424   1.558   6.120   2.903 -0.2095 -0.3088 -0.1528
 7823TIP3   OH223425   2.189   2.445   3.247 -0.0549 -0.2505  0.0708
 7823TIP3    H123426   2.158   2.355   3.238 -0.4610 -0.0042 -1.1587
 7823TIP3    H223427   2.278   2.437   3.283 -0.7830 -1.0405  1.7977
 7824TIP3   OH223428   8.219   0.914   2.909 -0.3442 -0.3932 -0.1373
 7824TIP3    H123429   8.199   0.899   3.001 -0.8462  1.3482  0.0800
 7824TIP3    H223430   8.282   0.846   2.886 -1.0315 -1.5242  1.1798
 7825TIP3   OH223431   7.923   4.995   2.983 -0.0446 -0.0352 -0.2226
 7825TIP3    H123432   7.974   5.074   3.001 -0.1250 -0.3465  1.5458
 7825TIP3    H223433   7.978   4.945   2.923  0.8439  0.5344  0.0848
 7826TIP3   OH223434   7.018   2.866   3.338 -0.1902 -0.8439  0.3319
 7826TIP3    H123435   7.011   2.776   3.370 -1.0467 -0.5047  1.1462
 7826TIP3    H223436   6.927   2.896   3.330  0.0727 -0.1847 -0.3263
 7827TIP3   OH223437   4.544   3.808   1.512  0.5284  0.3531  0.3082
 7827TIP3    H123438   4.597   3.808   1.593  0.5456  0.2963  0.2964
 7827TIP3    H223439   4.518   3.717   1.500  0.6649  0.3333  0.1578
 7828TIP3   OH223440   0.236   6.870   6.051 -0.3462 -0.2423  0.2240
 7828TIP3    H123441   0.208   6.795   5.998 -1.5423  0.8460 -0.7764
 7828TIP3    H223442   0.290   6.923   5.992  0.6075 -0.3654  0.9607
 7829TIP3   OH223443   1.102   3.356   2.511  0.2991 -0.0147 -0.3301
 7829TIP3    H123444   1.181   3.306   2.490 -0.0961 -0.8937  0.2201
 7829TIP3    H223445   1.030   3.302   2.478 -0.1327  0.2208  0.2163
 7830TIP3   OH223446   3.371   7.430   3.530 -0.4523 -0.2036  0.1346
 7830TIP3    H123447   3.331   7.459   3.612 -0.7753 -0.0830 -0.0663
 7830TIP3    H223448   3.444   7.374   3.558  0.7076  1.4192  0.5637
 7831TIP3   OH223449   6.972   4.830   6.514  0.7917  0.0431  0.4143
 7831TIP3    H123450   7.015   4.779   6.583  0.8435 -1.5986 -0.7781
 7831TIP3    H223451   6.879   4.829   6.538  0.6867 -1.3157 -0.0184
 7832TIP3   OH223452   3.362   2.831   6.660  0.2737 -0.4344  0.1155
 7832TIP3    H123453   3.289   2.836   6.599 -0.3763 -2.5903  0.6205
 7832TIP3    H223454   3.420   2.765   6.623  1.1780  0.1127  0.5256
 7833TIP3   OH223455   6.150   6.375   6.064 -0.1777  0.1182  0.2160
 7833TIP3    H123456   6.228   6.425   6.041  0.0955  0.6996  2.2323
 7833TIP3    H223457   6.178   6.320   6.137 -1.1679 -1.1048 -0.2926
 7834TIP3   OH223458   0.157   4.057   1.016  0.1985  0.1688  0.0317
 7834TIP3    H123459   0.173   4.088   0.926  0.3410  1.8897  0.6132
 7834TIP3    H223460   0.179   4.132   1.071 -1.9785 -0.0852  1.3843
 7835TIP3   OH223461   7.546   0.384   5.060 -0.5138  0.0099  0.7259
 7835TIP3    H123462   7.540   0.438   5.139  1.6445 -0.2476  1.1146
 7835TIP3    H223463   7.459   0.391   5.021 -1.1728  1.4187  2.2807
 7836TIP3   OH223464   1.993   5.837   3.304  0.1135 -0.5804 -0.0103
 7836TIP3    H123465   1.911   5.864   3.263 -1.6765 -1.6419  2.6288
 7836TIP3    H223466   2.058   5.899   3.271 -1.4919 -0.2789 -2.9294
 7837TIP3   OH223467   6.946   0.139   3.457  0.1366  0.4549 -0.5626
 7837TIP3    H123468   7.038   0.147   3.483  0.0629  1.1803 -0.5051
 7837TIP3    H223469   6.916   0.059   3.501  1.0302 -0.4145 -1.4852
 7838TIP3   OH223470   2.011   3.490   3.133 -0.7423  0.2114 -0.4157
 7838TIP3    H123471   2.096   3.451   3.110  0.3230  1.9954  0.3250
 7838TIP3    H223472   1.969   3.424   3.189  0.9704  0.0614  0.7722
 7839TIP3   OH223473   4.861   1.831   4.988  0.4127  0.5113 -0.3781
 7839TIP3    H123474   4.885   1.747   4.950 -0.3316 -0.2459  0.7420
 7839TIP3    H223475   4.787   1.810   5.047 -1.5376  2.3363 -2.0162
 7840TIP3   OH223476   8.312   2.942   1.128 -0.2068 -0.9799 -0.0296
 7840TIP3    H123477   8.234   2.943   1.072 -0.4695 -0.1818  0.3375
 7840TIP3    H223478   8.279   2.918   1.215  0.3312 -3.2025 -0.3610
 7841TIP3   OH223479   5.766   2.812   4.127  0.3039  0.0451 -0.7933
 7841TIP3    H123480   5.676   2.800   4.097  0.3031 -0.7786 -0.4967
 7841TIP3    H223481   5.759   2.872   4.201 -0.3172 -1.8333  0.7531
 7842TIP3   OH223482   4.043   1.839   1.619  0.1704  0.2787  0.0373
 7842TIP3    H123483   4.019   1.883   1.700 -1.7597  1.4405 -1.0709
 7842TIP3    H223484   4.096   1.902   1.571  0.5094 -0.0410 -0.0165
 7843TIP3   OH223485   6.563   7.456   4.709 -0.5895  0.1583  0.1801
 7843TIP3    H123486   6.615   7.522   4.664 -1.4922  1.6601  1.2551
 7843TIP3    H223487   6.475   7.464   4.672 -1.3286  1.3773  2.0935
 7844TIP3   OH223488   7.125   3.129   0.075 -0.4015  0.4262  1.1254
 7844TIP3    H123489   7.040   3.143   0.115 -0.8823  0.9867 -0.0552
 7844TIP3    H223490   7.118   3.168  -0.012  0.8541 -0.0759  0.7718
 7845TIP3   OH223491   0.849   0.465   1.823  0.1887 -0.0766 -0.0719
 7845TIP3    H123492   0.917   0.418   1.776  0.1261 -0.0626 -0.1760
 7845TIP3    H223493   0.799   0.511   1.755  0.2804  0.1801  0.0342
 7846TIP3   OH223494   3.120   5.511   3.414  0.0048 -0.4004  0.2458
 7846TIP3    H123495   3.041   5.561   3.435 -0.8666 -0.8001 -1.8615
 7846TIP3    H223496   3.089   5.439   3.358  1.6724 -1.4251  0.5624
 7847TIP3   OH223497   7.467   6.195   4.466  0.5960  0.1545  0.6573
 7847TIP3    H123498   7.547   6.227   4.508  1.3332 -0.3427 -0.3372
 7847TIP3    H223499   7.446   6.114   4.514  1.4161 -0.3941  0.1033
 7848TIP3   OH223500   3.505   6.332   5.502 -0.0018 -0.4945 -0.3433
 7848TIP3    H123501   3.576   6.277   5.536 -0.4871 -0.3341  1.0196
 7848TIP3    H223502   3.501   6.312   5.409 -0.2493 -2.8937  0.1249
 7849TIP3   OH223503   1.491   5.276   1.542  0.0622 -0.1075 -0.9896
 7849TIP3    H123504   1.466   5.192   1.582  0.8139  0.2064  0.2120
 7849TIP3    H223505   1.583   5.263   1.516 -0.2995 -0.1717 -2.3091
 7850TIP3   OH223506   5.134   5.860   0.194 -0.2742 -0.2240 -0.4117
 7850TIP3    H123507   5.054   5.913   0.187 -0.2865 -0.2573 -0.5238
 7850TIP3    H223508   5.105   5.771   0.177 -0.7585 -0.6871  2.4217
 7851TIP3   OH223509   5.331   0.810   4.363  0.2211  0.3660  0.2454
 7851TIP3    H123510   5.418   0.774   4.347  0.1390  0.0259  0.5577
 7851TIP3    H223511   5.344   0.882   4.424  0.5108  1.5257 -1.1154
 7852TIP3   OH223512   7.832   5.531   0.914 -0.1774 -0.3107 -0.1380
 7852TIP3    H123513   7.806   5.573   0.832  0.6113 -1.7595 -1.1671
 7852TIP3    H223514   7.898   5.590   0.951 -0.8221  0.5538 -0.3204
 7853TIP3   OH223515   1.041   7.631   3.584 -0.5165  0.4763 -0.5701
 7853TIP3    H123516   0.961   7.641   3.636 -0.3036  1.5523 -0.4204
 7853TIP3    H223517   1.014   7.652   3.494 -0.5613  0.0817 -0.6514
 7854TIP3   OH223518   7.533   1.795   0.530  0.4352  0.1415 -0.0835
 7854TIP3    H123519   7.600   1.837   0.476  0.6980  0.1718  0.2596
 7854TIP3    H223520   7.558   1.817   0.620  0.2267 -0.2324  0.0694
 7855TIP3   OH223521   6.549   1.699   2.034 -0.2542 -0.1783  0.4431
 7855TIP3    H123522   6.492   1.673   1.962  0.0591  0.0864  0.1028
 7855TIP3    H223523   6.534   1.631   2.101 -1.1682  0.0327  0.4707
 7856TIP3   OH223524   1.832   5.306   2.218  0.6449 -0.4264 -0.2882
 7856TIP3    H123525   1.838   5.232   2.157 -1.3937 -2.2717  1.5940
 7856TIP3    H223526   1.856   5.269   2.303  0.0492  1.2037  0.6258
 7857TIP3   OH223527   4.707   5.579   2.291  0.1285 -0.0732 -0.0428
 7857TIP3    H123528   4.767   5.643   2.253 -0.9887  0.0906 -1.6250
 7857TIP3    H223529   4.639   5.567   2.225 -0.8311 -1.3178  1.1020
 7858TIP3   OH223530   3.982   2.204   3.124  0.0858 -0.0786 -0.5188
 7858TIP3    H123531   3.908   2.148   3.148  0.7018 -1.2295 -1.2646
 7858TIP3    H223532   4.059   2.157   3.155  0.6578  0.0447 -1.7064
 7859TIP3   OH223533   5.967   5.389   3.051 -0.0740  0.0796 -0.0156
 7859TIP3    H123534   5.884   5.404   3.006 -0.9578 -1.2720  1.0801
 7859TIP3    H223535   5.955   5.305   3.095  1.4645  0.4173  1.1187
 7860TIP3   OH223536   6.339   5.110   2.210  0.2064  0.3729 -0.3472
 7860TIP3    H123537   6.308   5.149   2.291 -2.8091 -2.6801  0.2315
 7860TIP3    H223538   6.322   5.176   2.143  0.5530  2.0559  1.1441
 7861TIP3   OH223539   6.547   4.652   6.559 -0.7100 -1.0932  0.2957
 7861TIP3    H123540   6.605   4.715   6.602 -2.5657  1.9915 -1.3257
 7861TIP3    H223541   6.598   4.619   6.485 -0.6211  0.9157 -0.6053
 7862TIP3   OH223542   3.494   7.665   5.752  0.6745 -0.6387 -0.1714
 7862TIP3    H123543   3.400   7.678   5.741  0.4656 -1.8743 -0.0362
 7862TIP3    H223544   3.534   7.744   5.715 -0.3844 -0.4347 -0.9303
 7863TIP3   OH223545   1.757   7.384   5.118  0.4872 -0.1645  0.5126
 7863TIP3    H123546   1.746   7.357   5.209 -3.2276 -2.2819 -0.3712
 7863TIP3    H223547   1.670   7.411   5.090  0.9095 -1.8628 -3.0661
 7864TIP3   OH223548   4.788   7.712   1.772  0.2218 -0.4044 -0.0249
 7864TIP3    H123549   4.866   7.713   1.827 -0.4077  2.3196  0.9586
 7864TIP3    H223550   4.794   7.792   1.720 -1.2954 -0.7922 -0.8641
 7865TIP3   OH223551   6.835   7.300   1.982 -0.1300  0.4207  0.2361
 7865TIP3    H123552   6.893   7.321   1.908  0.0923  0.5425  0.4422
 7865TIP3    H223553   6.747   7.312   1.948 -0.0789 -0.9374 -0.4423
 7866TIP3   OH223554   4.330   2.696   5.654  0.3035 -0.3376  0.4604
 7866TIP3    H123555   4.414   2.697   5.608  1.1134 -1.9272  1.7732
 7866TIP3    H223556   4.350   2.729   5.742 -0.2310 -1.5175  1.0525
 7867TIP3   OH223557   5.435   3.573   1.513  0.0463 -0.4371  0.0876
 7867TIP3    H123558   5.501   3.639   1.534 -0.6700  0.7813 -1.3043
 7867TIP3    H223559   5.415   3.532   1.597  0.6516  0.9840  0.9638
 7868TIP3   OH223560   3.144   6.665   4.588  0.4124  0.3793 -0.7822
 7868TIP3    H123561   3.206   6.666   4.662  0.0364  2.4073 -0.4356
 7868TIP3    H223562   3.198   6.639   4.513  0.6952 -2.2736  0.2154
 7869TIP3   OH223563   6.803   0.366   5.546  0.2087 -0.2080 -0.1603
 7869TIP3    H123564   6.748   0.414   5.485 -0.2427  0.3455  0.6579
 7869TIP3    H223565   6.876   0.426   5.565 -0.1044 -0.0240  0.4951
 7870TIP3   OH223566   0.049   1.575   5.430  0.0428  0.2281  0.0272
 7870TIP3    H123567   0.040   1.486   5.464  2.5001 -0.9969 -2.1381
 7870TIP3    H223568   0.142   1.596   5.443 -0.7721  3.2353  1.9861
 7871TIP3   OH223569   2.044   7.034   1.057  0.6817 -0.6669  0.3611
 7871TIP3    H123570   1.955   7.034   1.092 -0.1687  3.5161 -1.2044
 7871TIP3    H223571   2.035   6.999   0.969  0.2794  0.7591 -0.1974
 7872TIP3   OH223572   1.521   6.851   5.253 -0.3114 -0.2921 -0.2325
 7872TIP3    H123573   1.495   6.942   5.244  1.3410  0.0752 -2.2111
 7872TIP3    H223574   1.514   6.815   5.164  0.1609 -1.7678  0.2870
 7873TIP3   OH223575   7.547   5.030   1.474 -0.7993 -0.3067 -0.2277
 7873TIP3    H123576   7.518   4.960   1.533 -0.2777 -0.1290  0.2452
 7873TIP3    H223577   7.517   5.111   1.515  1.0045 -0.0513  0.7003
 7874TIP3   OH223578   0.270   7.501   1.401 -0.5994 -0.1175  0.0036
 7874TIP3    H123579   0.273   7.521   1.494 -0.3622 -1.3347  0.2727
 7874TIP3    H223580   0.217   7.571   1.363 -2.1433 -0.5424  1.2883
 7875TIP3   OH223581   2.902   4.826   6.558 -0.2528 -0.2293  0.0772
 7875TIP3    H123582   2.884   4.777   6.478 -1.5396 -0.5944  0.5643
 7875TIP3    H223583   2.828   4.886   6.567 -0.5954 -0.8203  1.4501
 7876TIP3   OH223584   6.286   2.243   3.086 -0.6099 -0.5302  0.0624
 7876TIP3    H123585   6.263   2.248   2.993 -1.2214 -1.1576  0.1754
 7876TIP3    H223586   6.281   2.150   3.107  1.1771 -0.5987  0.3256
 7877TIP3   OH223587   0.899   1.759   5.547  0.6203 -0.0120 -0.2113
 7877TIP3    H123588   0.980   1.803   5.523  0.3237 -0.3953 -2.0883
 7877TIP3    H223589   0.926   1.685   5.601  1.3938  0.6267  0.2857
 7878TIP3   OH223590   4.832   0.124   4.907  0.4702  0.1259 -0.5014
 7878TIP3    H123591   4.810   0.160   4.821 -1.1169  1.7440  0.5066
 7878TIP3    H223592   4.856   0.200   4.960 -3.4716  0.0076  1.8759
 7879TIP3   OH223593   8.150   0.644   1.906 -0.4517 -0.1302  0.1393
 7879TIP3    H123594   8.245   0.655   1.913 -0.3251 -0.3036 -1.1668
 7879TIP3    H223595   8.116   0.694   1.980  0.6514 -0.0412  0.6160
 7880TIP3   OH223596   2.085   7.809   2.783 -0.1326  0.2790 -0.2294
 7880TIP3    H123597   2.125   7.747   2.844 -1.5517  2.2693  3.0264
 7880TIP3    H223598   2.002   7.768   2.758  0.8820 -0.9713 -1.7029
 7881TIP3   OH223599   3.604   2.834   1.353 -0.4163 -0.0628 -0.0671
 7881TIP3    H123600   3.625   2.741   1.360 -2.5196 -0.4720  2.5445
 7881TIP3    H223601   3.550   2.841   1.274  0.8986 -0.7545 -1.0636
 7882TIP3   OH223602   2.103   2.926   4.486 -0.8423  0.2681  0.2706
 7882TIP3    H123603   2.045   2.919   4.562 -0.4721  1.5190  0.6984
 7882TIP3    H223604   2.139   2.838   4.475  0.3737  0.3885  2.5814
 7883TIP3   OH223605   3.367   7.054   2.489  0.1847  0.7295 -0.2842
 7883TIP3    H123606   3.358   7.098   2.404 -1.7081 -0.2639 -0.6450
 7883TIP3    H223607   3.415   7.116   2.543 -1.0774  2.6112 -1.2275
 7884TIP3   OH223608   6.577   7.783   1.711 -0.5522 -0.4644  0.0446
 7884TIP3    H123609   6.645   7.849   1.702  0.2248 -1.3007 -0.3894
 7884TIP3    H223610   6.594   7.742   1.796  0.3573 -1.6035 -0.6627
 7885TIP3   OH223611   7.532   6.037   2.641  0.2376  0.4575 -0.5380
 7885TIP3    H123612   7.484   6.020   2.722  2.0235  1.2000  0.7191
 7885TIP3    H223613   7.469   6.084   2.586 -0.4481  1.6341  1.1518
 7886TIP3   OH223614   0.855   3.272   3.871 -0.0907  1.0082  0.1284
 7886TIP3    H123615   0.797   3.334   3.827  0.2033  0.9411 -0.3590
 7886TIP3    H223616   0.899   3.226   3.800  0.7906  1.2731  0.4884
 7887TIP3   OH223617   7.637   1.823   3.551 -0.1766  0.2321  0.0050
 7887TIP3    H123618   7.665   1.794   3.464 -1.3266  1.7521 -0.9092
 7887TIP3    H223619   7.683   1.905   3.565 -0.2602  0.1634  0.6873
 7888TIP3   OH223620   1.918   0.465   4.863 -0.6785  0.5636 -0.2612
 7888TIP3    H123621   1.941   0.438   4.952 -2.5287 -0.0512  0.0747
 7888TIP3    H223622   1.841   0.413   4.841 -0.7678  1.3246 -1.9118
 7889TIP3   OH223623   2.647   2.155   0.628 -0.3646  0.0793 -0.5054
 7889TIP3    H123624   2.619   2.101   0.701  0.7163  0.1264 -0.0403
 7889TIP3    H223625   2.670   2.092   0.559 -0.8397  0.0224 -0.6222
 7890TIP3   OH223626   4.204   4.330   0.734 -0.5395  0.3811  0.6887
 7890TIP3    H123627   4.293   4.309   0.762 -0.6115  0.6856  1.1654
 7890TIP3    H223628   4.208   4.329   0.639  0.0694  0.7605  0.7016
 7891TIP3   OH223629   5.584   0.900   2.377 -0.1282 -0.1999 -0.3657
 7891TIP3    H123630   5.641   0.823   2.370 -1.2623 -1.1091  0.0275
 7891TIP3    H223631   5.642   0.970   2.407  0.6137 -1.3366  1.0067
 7892TIP3   OH223632   8.010   6.267   6.685  0.4784 -0.6252 -0.0123
 7892TIP3    H123633   8.029   6.239   6.775  0.4610  2.6160  1.1292
 7892TIP3    H223634   7.914   6.270   6.682  0.4965  0.2914  0.2299
 7893TIP3   OH223635   5.378   0.715   4.718  0.3058  0.5527 -0.1097
 7893TIP3    H123636   5.313   0.666   4.768 -0.2701  0.5597 -0.8325
 7893TIP3    H223637   5.462   0.680   4.747 -0.1106 -1.4442 -1.1615
 7894TIP3   OH223638   5.056   3.865   6.638  0.0974  0.4914  0.5841
 7894TIP3    H123639   5.039   3.894   6.548  3.3836 -0.7348 -0.5804
 7894TIP3    H223640   4.992   3.795   6.653 -0.5619  0.7757 -0.7562
 7895TIP3   OH223641   3.796   1.467   2.128  0.0315  0.4714 -0.2651
 7895TIP3    H123642   3.754   1.464   2.042  1.3718  1.1153 -0.9810
 7895TIP3    H223643   3.729   1.500   2.187 -1.0452 -0.3923 -0.9706
 7896TIP3   OH223644   7.100   6.391   2.965  0.6131 -0.3886 -0.3452
 7896TIP3    H123645   7.051   6.414   2.886 -0.8469 -0.2517  0.5452
 7896TIP3    H223646   7.175   6.449   2.966  1.0962 -0.9433 -2.0370
 7897TIP3   OH223647   1.073   1.383  -0.009 -0.4744 -0.0375 -0.4406
 7897TIP3    H123648   0.979   1.401   0.004 -0.4876  0.2208 -0.8433
 7897TIP3    H223649   1.115   1.412   0.071 -0.9964 -2.4260  0.7832
 7898TIP3   OH223650   2.372   1.786   4.122 -0.1605 -0.3764 -0.0127
 7898TIP3    H123651   2.398   1.708   4.072 -1.6434 -0.6104 -0.4610
 7898TIP3    H223652   2.414   1.774   4.207  2.7249  0.2142 -1.2609
 7899TIP3   OH223653   5.720   7.511   5.221 -0.3777  0.1328 -0.5276
 7899TIP3    H123654   5.738   7.602   5.198  1.5120 -0.2492 -0.7246
 7899TIP3    H223655   5.690   7.471   5.140 -1.4865  0.6117 -0.3770
 7900TIP3   OH223656   2.000   4.251   4.022  0.2861  0.1030  0.2395
 7900TIP3    H123657   1.907   4.271   4.031  0.0097 -0.8615 -0.3477
 7900TIP3    H223658   2.003   4.161   3.989  1.4533 -0.3072  1.3721
 7901TIP3   OH223659   3.412   6.326   2.773 -0.4974  0.2277  0.4438
 7901TIP3    H123660   3.350   6.285   2.833 -0.3873  0.2972  0.6062
 7901TIP3    H223661   3.491   6.272   2.781 -1.0423 -0.8113 -0.9411
 7902TIP3   OH223662   1.104   5.510   3.964  0.3566 -0.4306 -1.0719
 7902TIP3    H123663   1.152   5.434   3.932  2.3414  0.6729 -0.9110
 7902TIP3    H223664   1.152   5.585   3.928  0.5846  0.8002  1.5233
 7903TIP3   OH223665   4.231   1.021   3.429 -0.1839 -0.7691 -0.1194
 7903TIP3    H123666   4.142   1.002   3.400  0.4166 -1.7889 -1.4299
 7903TIP3    H223667   4.283   0.947   3.397  1.6069  1.1031 -1.9109
 7904TIP3   OH223668   7.922   4.293   5.309  0.1232  0.8103  0.0679
 7904TIP3    H123669   7.841   4.335   5.281 -0.2981 -0.2056 -0.2930
 7904TIP3    H223670   7.922   4.209   5.264  1.4789  0.8676 -0.0781
 7905TIP3   OH223671   3.147   2.001   4.053  0.1971  0.4084  0.0093
 7905TIP3    H123672   3.171   2.093   4.041  0.6702  0.4218  0.9759
 7905TIP3    H223673   3.054   1.997   4.031  0.5376  0.7902 -1.6608
 7906TIP3   OH223674   4.496   3.009   2.728 -0.3759 -0.4652 -0.8000
 7906TIP3    H123675   4.579   2.977   2.764 -0.5751 -0.1394 -0.0101
 7906TIP3    H223676   4.436   3.008   2.803 -0.7222  0.5340 -1.0413
 7907TIP3   OH223677   6.339   0.256   1.462  0.5441  0.5365 -0.5671
 7907TIP3    H123678   6.433   0.256   1.479  0.2620  1.1870  1.1607
 7907TIP3    H223679   6.300   0.286   1.544 -1.2633 -1.0433 -0.8033
 7908TIP3   OH223680   2.493   2.324   0.512 -0.0882  0.3450 -0.8193
 7908TIP3    H123681   2.566   2.266   0.534 -1.1735 -1.8147 -2.5940
 7908TIP3    H223682   2.462   2.356   0.596  1.3906 -0.5769  0.1312
 7909TIP3   OH223683   8.188   1.163   6.371  0.3334 -0.7190 -0.0448
 7909TIP3    H123684   8.157   1.076   6.393  0.6064 -0.9066 -0.3953
 7909TIP3    H223685   8.153   1.219   6.441 -3.0232 -0.4393 -1.7688
 7910TIP3   OH223686   3.173   5.333   6.543  0.7438  0.2432  0.1210
 7910TIP3    H123687   3.255   5.289   6.565 -0.2963 -1.1569  1.3610
 7910TIP3    H223688   3.123   5.270   6.491  0.3307  0.9863 -0.4188
 7911TIP3   OH223689   6.911   4.693   1.967 -0.0627 -0.6114 -0.5202
 7911TIP3    H123690   6.990   4.663   1.922  1.1275 -0.9521  1.6286
 7911TIP3    H223691   6.924   4.787   1.979 -0.1950 -0.5864 -0.5782
 7912TIP3   OH223692   2.632   6.033   5.541  0.2489  0.1693  0.1375
 7912TIP3    H123693   2.653   6.086   5.464  0.4862 -0.1130  0.0055
 7912TIP3    H223694   2.607   5.948   5.505 -1.0440  0.4510  0.2879
 7913TIP3   OH223695   0.609   5.596   6.536  0.6575 -0.2264 -0.6661
 7913TIP3    H123696   0.551   5.555   6.600  0.0061 -2.0681 -2.3629
 7913TIP3    H223697   0.579   5.687   6.532  0.2897 -0.2259  1.1149
 7914TIP3   OH223698   4.083   3.727   5.409  0.4816  0.1650  0.2660
 7914TIP3    H123699   4.022   3.664   5.371 -1.4764  1.3659  1.2708
 7914TIP3    H223700   4.136   3.676   5.470  1.3033 -1.1120 -1.4325
 7915TIP3   OH223701   0.106   4.796   1.156  0.2639  0.0759  0.1417
 7915TIP3    H123702   0.163   4.873   1.154  1.4294 -0.7534 -2.4393
 7915TIP3    H223703   0.135   4.747   1.234  2.3265  0.2669 -0.4401
 7916TIP3   OH223704   7.713   4.371   2.960 -0.1935  0.3188 -0.0614
 7916TIP3    H123705   7.640   4.358   2.899 -3.1914  0.5443  3.1439
 7916TIP3    H223706   7.784   4.317   2.925 -2.6876 -1.8955 -2.1408
 7917TIP3   OH223707   6.976   4.530   2.777  0.5687  0.3151 -0.6340
 7917TIP3    H123708   6.984   4.619   2.811  2.7096 -0.0122 -0.1026
 7917TIP3    H223709   7.063   4.509   2.743  0.3586 -1.8573 -0.0198
 7918TIP3   OH223710   0.315   1.029   4.775  0.1723 -0.1034  0.5033
 7918TIP3    H123711   0.273   0.989   4.700  1.7665 -0.3595 -0.2980
 7918TIP3    H223712   0.252   1.020   4.846 -1.7858  1.0217 -1.0015
 7919TIP3   OH223713   2.988   3.870   2.089  1.2030  0.2047  0.7528
 7919TIP3    H123714   3.042   3.799   2.123  1.5313  0.6362  1.1642
 7919TIP3    H223715   3.035   3.950   2.116  0.5206  0.5824  0.8514
 7920TIP3   OH223716   7.818   7.029   2.369  0.5297 -0.6397 -0.6214
 7920TIP3    H123717   7.910   7.001   2.363  0.9378  0.5497 -0.2787
 7920TIP3    H223718   7.819   7.119   2.337 -0.4721 -0.5100 -0.3168
 7921TIP3   OH223719   6.785   4.981   1.786 -0.0780 -0.5693 -0.0859
 7921TIP3    H123720   6.749   5.019   1.866  0.1271  0.0932 -0.3070
 7921TIP3    H223721   6.843   5.048   1.751  0.1123 -0.9963 -0.6016
 7922TIP3   OH223722   6.677   3.335   3.231 -0.2314 -0.0341 -0.1135
 7922TIP3    H123723   6.750   3.393   3.208 -0.3170  0.1931  0.1919
 7922TIP3    H223724   6.666   3.346   3.325  0.1561 -1.0064  0.0598
 7923TIP3   OH223725   1.373   7.303   1.570 -0.4514 -0.7342  0.4938
 7923TIP3    H123726   1.316   7.368   1.529 -0.7088 -2.3837 -1.9530
 7923TIP3    H223727   1.457   7.346   1.579 -0.9688  0.3669  0.1725
 7924TIP3   OH223728   8.175   1.177   1.190  0.0442  0.3993 -0.2124
 7924TIP3    H123729   8.247   1.212   1.243  0.0193  0.4893 -0.2397
 7924TIP3    H223730   8.204   1.088   1.167  0.2051  0.4833 -0.3348
 7925TIP3   OH223731   5.110   6.341   3.687 -0.0922  0.8708 -0.0207
 7925TIP3    H123732   5.018   6.318   3.701 -0.3694  0.1884 -2.5330
 7925TIP3    H223733   5.142   6.275   3.625  2.1165  1.0990  0.7895
 7926TIP3   OH223734   3.941   7.583   3.981  0.0635  0.6836  0.4012
 7926TIP3    H123735   3.962   7.628   4.062 -0.9480  1.6394  0.1581
 7926TIP3    H223736   3.871   7.635   3.942  0.1848 -0.0351 -0.8397
 7927TIP3   OH223737   1.629   6.645   4.297  0.0647 -0.2597  0.2163
 7927TIP3    H123738   1.703   6.648   4.236  0.2094  1.1413  0.4143
 7927TIP3    H223739   1.660   6.691   4.375 -1.2699  1.1436 -0.0268
 7928TIP3   OH223740   2.359   2.201   5.765  0.2653  0.0094 -0.3142
 7928TIP3    H123741   2.329   2.269   5.705 -0.1528  0.2780  0.1912
 7928TIP3    H223742   2.304   2.211   5.843  0.8048 -0.3291  0.1226
 7929TIP3   OH223743   0.758   0.128   1.089 -0.2952  0.1954  0.2314
 7929TIP3    H123744   0.676   0.125   1.040 -0.0593 -1.4982 -0.0966
 7929TIP3    H223745   0.793   0.216   1.071 -1.2222  0.3467 -0.9406
 7930TIP3   OH223746   3.556   1.508   2.291  0.0455  0.3617  0.4272
 7930TIP3    H123747   3.501   1.585   2.306 -0.6574 -0.3334  1.5386
 7930TIP3    H223748   3.608   1.499   2.370  0.9751  0.3496 -0.1650
 7931TIP3   OH223749   1.231   2.692   5.579 -0.1238  0.0799  0.3607
 7931TIP3    H123750   1.189   2.607   5.562  0.8912 -0.3394 -0.1601
 7931TIP3    H223751   1.159   2.755   5.577 -0.8567 -0.7239  0.4368
 7932TIP3   OH223752   6.183   0.521   3.316 -0.2153 -1.1699  0.8119
 7932TIP3    H123753   6.259   0.467   3.294 -0.3284 -1.9094  2.1178
 7932TIP3    H223754   6.208   0.609   3.290  1.3660 -1.2827  1.8263
 7933TIP3   OH223755   1.472   0.068   5.505 -0.1980 -0.1531  0.4622
 7933TIP3    H123756   1.436  -0.017   5.530 -1.6696  0.4582  0.5449
 7933TIP3    H223757   1.395   0.122   5.488  0.7242  0.7774 -0.9230
 7934TIP3   OH223758   5.991   6.721   1.792 -0.1447 -0.4501 -0.2336
 7934TIP3    H123759   5.992   6.674   1.875 -0.2642  0.8666  0.5365
 7934TIP3    H223760   5.988   6.813   1.816  2.3819  0.0931 -1.6759
 7935TIP3   OH223761   3.508   5.304   2.839  0.2358 -0.6560  0.4962
 7935TIP3    H123762   3.470   5.306   2.927  1.5960 -1.2967  1.1173
 7935TIP3    H223763   3.602   5.305   2.854  0.4771 -0.3730 -0.9786
 7936TIP3   OH223764   4.332   1.426   2.405 -0.0498 -0.0963 -0.0818
 7936TIP3    H123765   4.256   1.483   2.420 -0.3751 -0.1043 -1.5246
 7936TIP3    H223766   4.304   1.340   2.437  0.1153  0.3220  1.2690
 7937TIP3   OH223767   6.524   3.401   3.031 -0.6899  0.5760 -0.0608
 7937TIP3    H123768   6.592   3.365   3.088 -1.0827  0.7329  0.5128
 7937TIP3    H223769   6.442   3.369   3.069 -0.8770 -1.4635 -2.0045
 7938TIP3   OH223770   7.966   3.019   2.585 -0.1769 -0.2722  0.4223
 7938TIP3    H123771   8.055   3.048   2.609  0.1858 -1.0826  0.0955
 7938TIP3    H223772   7.909   3.091   2.612  0.3881 -0.4519  2.1892
 7939TIP3   OH223773   4.919   6.028   2.190 -0.5399  0.0744  0.1645
 7939TIP3    H123774   4.896   6.066   2.275 -1.4551 -0.7430  0.2933
 7939TIP3    H223775   5.006   6.063   2.171 -0.5949  0.7730  1.1353
 7940TIP3   OH223776   7.874   0.096   5.423 -0.2727  0.3046  0.0463
 7940TIP3    H123777   7.877   0.034   5.496  0.9242 -0.1055 -0.3362
 7940TIP3    H223778   7.950   0.074   5.369 -0.3506  1.5165 -0.5884
 7941TIP3   OH223779   1.114   5.136   4.084 -0.6585 -0.0963  0.2488
 7941TIP3    H123780   1.024   5.104   4.076 -0.1801 -1.7644  1.1345
 7941TIP3    H223781   1.122   5.203   4.015 -2.5563  0.0924  0.1603
 7942TIP3   OH223782   2.489   6.432   4.680  0.1582 -0.3785 -0.1924
 7942TIP3    H123783   2.420   6.375   4.646 -0.4650  0.2748 -0.0722
 7942TIP3    H223784   2.567   6.378   4.681 -0.4634 -1.2893  0.1317
 7943TIP3   OH223785   2.915   6.796   0.511  0.0171 -0.3299 -0.0058
 7943TIP3    H123786   2.847   6.838   0.564  1.0110  1.1640  0.1461
 7943TIP3    H223787   2.966   6.745   0.573  2.7529  3.4121  1.1365
 7944TIP3   OH223788   0.937   4.796   0.194 -0.1992 -0.1306 -0.1422
 7944TIP3    H123789   0.992   4.756   0.261 -1.1460  0.2623  0.8871
 7944TIP3    H223790   0.919   4.884   0.226 -1.0121 -0.0798 -0.7048
 7945TIP3   OH223791   4.423   3.995   2.932 -0.3776  0.2181 -0.2870
 7945TIP3    H123792   4.336   4.001   2.971  0.1475  1.5026  0.7482
 7945TIP3    H223793   4.471   3.936   2.990 -0.3652 -0.0067 -0.5206
 7946TIP3   OH223794   3.723   6.803   1.001 -0.1882  0.3308 -0.2176
 7946TIP3    H123795   3.691   6.842   0.920 -0.5942  0.1969 -0.1244
 7946TIP3    H223796   3.792   6.862   1.031  0.1153  0.2647 -0.7734
 7947TIP3   OH223797   4.684   1.394   5.376  0.1410 -0.1398  0.1726
 7947TIP3    H123798   4.727   1.402   5.292 -0.4320  0.3123 -0.0867
 7947TIP3    H223799   4.740   1.441   5.437  0.5424 -0.4464  0.0431
 7948TIP3   OH223800   2.015   1.234   0.394 -0.7084  0.3626 -0.2047
 7948TIP3    H123801   2.032   1.273   0.308 -0.4674 -0.3394 -0.4842
 7948TIP3    H223802   2.084   1.168   0.404 -0.6286  0.5579  0.6086
 7949TIP3   OH223803   2.903   4.377   1.470 -0.4602 -0.9781 -0.1093
 7949TIP3    H123804   2.871   4.345   1.554 -0.1985 -1.3105 -0.1346
 7949TIP3    H223805   2.874   4.468   1.467  0.5240 -0.6093  0.8592
 7950TIP3   OH223806   4.343   3.923   5.057 -0.1376 -0.2338  0.0334
 7950TIP3    H123807   4.430   3.883   5.058  1.0600  2.1829  1.5104
 7950TIP3    H223808   4.326   3.940   4.964  0.7582 -1.1341 -0.3167
 7951TIP3   OH223809   6.908   2.515   3.060 -0.2156 -0.1525 -0.4530
 7951TIP3    H123810   6.962   2.555   3.129  0.7487 -1.7073 -0.2537
 7951TIP3    H223811   6.846   2.460   3.108  1.0319 -1.9478 -0.7676
 7952TIP3   OH223812   1.604   0.456   1.409  0.0443  0.3840  0.6394
 7952TIP3    H123813   1.558   0.418   1.484  1.0032  1.0091  1.5702
 7952TIP3    H223814   1.585   0.396   1.337  0.5464 -1.2475  1.7850
 7953TIP3   OH223815   1.812   2.074   4.410  0.0332  0.4874 -0.3491
 7953TIP3    H123816   1.738   2.028   4.371 -1.3870  2.4111 -0.0412
 7953TIP3    H223817   1.867   2.099   4.335 -0.2590  0.1493 -0.6828
 7954TIP3   OH223818   1.110   3.638   1.046  0.1594  0.0824  0.1551
 7954TIP3    H123819   1.081   3.696   0.975 -1.5205  0.8774  1.4178
 7954TIP3    H223820   1.133   3.556   1.002 -1.4282  0.3398 -1.2808
 7955TIP3   OH223821   6.508   4.136   3.501  0.1747 -0.2420  0.0595
 7955TIP3    H123822   6.603   4.137   3.514  0.3253  0.6231 -1.0039
 7955TIP3    H223823   6.482   4.045   3.516  1.1848 -0.5071  0.2336
 7956TIP3   OH223824   4.710   5.772   3.558  0.3935  0.2565  0.3354
 7956TIP3    H123825   4.696   5.679   3.576  2.4804 -0.1493  0.1251
 7956TIP3    H223826   4.644   5.817   3.610 -0.5931 -1.3295  0.5209
 7957TIP3   OH223827   4.302   2.197   5.841  0.4743  0.8249  0.1923
 7957TIP3    H123828   4.318   2.268   5.780 -2.4311  0.7122 -0.8736
 7957TIP3    H223829   4.258   2.129   5.788 -0.8741  0.1382  2.0624
 7958TIP3   OH223830   6.824   6.665   4.728 -0.0308 -0.1799  1.0856
 7958TIP3    H123831   6.806   6.637   4.818 -0.3913 -2.7499  0.2835
 7958TIP3    H223832   6.920   6.671   4.724  0.1294 -2.2115  1.0984
 7959TIP3   OH223833   2.462   4.975   0.318  0.2431  0.4831 -0.2358
 7959TIP3    H123834   2.371   4.952   0.332  0.8982 -1.8135  0.6257
 7959TIP3    H223835   2.503   4.968   0.404  1.4057  0.6687 -0.7494
 7960TIP3   OH223836   5.929   4.509   0.372  0.1440 -0.0409  0.2452
 7960TIP3    H123837   5.990   4.522   0.299 -0.1348  0.1964  0.0531
 7960TIP3    H223838   5.843   4.524   0.334 -0.1419 -1.5981  0.2227
 7961TIP3   OH223839   2.918   3.228   0.998  0.3644 -0.4044 -0.7025
 7961TIP3    H123840   2.954   3.259   1.081 -2.0813 -0.8751  0.6313
 7961TIP3    H223841   2.982   3.255   0.932  1.7047  1.2407  1.1668
 7962TIP3   OH223842   5.200   0.051   3.870  0.1915  0.1481 -0.0421
 7962TIP3    H123843   5.272   0.081   3.925 -0.1304  1.4893 -0.3176
 7962TIP3    H223844   5.122   0.089   3.909 -0.1898  0.0566 -0.6864
 7963TIP3   OH223845   5.485   7.044   3.225 -0.7155  0.0598  0.1801
 7963TIP3    H123846   5.563   6.989   3.234 -0.8190 -0.2002 -0.4054
 7963TIP3    H223847   5.428   6.994   3.165 -0.1486  1.4934 -1.6519
 7964TIP3   OH223848   2.954   0.911   3.440  0.5237  0.1948 -0.2313
 7964TIP3    H123849   2.886   0.860   3.484 -0.5675  0.5957 -1.3674
 7964TIP3    H223850   2.932   1.002   3.460  1.5781  0.2975  0.5498
 7965TIP3   OH223851   4.553   6.516   1.849 -0.5261 -0.1625 -0.5749
 7965TIP3    H123852   4.589   6.434   1.883  0.8375  0.6313 -0.0254
 7965TIP3    H223853   4.526   6.494   1.760  0.8999 -0.9480 -0.8532
 7966TIP3   OH223854   6.053   0.597   3.932  0.0273  0.4201  1.1781
 7966TIP3    H123855   6.003   0.570   4.009 -1.0829  1.1725  0.7431
 7966TIP3    H223856   6.042   0.692   3.927 -1.3638  0.2288 -0.8299
 7967TIP3   OH223857   1.786   0.633   4.119  0.1932  0.0906 -0.4690
 7967TIP3    H123858   1.699   0.596   4.136  0.4525 -0.1301  0.4107
 7967TIP3    H223859   1.831   0.628   4.203  0.9796  0.4242 -0.8641
 7968TIP3   OH223860   7.473   1.982   2.491 -0.0415  0.2317  0.0767
 7968TIP3    H123861   7.433   2.056   2.444  0.0361 -0.6725 -1.4990
 7968TIP3    H223862   7.416   1.908   2.470  1.2959 -0.6668 -0.5043
 7969TIP3   OH223863   1.748   6.598   2.446 -0.3672 -0.2162 -0.1286
 7969TIP3    H123864   1.675   6.606   2.507  0.6486 -0.2625  1.1363
 7969TIP3    H223865   1.772   6.689   2.425  0.3998 -0.1348  0.9712
 7970TIP3   OH223866   7.315   3.988   2.663 -0.0008 -0.2179 -0.0058
 7970TIP3    H123867   7.297   3.935   2.741  0.6337  0.8589  0.9013
 7970TIP3    H223868   7.329   3.924   2.593  0.8474 -1.2636  1.0773
 7971TIP3   OH223869   5.460   0.581   0.954 -0.4097 -0.0617 -0.2774
 7971TIP3    H123870   5.423   0.667   0.974  1.3250  0.4912  0.8807
 7971TIP3    H223871   5.506   0.594   0.871  1.1025  0.6186  0.6090
 7972TIP3   OH223872   6.528   7.715   6.573 -0.0962  0.2402  0.6094
 7972TIP3    H123873   6.575   7.798   6.573  0.7431 -0.2232  0.3160
 7972TIP3    H223874   6.543   7.679   6.661  0.6248 -0.1827  0.3274
 7973TIP3   OH223875   5.599   5.579   0.576  0.1967  0.0461 -0.4644
 7973TIP3    H123876   5.518   5.532   0.594  1.0142 -0.8849  0.9717
 7973TIP3    H223877   5.664   5.538   0.634  2.0894 -0.3609 -2.6996
 7974TIP3   OH223878   3.762   1.683   5.306  0.3467 -0.2513 -0.3354
 7974TIP3    H123879   3.696   1.692   5.237 -0.8507  0.4186  0.8637
 7974TIP3    H223880   3.783   1.773   5.330  1.1465 -0.4745 -0.1698
 7975TIP3   OH223881   3.615   0.418   3.696 -0.1033  0.0254  0.5977
 7975TIP3    H123882   3.699   0.463   3.689 -0.9370  1.9278  1.9732
 7975TIP3    H223883   3.619   0.372   3.780  0.1334 -1.2203 -0.0717
 7976TIP3   OH223884   3.928   6.106   1.208 -0.3835 -0.0350  0.3558
 7976TIP3    H123885   4.016   6.069   1.216 -0.7685 -0.8161  1.0594
 7976TIP3    H223886   3.876   6.037   1.168 -0.8091  0.2198  0.4604
 7977TIP3   OH223887   0.439   7.592   1.003 -0.2256  0.5415  0.0134
 7977TIP3    H123888   0.429   7.501   0.976  3.2273  0.5191 -1.7667
 7977TIP3    H223889   0.459   7.639   0.922 -1.0276  2.7723  1.0124
 7978TIP3   OH223890   6.894   4.373   4.589  0.1004 -0.3542 -0.8596
 7978TIP3    H123891   6.921   4.318   4.515  0.3902  0.0950 -1.0921
 7978TIP3    H223892   6.844   4.314   4.645 -0.1990 -0.6859 -1.4579
 7979TIP3   OH223893   1.387   0.705   0.753 -0.7129 -0.1976 -0.2615
 7979TIP3    H123894   1.342   0.778   0.795 -1.7766  0.3705 -2.3111
 7979TIP3    H223895   1.334   0.683   0.677  1.4561 -0.7448 -1.7307
 7980TIP3   OH223896   4.822   5.961   1.876  0.2396  0.2615 -0.5439
 7980TIP3    H123897   4.755   5.985   1.940 -0.2475 -0.4240 -0.7795
 7980TIP3    H223898   4.773   5.918   1.806  0.8131  0.6433 -1.1885
 7981TIP3   OH223899   4.558   7.701   4.843  0.0758 -0.0472 -0.4663
 7981TIP3    H123900   4.620   7.761   4.882 -1.4099  0.7571  0.7508
 7981TIP3    H223901   4.610   7.650   4.781  1.8585  0.8005  0.2657
 7982TIP3   OH223902   2.122   6.507   5.629  0.4181  0.0476 -0.3052
 7982TIP3    H123903   2.027   6.506   5.634  0.3342  0.8754 -1.2970
 7982TIP3    H223904   2.142   6.589   5.583  1.5946 -0.2426 -0.3360
 7983TIP3   OH223905   0.475   4.413   4.999  0.5937 -0.2826  0.2755
 7983TIP3    H123906   0.567   4.401   4.974  0.8463 -1.2905  1.5476
 7983TIP3    H223907   0.448   4.328   5.032 -0.0788  0.5823  2.1050
 7984TIP3   OH223908   7.533   1.299   5.327  0.3466 -0.3847 -0.7460
 7984TIP3    H123909   7.513   1.282   5.420  0.6798 -0.3766 -0.6736
 7984TIP3    H223910   7.448   1.292   5.284  0.1070  0.1055 -0.3661
 7985TIP3   OH223911   0.195   3.884   2.153  0.7778  0.4656 -0.1137
 7985TIP3    H123912   0.259   3.896   2.083  0.9460  1.7462  0.2368
 7985TIP3    H223913   0.203   3.792   2.177  2.4641  0.5790 -0.1199
 7986TIP3   OH223914   7.016   0.528   3.456  0.5525 -0.2135 -0.3747
 7986TIP3    H123915   7.067   0.518   3.376  0.9741  0.3637 -0.1837
 7986TIP3    H223916   7.081   0.534   3.526  0.2007 -0.2487 -0.0399
 7987TIP3   OH223917   4.028   1.042   0.636 -0.0691  0.3227  0.8644
 7987TIP3    H123918   4.090   1.067   0.705  0.6427 -1.0330  0.7497
 7987TIP3    H223919   3.943   1.041   0.679  0.0830  1.4349  1.2211
 7988TIP3   OH223920   4.185   6.254   5.902  0.3524  0.3547 -0.4702
 7988TIP3    H123921   4.256   6.272   5.964  0.4581 -0.3337 -0.3832
 7988TIP3    H223922   4.210   6.301   5.823  1.8859 -1.3746 -1.0850
 7989TIP3   OH223923   6.357   0.036   2.441 -0.5054  0.0744 -0.3180
 7989TIP3    H123924   6.266   0.017   2.417 -0.9992  1.5755  0.2422
 7989TIP3    H223925   6.358   0.131   2.456  0.9027 -0.0827  0.7430
 7990TIP3   OH223926   7.670   0.088   2.226 -0.4811 -0.1959  0.3263
 7990TIP3    H123927   7.578   0.115   2.231 -0.5281 -0.1484 -0.6954
 7990TIP3    H223928   7.690   0.059   2.315 -2.3633 -3.1154 -0.0586
 7991TIP3   OH223929   0.295   5.059   5.662 -0.3628 -0.0599 -0.0779
 7991TIP3    H123930   0.269   5.126   5.726 -0.1548  0.4305 -0.4964
 7991TIP3    H223931   0.386   5.080   5.642  0.2174 -1.4466  0.9865
 7992TIP3   OH223932   4.083   7.582   1.256  0.9347  0.7412 -0.3720
 7992TIP3    H123933   4.171   7.568   1.222 -0.0272 -0.5929 -2.5282
 7992TIP3    H223934   4.050   7.658   1.208  0.4260  0.3418 -0.6744
 7993TIP3   OH223935   2.414   1.622   5.863  0.1156  1.1953  0.2016
 7993TIP3    H123936   2.368   1.638   5.781  0.9768 -0.7957 -0.7535
 7993TIP3    H223937   2.351   1.576   5.918  0.1889  0.6135 -0.1911
 7994TIP3   OH223938   6.048   6.215   3.513 -0.5922 -0.0578 -0.9404
 7994TIP3    H123939   6.088   6.293   3.551 -1.2398  0.4451 -1.2822
 7994TIP3    H223940   5.967   6.203   3.561  1.1161 -2.6652  1.6759
 7995TIP3   OH223941   1.405   5.989   0.650 -0.2517 -0.0582  0.0210
 7995TIP3    H123942   1.358   5.990   0.733  1.6769  0.1407  1.1903
 7995TIP3    H223943   1.411   5.897   0.627 -0.1627 -0.1823  0.5203
 7996TIP3   OH223944   8.272   2.905   4.174 -0.3123 -0.6597 -0.9236
 7996TIP3    H123945   8.294   2.972   4.238  0.0623 -0.8643 -0.8383
 7996TIP3    H223946   8.190   2.867   4.207  0.1270 -1.0904 -0.3020
 7997TIP3   OH223947   1.679   6.363   5.762  0.1691 -0.2862 -1.0493
 7997TIP3    H123948   1.586   6.351   5.746 -0.0979  1.3216 -0.8809
 7997TIP3    H223949   1.683   6.402   5.849  1.0343 -0.6719 -0.9047
 7998TIP3   OH223950   5.360   1.735   5.824  0.6152 -0.2444  0.1919
 7998TIP3    H123951   5.351   1.830   5.825  0.2472 -0.2550 -0.8474
 7998TIP3    H223952   5.444   1.718   5.867 -0.5056  0.3647  2.7976
 7999TIP3   OH223953   3.274   0.947   1.653  0.5220 -0.0431 -0.3859
 7999TIP3    H123954   3.342   1.001   1.614  0.4950 -1.0750 -1.9586
 7999TIP3    H223955   3.239   0.896   1.580 -1.7341  0.2143  0.4263
 8000TIP3   OH223956   2.564   3.501   1.906  0.0514 -0.0761  0.0337
 8000TIP3    H123957   2.524   3.439   1.967 -2.3788  1.2794 -0.0905
 8000TIP3    H223958   2.592   3.574   1.961  1.0284 -0.3373 -0.0890
 8001TIP3   OH223959   6.035   5.039   5.805 -0.3617 -0.6383 -0.1442
 8001TIP3    H123960   5.972   5.090   5.754 -2.9444 -0.7128  2.6450
 8001TIP3    H223961   5.987   4.960   5.831  1.0456 -0.9922  1.6306
 8002TIP3   OH223962   4.233   7.543   3.502  0.1815 -0.3044 -0.3618
 8002TIP3    H123963   4.168   7.557   3.570  0.4723  0.5062 -0.2374
 8002TIP3    H223964   4.221   7.452   3.475 -0.3303 -0.4553  0.3556
 8003TIP3   OH223965   2.999   1.116   5.713  0.2535  0.0013 -0.2369
 8003TIP3    H123966   2.964   1.203   5.696  0.8719  0.3805  0.4068
 8003TIP3    H223967   2.934   1.057   5.674 -2.1933  0.6020  2.5798
 8004TIP3   OH223968   6.743   0.798   4.303 -0.1770  0.3376 -0.3196
 8004TIP3    H123969   6.671   0.832   4.250  0.9393  2.0472 -0.7969
 8004TIP3    H223970   6.796   0.747   4.241 -1.2085 -1.3948  0.1468
 8005TIP3   OH223971   4.815   3.674   4.576  0.9148  0.3637  0.5433
 8005TIP3    H123972   4.759   3.608   4.617  0.6096  0.6102  0.5202
 8005TIP3    H223973   4.781   3.757   4.607 -0.7884  0.7038 -1.9748
 8006TIP3   OH223974   3.347   7.108   6.424 -0.1265 -0.0845 -0.3332
 8006TIP3    H123975   3.416   7.045   6.405 -1.2712 -1.2814 -0.7275
 8006TIP3    H223976   3.390   7.176   6.476  1.8628  0.4484 -2.5265
 8007TIP3   OH223977   0.085   4.057   6.277 -0.2679  0.1866 -0.3225
 8007TIP3    H123978  -0.004   4.094   6.277  0.4922  2.2617 -2.4102
 8007TIP3    H223979   0.133   4.109   6.341  0.1837  1.2326 -1.4740
 8008TIP3   OH223980   6.458   4.837   5.711  0.3557 -0.0351  0.2345
 8008TIP3    H123981   6.398   4.912   5.716  1.7220  1.1867 -0.7819
 8008TIP3    H223982   6.454   4.798   5.799 -0.1950  1.4098  0.8940
 8009TIP3   OH223983   0.548   3.830   6.611 -0.0805  0.6022 -0.5910
 8009TIP3    H123984   0.637   3.845   6.643  0.4404  0.2868 -1.8384
 8009TIP3    H223985   0.554   3.845   6.517 -1.6363  1.8212 -0.5301
 8010TIP3   OH223986   5.967   5.068   3.880 -0.2993 -0.0543 -0.0032
 8010TIP3    H123987   5.969   5.064   3.976  0.7441  1.1254  0.0550
 8010TIP3    H223988   6.009   4.987   3.852  0.5248  0.1611  0.5710
 8011TIP3   OH223989   7.496   3.294   4.953 -0.5211  0.3386  0.2226
 8011TIP3    H123990   7.581   3.249   4.952  1.7062  3.9840 -2.3279
 8011TIP3    H223991   7.446   3.253   4.883  0.5699  0.3126 -0.5740
 8012TIP3   OH223992   3.934   2.135   1.387 -0.5695 -0.1581  0.2723
 8012TIP3    H123993   3.992   2.090   1.326 -0.4886  1.7203 -1.1151
 8012TIP3    H223994   3.899   2.209   1.337  0.0213  1.8725  2.6627
 8013TIP3   OH223995   1.092   4.005   2.235  0.0193  0.0071  0.3982
 8013TIP3    H123996   1.069   3.924   2.281  0.3899  0.0090  0.5906
 8013TIP3    H223997   1.178   3.987   2.197 -0.5156 -0.1885 -0.7626
 8014TIP3   OH223998   2.479   2.707   5.924  0.0031 -0.3321  0.6815
 8014TIP3    H123999   2.439   2.628   5.960 -1.5902 -0.3337 -0.8980
 8014TIP3    H224000   2.550   2.675   5.868 -0.3615 -0.6343  0.3841
 8015TIP3   OH224001   0.687   2.266   1.570 -0.4755  0.5576  0.2875
 8015TIP3    H124002   0.708   2.355   1.601  3.8293 -0.3212  0.5869
 8015TIP3    H224003   0.688   2.273   1.475 -1.5854  1.0646  0.3035
 8016TIP3   OH224004   2.553   6.114   6.551 -0.4865 -0.3642  0.2044
 8016TIP3    H124005   2.506   6.064   6.484 -0.6581  0.1560 -0.0753
 8016TIP3    H224006   2.529   6.073   6.634 -1.3031 -0.2043  0.0492
 8017TIP3   OH224007   3.529   5.969   6.799  0.1706  0.2031  0.3563
 8017TIP3    H124008   3.620   5.977   6.769 -0.4356 -0.5903 -1.8529
 8017TIP3    H224009   3.479   6.020   6.736 -1.1446 -1.1564  0.2532
 8018TIP3   OH224010   4.546   0.947   3.831  0.3459 -0.0778  0.1222
 8018TIP3    H124011   4.587   0.902   3.757  0.8417 -1.0141  0.9400
 8018TIP3    H224012   4.473   0.891   3.856 -1.5423  1.5861 -1.3360
 8019TIP3   OH224013   6.112   6.680   2.298  0.3954 -0.6290  0.5249
 8019TIP3    H124014   6.168   6.751   2.267 -0.6779 -0.2957 -0.7859
 8019TIP3    H224015   6.066   6.716   2.374  1.4370 -0.6795  1.1886
 8020TIP3   OH224016   7.722   0.795   4.831  0.1093  0.1450 -0.7908
 8020TIP3    H124017   7.735   0.876   4.782 -0.0881  0.9751  0.4580
 8020TIP3    H224018   7.730   0.725   4.766  1.2245  1.1056 -1.7427
 8021TIP3   OH224019   4.747   3.164   1.544  0.6888  0.0456 -0.0130
 8021TIP3    H124020   4.804   3.092   1.516 -1.7876 -2.6335  1.2669
 8021TIP3    H224021   4.677   3.166   1.479  1.0569  1.8313 -0.4017
 8022TIP3   OH224022   3.775   5.258   6.074  0.2071 -0.0998  0.0155
 8022TIP3    H124023   3.788   5.340   6.026  1.2162 -0.3814 -0.2129
 8022TIP3    H224024   3.827   5.193   6.026 -0.4668 -0.8525  0.2702
 8023TIP3   OH224025   0.568   0.861   2.114  0.4358 -0.0664 -0.3204
 8023TIP3    H124026   0.593   0.825   2.199 -0.9732  0.6738  0.4432
 8023TIP3    H224027   0.571   0.956   2.127  0.0427  0.0513 -1.0414
 8024TIP3   OH224028   7.740   5.639   5.382 -0.0850 -0.2773  0.4181
 8024TIP3    H124029   7.694   5.559   5.355 -1.6298  0.2967  1.2779
 8024TIP3    H224030   7.783   5.615   5.464 -1.5326  0.0613  1.3191
 8025TIP3   OH224031   0.910   7.682   4.891 -0.0270  0.2571  0.3112
 8025TIP3    H124032   0.879   7.616   4.953  0.2282  0.3931  0.5845
 8025TIP3    H224033   0.921   7.635   4.809 -0.1812  0.0350  0.4162
 8026TIP3   OH224034   0.563   6.128   2.193  0.0949 -0.2461 -0.0710
 8026TIP3    H124035   0.515   6.054   2.229 -0.9600  0.1797 -0.5574
 8026TIP3    H224036   0.617   6.159   2.266 -2.4609  0.9988  1.4812
 8027TIP3   OH224037   2.516   2.154   4.855 -0.1232 -0.1121 -0.9762
 8027TIP3    H124038   2.549   2.133   4.768  3.1934  0.0890  0.1138
 8027TIP3    H224039   2.516   2.249   4.859  0.6660 -0.1253 -0.4661
 8028TIP3   OH224040   2.411   0.238   2.980  0.4432  0.3238 -0.6221
 8028TIP3    H124041   2.384   0.155   2.940  0.0292  0.0500  0.1988
 8028TIP3    H224042   2.435   0.214   3.069  2.2144  0.7732 -0.9402
 8029TIP3   OH224043   3.502   6.506   3.824  0.1889 -0.1284 -0.1335
 8029TIP3    H124044   3.585   6.495   3.778 -0.8254 -0.8133 -1.9224
 8029TIP3    H224045   3.480   6.418   3.855 -0.0839 -0.0344 -0.0568
 8030TIP3   OH224046   7.415   7.142   6.229 -0.0145 -0.3199 -0.0519
 8030TIP3    H124047   7.363   7.102   6.299  0.1147 -1.0511 -0.3733
 8030TIP3    H224048   7.350   7.167   6.163 -0.0182 -0.7533 -0.2168
 8031TIP3   OH224049   4.619   1.482   3.659 -0.2951 -0.0790  0.4082
 8031TIP3    H124050   4.532   1.441   3.657 -0.6351  0.3891  2.6195
 8031TIP3    H224051   4.671   1.430   3.598 -1.3961 -2.1786  1.1394
 8032TIP3   OH224052   7.012   2.058   1.423 -0.4749  0.3213 -0.4748
 8032TIP3    H124053   6.994   2.121   1.354 -1.1867  1.5017  0.7346
 8032TIP3    H224054   6.927   2.019   1.444 -0.6237  1.2902  0.9136
 8033TIP3   OH224055   2.613   0.200   6.252  0.0298  0.1628  0.1812
 8033TIP3    H124056   2.581   0.205   6.162 -1.2355  0.8363  0.6392
 8033TIP3    H224057   2.707   0.189   6.243 -0.0908  0.0147 -1.2254
 8034TIP3   OH224058   5.183   6.120   0.051 -0.7486 -0.1007  0.3596
 8034TIP3    H124059   5.107   6.153   0.003  0.6628  1.8160 -0.7265
 8034TIP3    H224060   5.155   6.036   0.087 -2.8964 -0.1291 -1.1997
 8035TIP3   OH224061   3.604   4.268   6.593  0.2742 -0.2496 -0.1495
 8035TIP3    H124062   3.522   4.219   6.604 -0.1810  0.2282 -1.2504
 8035TIP3    H224063   3.608   4.327   6.668  0.2622 -1.1618  0.5901
 8036TIP3   OH224064   6.069   7.578   5.751  0.5531  0.3216 -0.3379
 8036TIP3    H124065   5.998   7.595   5.689  1.4918  1.2039 -1.2046
 8036TIP3    H224066   6.137   7.537   5.698  0.7385 -0.4354  0.4684
 8037TIP3   OH224067   0.843   5.063   0.294  0.5497  0.0321 -1.0982
 8037TIP3    H124068   0.820   5.124   0.224 -1.1655  0.3295 -0.3153
 8037TIP3    H224069   0.884   5.117   0.361  0.4419  0.0582 -1.0542
 8038TIP3   OH224070   5.569   6.116   3.216  0.1773  0.1032  0.5296
 8038TIP3    H124071   5.603   6.189   3.164 -0.2045  0.6599  1.0628
 8038TIP3    H224072   5.615   6.123   3.300 -0.2166  0.0147  0.7524
 8039TIP3   OH224073   6.991   4.094   1.268 -0.1188 -0.0695  0.1402
 8039TIP3    H124074   7.060   4.100   1.334  0.5014 -0.9897 -0.3957
 8039TIP3    H224075   6.910   4.086   1.318  0.3973 -1.4382  0.8197
 8040TIP3   OH224076   7.366   5.025   3.719 -0.2795 -0.2608  0.5574
 8040TIP3    H124077   7.286   4.974   3.734 -0.9468 -0.9431 -3.8982
 8040TIP3    H224078   7.436   4.970   3.752 -1.3266 -2.1207 -0.1628
 8041TIP3   OH224079   4.871   5.770   2.136  0.1315  0.3273 -0.0797
 8041TIP3    H124080   4.856   5.864   2.149  0.4229  0.0665  2.8941
 8041TIP3    H224081   4.866   5.758   2.042 -1.1284  3.1168 -0.4743
 8042TIP3   OH224082   0.643   2.992   3.312 -0.1257  0.1982  0.5018
 8042TIP3    H124083   0.670   3.071   3.359  0.5006  0.0128  0.4699
 8042TIP3    H224084   0.697   2.923   3.350 -1.7195 -0.4941  1.5694
 8043TIP3   OH224085   4.334   4.883   6.717 -0.2193 -0.4038  0.4563
 8043TIP3    H124086   4.398   4.942   6.757  0.4639 -2.0495  1.9719
 8043TIP3    H224087   4.379   4.798   6.715 -2.9038 -2.1169  3.4002
 8044TIP3   OH224088   1.524   4.067   4.974 -0.2243 -0.2489 -0.1043
 8044TIP3    H124089   1.479   4.110   5.046  0.6585  0.8874 -0.2026
 8044TIP3    H224090   1.454   4.032   4.919 -0.9942  1.3286 -0.1721
 8045TIP3   OH224091   7.894   7.567   6.397 -0.2956  0.0905 -0.2106
 8045TIP3    H124092   7.892   7.472   6.389 -0.4760  0.1728 -1.3963
 8045TIP3    H224093   7.852   7.586   6.481  0.6565 -0.9107  0.5207
 8046TIP3   OH224094   2.976   6.135   2.239  0.3046 -0.3335 -0.1995
 8046TIP3    H124095   3.047   6.102   2.183  0.5367 -1.6348  0.8200
 8046TIP3    H224096   3.019   6.160   2.320 -0.4063 -1.3033  0.4966
 8047TIP3   OH224097   6.118   3.982   6.335 -0.5734 -0.2600  0.6358
 8047TIP3    H124098   6.059   3.927   6.387 -2.2051 -1.7517 -2.5493
 8047TIP3    H224099   6.085   3.976   6.246  3.0578  0.7622 -0.9713
 8048TIP3   OH224100   2.010   2.650   4.430 -0.1105  0.3740 -0.1915
 8048TIP3    H124101   1.969   2.569   4.400 -0.9049  0.3820  0.8133
 8048TIP3    H224102   2.075   2.622   4.495 -0.3100  0.5291  0.0775
 8049TIP3   OH224103   2.619   2.834   2.532 -0.0808 -0.3129 -0.5966
 8049TIP3    H124104   2.695   2.804   2.481 -0.2476 -0.4591 -0.7573
 8049TIP3    H224105   2.565   2.881   2.469 -0.3878 -0.6715 -0.6007
 8050TIP3   OH224106   1.763   3.552   3.890  0.1536 -0.5685  0.0641
 8050TIP3    H124107   1.834   3.496   3.861  0.2793 -0.1455 -0.4576
 8050TIP3    H224108   1.686   3.495   3.891  0.7373 -1.3893  1.9780
 8051TIP3   OH224109   8.095   4.330   5.039  0.4544  0.1565 -0.1170
 8051TIP3    H124110   8.034   4.378   5.094  0.6656 -0.3059  0.5298
 8051TIP3    H224111   8.143   4.273   5.099  0.1488 -0.9408 -0.8677
 8052TIP3   OH224112   2.007   7.379   1.956  0.0835 -0.7009  0.0663
 8052TIP3    H124113   2.095   7.416   1.965  0.2894 -0.7991 -1.2644
 8052TIP3    H224114   1.950   7.455   1.956  0.1658 -0.6299  0.8508
 8053TIP3   OH224115   1.956   3.570   5.525  0.2378  0.2540  0.1611
 8053TIP3    H124116   1.931   3.537   5.439 -1.2346 -0.5137  0.8396
 8053TIP3    H224117   1.907   3.652   5.535 -0.7843 -0.4124  0.8327
 8054TIP3   OH224118   0.758   1.897   3.785 -0.7006  0.1052  0.2853
 8054TIP3    H124119   0.739   1.979   3.739 -1.2241 -0.7864 -1.1952
 8054TIP3    H224120   0.719   1.908   3.871 -0.8833  1.3503  0.0681
 8055TIP3   OH224121   0.986   1.927   3.646  0.2389 -0.1796  0.3105
 8055TIP3    H124122   1.022   2.014   3.665  0.3174  0.5245 -2.5119
 8055TIP3    H224123   0.928   1.908   3.719  0.5292  2.0949  1.2080
 8056TIP3   OH224124   7.776   0.410   1.561  0.0157  0.5363 -0.2095
 8056TIP3    H124125   7.865   0.429   1.591 -0.4348  0.1850  1.4298
 8056TIP3    H224126   7.782   0.323   1.522  0.2870  0.2708  0.4150
 8057TIP3   OH224127   2.489   6.450   2.095 -0.2196  0.3695 -0.0542
 8057TIP3    H124128   2.428   6.385   2.059 -0.6134  0.8972 -0.3367
 8057TIP3    H224129   2.566   6.398   2.120 -1.0868 -0.4329  1.0652
 8058TIP3   OH224130   4.247   2.580   6.005 -0.3199  0.5996 -0.5982
 8058TIP3    H124131   4.307   2.552   6.075  0.3740 -1.4637 -1.9458
 8058TIP3    H224132   4.288   2.659   5.969  0.4361  0.4562 -0.0826
 8059TIP3   OH224133   2.380   7.405   2.694  0.4703 -0.2533  0.1474
 8059TIP3    H124134   2.425   7.331   2.735  0.9006  1.4627  3.0875
 8059TIP3    H224135   2.420   7.482   2.735 -3.0662  1.4689  0.7190
 8060TIP3   OH224136   4.926   1.758   2.924 -0.3513  0.6935  0.5145
 8060TIP3    H124137   4.981   1.835   2.911 -0.5810  0.3135 -4.0335
 8060TIP3    H224138   4.847   1.775   2.872 -0.9657 -2.0705  0.4028
 8061TIP3   OH224139   7.251   0.962   1.427  0.2995 -0.3055 -0.2151
 8061TIP3    H124140   7.327   0.975   1.484  0.6661  0.0777 -0.7727
 8061TIP3    H224141   7.236   1.048   1.388 -0.7780 -0.2386  0.3079
 8062TIP3   OH224142   6.517   2.325   0.788  0.3075 -0.2249 -0.4412
 8062TIP3    H124143   6.496   2.336   0.881 -0.1290 -1.4975 -0.3634
 8062TIP3    H224144   6.544   2.233   0.781 -1.3100 -0.6360 -1.8520
 8063TIP3   OH224145   2.863   0.933   5.594 -0.1851  0.4581  0.3761
 8063TIP3    H124146   2.810   0.992   5.541  0.0023  0.6712  0.4283
 8063TIP3    H224147   2.801   0.892   5.654 -0.5399 -0.3533 -0.5045
 8064TIP3   OH224148   2.413   5.456   1.750  0.0354 -0.0667 -0.3656
 8064TIP3    H124149   2.381   5.539   1.715  0.2040  0.4880  0.7468
 8064TIP3    H224150   2.504   5.450   1.719  0.1923  0.4315 -0.0229
 8065TIP3   OH224151   3.617   5.318   0.618  0.2343 -0.2417 -0.2264
 8065TIP3    H124152   3.603   5.251   0.685  2.5704 -1.6575 -1.0016
 8065TIP3    H224153   3.530   5.352   0.598 -0.8258 -1.7770  1.4841
 8066TIP3   OH224154   5.113   1.584   1.323 -0.2384 -0.8811 -0.2417
 8066TIP3    H124155   5.193   1.633   1.341  0.5351 -2.0589 -0.3941
 8066TIP3    H224156   5.057   1.647   1.277  1.8353 -0.8829 -3.0514
 8067TIP3   OH224157   4.126   2.742   4.082  0.0067 -0.0814 -0.2815
 8067TIP3    H124158   4.092   2.827   4.056 -0.7065 -0.4259 -0.4876
 8067TIP3    H224159   4.212   2.761   4.119 -0.5583  0.8486  0.5956
 8068TIP3   OH224160   7.141   0.747   1.266  0.1601  0.7475  0.0490
 8068TIP3    H124161   7.144   0.842   1.255  0.0770  0.9425  1.5148
 8068TIP3    H224162   7.047   0.726   1.262  0.1368  0.8026  0.3322
 8069TIP3   OH224163   4.328   1.157   5.218 -0.1863  0.0521 -0.5840
 8069TIP3    H124164   4.278   1.234   5.248 -1.0316 -1.2001  1.4479
 8069TIP3    H224165   4.265   1.108   5.165  1.1930  2.0658 -4.5123
 8070TIP3   OH224166   3.662   7.730   4.951 -0.2465  0.3022 -0.1883
 8070TIP3    H124167   3.662   7.824   4.931  0.3096  0.5862  1.0587
 8070TIP3    H224168   3.576   7.714   4.991 -0.7828  0.0362 -1.4217
 8071TIP3   OH224169   2.527   7.632   2.846 -0.7215  0.0698 -0.1473
 8071TIP3    H124170   2.489   7.565   2.903  0.3668  0.3088  0.8981
 8071TIP3    H224171   2.561   7.698   2.907 -1.2426  1.2953 -1.1370
 8072TIP3   OH224172   1.748   2.208   5.429 -0.0089 -0.3354  0.3488
 8072TIP3    H124173   1.758   2.230   5.522  0.1640 -1.8683  0.7215
 8072TIP3    H224174   1.751   2.112   5.427  0.6686 -0.3075 -1.3156
 8073TIP3   OH224175   7.500   3.160   6.210 -0.5099  0.4975 -0.3629
 8073TIP3    H124176   7.584   3.195   6.179 -0.6767  0.8314 -0.4361
 8073TIP3    H224177   7.444   3.158   6.133  0.6847 -3.7848 -1.4190
 8074TIP3   OH224178   6.578   7.153   4.310 -0.4481  0.1324 -0.1171
 8074TIP3    H124179   6.499   7.100   4.300 -1.0972  1.1401 -0.3951
 8074TIP3    H224180   6.602   7.178   4.221 -0.0650  0.2040  0.0037
 8075TIP3   OH224181   8.243   0.375   0.116 -0.1952 -0.3292  0.0681
 8075TIP3    H124182   8.306   0.349   0.050 -0.2498 -1.5826  0.4850
 8075TIP3    H224183   8.168   0.407   0.067  0.9279  1.7213 -0.4386
 8076TIP3   OH224184   3.547   6.044   4.594  1.1226 -0.5462  0.7198
 8076TIP3    H124185   3.584   6.115   4.543  1.3261 -0.9581  0.2792
 8076TIP3    H224186   3.490   5.997   4.532  1.1832 -0.9114  0.9323
 8077TIP3   OH224187   4.888   5.331   2.942  0.3653  0.3855 -0.2908
 8077TIP3    H124188   4.866   5.372   2.858  0.0382 -1.2286 -1.0315
 8077TIP3    H224189   4.840   5.383   3.007  1.0324  1.9755 -1.0122
 8078TIP3   OH224190   4.376   5.664   3.557  0.1278 -0.1932 -0.3624
 8078TIP3    H124191   4.338   5.598   3.499  0.0437 -0.2733 -0.2162
 8078TIP3    H224192   4.442   5.615   3.607 -0.3812 -0.3085  0.2013
 8079TIP3   OH224193   5.431   2.806   0.708 -0.2977 -0.3198  0.4171
 8079TIP3    H124194   5.428   2.790   0.802  1.9522 -0.1222  0.5663
 8079TIP3    H224195   5.362   2.871   0.692  0.0206  0.4567  2.0930
 8080TIP3   OH224196   3.777   1.950   5.334 -0.2202 -0.1905  0.1967
 8080TIP3    H124197   3.700   1.991   5.373 -0.6514 -0.1552 -0.6549
 8080TIP3    H224198   3.822   2.021   5.289  1.6348  0.2912  2.6217
 8081TIP3   OH224199   6.872   5.671   3.075  0.0591 -0.0702  0.5326
 8081TIP3    H124200   6.776   5.675   3.070 -0.0273 -1.1316  1.0205
 8081TIP3    H224201   6.901   5.690   2.986 -0.6951 -1.7673 -0.1164
 8082TIP3   OH224202   3.685   0.500   0.118  0.1651  0.5676  0.1084
 8082TIP3    H124203   3.735   0.556   0.177 -0.7011  1.5392 -0.0518
 8082TIP3    H224204   3.634   0.443   0.176 -2.0541  2.7033  0.4450
 8083TIP3   OH224205   4.990   0.325   5.443  0.0988 -0.3427 -0.1798
 8083TIP3    H124206   5.029   0.265   5.379 -2.7112 -0.9025 -1.5075
 8083TIP3    H224207   5.036   0.305   5.525  0.8537 -2.7014 -1.0796
 8084TIP3   OH224208   7.106   6.767   1.459  0.1999 -0.5609 -0.6008
 8084TIP3    H124209   7.162   6.723   1.395 -0.1657  0.4154 -1.6285
 8084TIP3    H224210   7.027   6.790   1.409  0.1248  0.6799  0.0688
 8085TIP3   OH224211   7.679   3.399   1.130  0.2247 -0.5630  0.1043
 8085TIP3    H124212   7.771   3.402   1.156  0.0700 -0.3916  0.6325
 8085TIP3    H224213   7.633   3.444   1.200 -0.4976 -2.3701  0.8544
 8086TIP3   OH224214   0.117   0.809   4.043 -0.5365  0.0319 -0.3022
 8086TIP3    H124215   0.041   0.752   4.033 -1.2158  0.4789  1.8788
 8086TIP3    H224216   0.133   0.843   3.955 -2.7769 -0.1815 -0.8514
 8087TIP3   OH224217   4.553   3.566   2.659 -0.0877 -0.1175  0.0590
 8087TIP3    H124218   4.625   3.623   2.630 -1.4123  2.4915  1.4969
 8087TIP3    H224219   4.563   3.487   2.606  2.6516  0.9007 -1.1809
 8088TIP3   OH224220   3.791   2.983   0.277  0.1538 -0.2971 -0.5739
 8088TIP3    H124221   3.714   2.978   0.220 -0.1475 -0.6263 -0.1420
 8088TIP3    H224222   3.755   3.002   0.363  0.6201  0.3622 -0.5150
 8089TIP3   OH224223   7.500   4.771   5.092  0.0328  0.3811 -0.5819
 8089TIP3    H124224   7.522   4.678   5.092 -1.1088  0.0951 -1.0356
 8089TIP3    H224225   7.423   4.778   5.035  0.9354  1.8188 -1.7017
 8090TIP3   OH224226   5.254   1.075   2.543  0.1559 -0.3918 -0.3485
 8090TIP3    H124227   5.277   1.168   2.540 -0.2542 -0.2306  0.7338
 8090TIP3    H224228   5.303   1.035   2.472  0.5641  0.6096 -0.6473
 8091TIP3   OH224229   3.637   0.119   0.963  0.0866 -0.2134  0.2731
 8091TIP3    H124230   3.722   0.161   0.947 -0.0251  0.3928  1.1721
 8091TIP3    H224231   3.660   0.028   0.982  0.4382 -0.2958 -0.4994
 8092TIP3   OH224232   6.867   4.848   5.151 -0.2515 -0.2591 -0.7333
 8092TIP3    H124233   6.885   4.921   5.092  1.6787 -0.1376 -0.0629
 8092TIP3    H224234   6.830   4.780   5.094  2.0385 -0.3416 -2.2699
 8093TIP3   OH224235   2.227   4.696   1.733  0.2587  0.1196 -0.2789
 8093TIP3    H124236   2.145   4.684   1.781 -0.7296  1.0005 -1.6857
 8093TIP3    H224237   2.248   4.609   1.700  0.0580 -0.1693  0.3267
 8094TIP3   OH224238   5.074   3.184   2.605  0.1894  0.0907  0.2448
 8094TIP3    H124239   4.994   3.151   2.564  0.9863 -3.2156  1.0899
 8094TIP3    H224240   5.062   3.167   2.698  1.4952  0.4294  0.4839
 8095TIP3   OH224241   6.380   0.628   4.475  0.7181  0.2599  0.2810
 8095TIP3    H124242   6.357   0.535   4.476 -2.5148  0.9658  1.6129
 8095TIP3    H224243   6.381   0.651   4.382 -2.1547 -0.3677  0.0172
 8096TIP3   OH224244   0.074   0.745   1.414 -0.4178 -0.0628  0.8417
 8096TIP3    H124245  -0.001   0.688   1.432 -0.0594  0.1815  3.3880
 8096TIP3    H224246   0.144   0.712   1.471  1.6017 -0.4988 -1.6803
 8097TIP3   OH224247   6.538   2.809   1.761  0.5503 -0.0936  0.1068
 8097TIP3    H124248   6.542   2.827   1.855 -0.5460  0.2977  0.0854
 8097TIP3    H224249   6.475   2.738   1.752 -0.5382  0.9206 -0.4594
 8098TIP3   OH224250   6.666   1.597   5.319  0.2009  0.5480 -0.1845
 8098TIP3    H124251   6.752   1.584   5.277 -0.0283 -1.9932 -0.0390
 8098TIP3    H224252   6.612   1.638   5.251  0.6296 -0.8995 -1.4592
 8099TIP3   OH224253   0.771   5.268   5.887 -0.5866 -0.5020  0.1268
 8099TIP3    H124254   0.778   5.210   5.963  1.0446  1.1113  1.3017
 8099TIP3    H224255   0.680   5.297   5.886 -0.7080 -0.8123  1.2952
 8100TIP3   OH224256   4.419   7.496   2.538 -0.0706 -0.2088  0.2276
 8100TIP3    H124257   4.471   7.471   2.461 -1.0761 -1.1434 -0.1744
 8100TIP3    H224258   4.330   7.468   2.517 -0.4089 -0.2680  1.6435
 8101TIP3   OH224259   1.997   6.634   0.129 -0.0105  0.2379  0.1483
 8101TIP3    H124260   1.921   6.684   0.160  0.9208  1.2374  0.8753
 8101TIP3    H224261   2.067   6.699   0.121  1.2247 -0.9189  1.0711
 8102TIP3   OH224262   6.051   4.450   6.611 -0.3258  0.1817 -0.0418
 8102TIP3    H124263   6.028   4.458   6.704  0.1289 -0.2920  0.1153
 8102TIP3    H224264   6.146   4.454   6.610 -0.2755 -0.9820 -0.3649
 8103TIP3   OH224265   0.479   3.127   2.995 -0.3137 -0.1536  0.4362
 8103TIP3    H124266   0.412   3.061   2.980 -0.0018 -0.7527  1.5320
 8103TIP3    H224267   0.554   3.097   2.943 -0.7321  0.2840 -0.4417
 8104TIP3   OH224268   4.767   3.919   1.665  0.5051  0.3429 -0.2232
 8104TIP3    H124269   4.762   4.014   1.659  0.6240  0.4339  0.9097
 8104TIP3    H224270   4.859   3.901   1.685  0.1951  0.1032  1.0865
 8105TIP3   OH224271   6.260   5.424   4.607 -0.4292 -0.4788  0.1649
 8105TIP3    H124272   6.320   5.412   4.534 -1.2213 -1.1374 -0.3958
 8105TIP3    H224273   6.174   5.401   4.571 -0.8667 -0.5417  1.2248
 8106TIP3   OH224274   4.966   7.389   2.060 -0.9548  0.0352  0.6205
 8106TIP3    H124275   5.018   7.418   1.984 -2.0028  2.0175  0.6034
 8106TIP3    H224276   4.996   7.444   2.132  0.7912 -2.5299  2.0278
 8107TIP3   OH224277   5.148   7.418   6.269 -0.3179 -0.1068  0.2818
 8107TIP3    H124278   5.214   7.352   6.245  1.0452  1.6191 -1.0228
 8107TIP3    H224279   5.066   7.369   6.271  0.2494 -1.5141 -2.8924
 8108TIP3   OH224280   2.439   6.146   5.261  0.3490  0.0474 -0.3569
 8108TIP3    H124281   2.426   6.082   5.331  1.3300 -0.2770 -0.4583
 8108TIP3    H224282   2.476   6.223   5.305  0.9939 -0.1675 -0.5087
 8109TIP3   OH224283   7.607   4.042   3.022  0.6351 -0.3078 -0.0135
 8109TIP3    H124284   7.594   4.084   2.937 -0.7921 -0.1388  0.2625
 8109TIP3    H224285   7.694   4.071   3.051 -0.2591  2.4485  0.1418
 8110TIP3   OH224286   4.667   7.216   4.305 -0.5312  0.2723 -0.2308
 8110TIP3    H124287   4.611   7.201   4.228 -0.0649  1.5064 -0.8508
 8110TIP3    H224288   4.754   7.187   4.278 -0.1729  1.5469 -0.5270
 8111TIP3   OH224289   8.191   7.099   5.289  0.2629  0.0462  0.1297
 8111TIP3    H124290   8.101   7.070   5.272  0.7219 -0.7074 -1.1615
 8111TIP3    H224291   8.181   7.177   5.343 -1.0820 -1.1747  1.7261
 8112TIP3   OH224292   1.173   3.124   0.611 -0.2260 -0.3742 -0.3083
 8112TIP3    H124293   1.192   3.033   0.591  3.7376  0.3113 -0.3710
 8112TIP3    H224294   1.146   3.161   0.527  0.1285 -1.0503 -0.7313
 8113TIP3   OH224295   2.157   0.935   3.727 -0.6023 -0.0408 -0.2461
 8113TIP3    H124296   2.187   0.871   3.790 -0.8414  0.5021  0.4334
 8113TIP3    H224297   2.215   0.924   3.651 -1.1137 -1.5499 -0.4470
 8114TIP3   OH224298   0.454   6.399   2.103 -0.0261  0.0211 -0.1911
 8114TIP3    H124299   0.504   6.479   2.085 -0.1464  0.1367 -0.0246
 8114TIP3    H224300   0.515   6.342   2.150  0.7889 -0.9097 -2.2588
 8115TIP3   OH224301   0.049   5.877   4.246  0.1970  1.0421  0.2129
 8115TIP3    H124302   0.072   5.888   4.339  2.4953  1.3082 -0.3397
 8115TIP3    H224303   0.066   5.784   4.229  1.3667  1.3436 -0.3241
 8116TIP3   OH224304   8.132   3.984   2.267 -0.1528 -0.5068  0.0787
 8116TIP3    H124305   8.177   3.943   2.341 -1.4387 -1.4096  0.3805
 8116TIP3    H224306   8.120   4.075   2.294 -1.1012 -0.9526  1.2467
 8117TIP3   OH224307   7.292   7.746   0.255 -0.9837  0.2874  0.1779
 8117TIP3    H124308   7.322   7.777   0.169  0.4771  0.4744  0.7299
 8117TIP3    H224309   7.235   7.816   0.286 -0.1934  1.0069  0.0609
 8118TIP3   OH224310   0.823   5.520   6.361 -0.1946 -0.5331  0.1465
 8118TIP3    H124311   0.756   5.564   6.414  0.4543  1.2822 -0.4585
 8118TIP3    H224312   0.841   5.438   6.408 -1.4942 -0.1911  1.3053
 8119TIP3   OH224313   0.073   6.735   4.513  0.1593  0.4200  0.4013
 8119TIP3    H124314   0.151   6.772   4.554  1.5254 -1.0778 -0.7065
 8119TIP3    H224315   0.000   6.782   4.554  1.6021  1.6628  1.6982
 8120TIP3   OH224316   5.350   2.956   5.402 -0.5730 -0.0583  0.3339
 8120TIP3    H124317   5.255   2.959   5.416 -0.5086  0.1410  0.7378
 8120TIP3    H224318   5.376   3.048   5.394 -0.4726 -0.1271 -0.2203
 8121TIP3   OH224319   7.995   4.519   5.958 -0.5770 -0.9852 -0.7162
 8121TIP3    H124320   8.046   4.572   5.896 -0.8962  0.6761  0.3768
 8121TIP3    H224321   7.996   4.431   5.920  0.4730 -0.3434 -2.3106
 8122TIP3   OH224322   2.706   3.811   2.259  0.2280  0.0732  0.1267
 8122TIP3    H124323   2.707   3.877   2.189 -0.6058  0.7460  0.7221
 8122TIP3    H224324   2.613   3.790   2.271  0.3658 -0.1092  0.9520
 8123TIP3   OH224325   7.003   5.826   1.914  0.7184 -0.2940  0.1968
 8123TIP3    H124326   7.058   5.838   1.837  0.1346 -1.1384 -0.3577
 8123TIP3    H224327   7.015   5.907   1.964  0.9060  0.3661 -0.8927
 8124TIP3   OH224328   8.205   6.060   4.741 -0.0504 -0.0337 -0.6221
 8124TIP3    H124329   8.133   6.000   4.728  0.9010 -1.4533  0.3726
 8124TIP3    H224330   8.216   6.065   4.836  0.1472  1.4342 -0.6899
 8125TIP3   OH224331   8.158   0.214   1.703  0.4334  0.1710  0.4191
 8125TIP3    H124332   8.099   0.289   1.711 -0.2299 -0.4705  1.9154
 8125TIP3    H224333   8.137   0.176   1.618 -0.9914  0.2579  0.6956
 8126TIP3   OH224334   6.208   2.448   0.588 -0.4754  0.0593 -0.1523
 8126TIP3    H124335   6.123   2.437   0.544  0.7297 -2.0942 -2.1300
 8126TIP3    H224336   6.241   2.359   0.599  1.6706  0.8558  0.2740
 8127TIP3   OH224337   6.066   3.572   0.524  0.3461 -0.3116  0.3093
 8127TIP3    H124338   6.159   3.563   0.545  0.4345 -1.3250 -0.4490
 8127TIP3    H224339   6.065   3.611   0.436  0.2066 -3.6636 -1.3593
 8128TIP3   OH224340   1.608   0.388   6.724 -0.3063 -0.6226  0.3927
 8128TIP3    H124341   1.667   0.428   6.787 -0.5883  0.4316 -0.0011
 8128TIP3    H224342   1.666   0.340   6.665  0.4575  2.1725 -1.3112
 8129TIP3   OH224343   1.079   5.612   3.226  0.1211 -0.5800  0.0253
 8129TIP3    H124344   1.063   5.701   3.256 -0.3422 -0.2710 -1.0907
 8129TIP3    H224345   1.007   5.593   3.165  1.9828 -0.4330 -2.4123
 8130TIP3   OH224346   8.055   1.279   6.588  0.0562 -0.1488 -0.8190
 8130TIP3    H124347   7.989   1.232   6.640  1.7950 -0.9652  0.7887
 8130TIP3    H224348   8.041   1.371   6.610  0.8662 -0.4853  1.3507
 8131TIP3   OH224349   5.460   6.614   6.710  0.7061 -0.5001 -0.1149
 8131TIP3    H124350   5.394   6.680   6.729  1.4717  0.1428  0.4018
 8131TIP3    H224351   5.465   6.611   6.615  0.9326  0.4784 -0.1428
 8132TIP3   OH224352   6.927   7.341   1.720 -0.1394 -0.0791 -0.2098
 8132TIP3    H124353   6.841   7.348   1.678 -0.2866  1.5737  0.3191
 8132TIP3    H224354   6.965   7.261   1.683 -1.6605 -0.5245 -0.8811
 8133TIP3   OH224355   2.119   6.058   0.206 -0.2545  0.7807  0.0842
 8133TIP3    H124356   2.200   6.009   0.223 -0.5505  0.3716  0.3316
 8133TIP3    H224357   2.086   6.020   0.124 -1.4873 -0.7962  1.2491
 8134TIP3   OH224358   6.907   6.853   6.143 -0.5381 -0.0986  0.0230
 8134TIP3    H124359   6.902   6.795   6.067  1.1243 -0.3637  0.0886
 8134TIP3    H224360   6.850   6.812   6.209  1.2788 -2.1851  0.3954
 8135TIP3   OH224361   2.036   7.025   2.851 -0.2232 -0.1298  0.1109
 8135TIP3    H124362   2.060   7.090   2.785 -0.3919 -0.2930 -0.1164
 8135TIP3    H224363   2.118   7.003   2.894  0.2925 -1.6395 -1.5361
 8136TIP3   OH224364   5.244   3.671   4.153 -0.5089 -0.0149  0.1569
 8136TIP3    H124365   5.317   3.619   4.118 -0.3820 -0.9906  1.7964
 8136TIP3    H224366   5.200   3.705   4.075 -0.0255 -1.8035 -0.9583
 8137TIP3   OH224367   7.768   3.944   3.911 -0.1981  0.4070  0.6127
 8137TIP3    H124368   7.727   3.857   3.907 -0.6953  0.6396  0.6160
 8137TIP3    H224369   7.699   4.004   3.886 -0.2549  0.9334  1.9792
 8138TIP3   OH224370   0.695   7.509   4.327  0.2319 -0.0524 -0.4170
 8138TIP3    H124371   0.696   7.604   4.336 -0.2157  0.0300 -1.1637
 8138TIP3    H224372   0.761   7.478   4.390 -0.4754  0.6645  0.7004
 8139TIP3   OH224373   7.757   6.338   3.110  0.0371  0.0761 -0.3495
 8139TIP3    H124374   7.780   6.295   3.028 -1.1482  0.3971 -0.8759
 8139TIP3    H224375   7.704   6.413   3.083 -1.5062 -0.5699  0.7663
 8140TIP3   OH224376   3.340   5.076   6.518  0.2408 -0.4981  0.1384
 8140TIP3    H124377   3.397   5.006   6.548 -0.1815 -1.2848 -0.8222
 8140TIP3    H224378   3.369   5.094   6.429 -0.7573 -0.6563 -0.2348
 8141TIP3   OH224379   1.266   0.716   6.295 -0.2874  0.4297  0.3689
 8141TIP3    H124380   1.244   0.733   6.387 -0.2267 -0.1887  0.5018
 8141TIP3    H224381   1.332   0.648   6.298 -0.8138 -0.1201 -0.1575
 8142TIP3   OH224382   1.762   5.978   4.471 -0.5497  0.2836 -0.6044
 8142TIP3    H124383   1.784   5.978   4.564 -2.2725  1.5515 -0.1275
 8142TIP3    H224384   1.766   5.887   4.445  0.9376  0.0190  0.4561
 8143TIP3   OH224385   3.318   5.333   1.014 -0.0002 -0.2942 -0.0158
 8143TIP3    H124386   3.343   5.425   1.012 -0.8137 -0.0342  1.0580
 8143TIP3    H224387   3.347   5.301   1.099 -2.5215 -0.1731  0.9551
 8144TIP3   OH224388   3.522   0.446   2.718  0.0916  0.0217  0.1346
 8144TIP3    H124389   3.509   0.390   2.641 -2.0944 -0.7776  1.0033
 8144TIP3    H224390   3.572   0.520   2.686 -1.2823  0.0196 -2.2371
 8145TIP3   OH224391   0.320   5.810   0.454  0.4837 -0.4670 -0.3690
 8145TIP3    H124392   0.337   5.792   0.361 -0.2406 -1.4821 -0.3163
 8145TIP3    H224393   0.366   5.741   0.501 -1.6311 -1.7801 -0.1245
 8146TIP3   OH224394   2.778   3.313   3.337  0.3549 -0.3183 -0.7634
 8146TIP3    H124395   2.683   3.323   3.330  0.3459  0.2289  0.0587
 8146TIP3    H224396   2.791   3.221   3.360 -0.2088  0.3478  2.6747
 8147TIP3   OH224397   1.232   0.138   1.411  0.2014  0.0485  0.0942
 8147TIP3    H124398   1.244   0.133   1.506 -1.6006  3.2690  0.6297
 8147TIP3    H224399   1.250   0.230   1.389 -1.1869 -0.1714 -2.3679
 8148TIP3   OH224400   5.597   3.766   6.044  0.5379 -0.4446  0.2759
 8148TIP3    H124401   5.606   3.717   6.125  0.3615 -2.2501 -0.7428
 8148TIP3    H224402   5.506   3.797   6.045  0.6808 -0.0245  0.9800
 8149TIP3   OH224403   6.815   1.740   6.677 -0.6123 -0.0980  0.2764
 8149TIP3    H124404   6.837   1.807   6.613 -0.1336 -2.2819 -1.9880
 8149TIP3    H224405   6.752   1.684   6.632  0.0568 -1.9641  1.5516
 8150TIP3   OH224406   1.319   5.281   1.071  0.2501 -0.0218 -0.1558
 8150TIP3    H124407   1.308   5.197   1.115 -0.5906 -0.3736 -1.0141
 8150TIP3    H224408   1.326   5.345   1.142 -2.6718 -0.3584  0.5412
 8151TIP3   OH224409   5.184   4.558   5.110  0.0997  0.4895  0.5474
 8151TIP3    H124410   5.274   4.589   5.115  0.0553  1.1396 -1.5499
 8151TIP3    H224411   5.191   4.467   5.079  0.0501  0.5808  0.2611
 8152TIP3   OH224412   2.203   6.110   5.593  0.0129  0.0917 -0.2524
 8152TIP3    H124413   2.271   6.054   5.554  0.5146  1.1894 -1.0214
 8152TIP3    H224414   2.127   6.098   5.536  0.6903  1.5585 -1.5584
 8153TIP3   OH224415   7.800   2.147   0.203  0.1384 -0.4493  0.0980
 8153TIP3    H124416   7.727   2.090   0.180  0.8388 -0.9421 -0.9906
 8153TIP3    H224417   7.872   2.087   0.223  0.5139  0.0420  0.2461
 8154TIP3   OH224418   3.429   3.394   2.948 -0.0624  0.4002 -0.0019
 8154TIP3    H124419   3.342   3.382   2.986 -1.0553  1.5074 -1.7295
 8154TIP3    H224420   3.465   3.470   2.994 -0.2823  0.3389  0.2737
 8155TIP3   OH224421   3.776   5.530   0.500 -0.0522  0.0444 -0.5899
 8155TIP3    H124422   3.764   5.446   0.544 -0.5012 -0.7093 -2.0675
 8155TIP3    H224423   3.686   5.560   0.482  0.1239  0.1556 -1.2986
 8156TIP3   OH224424   2.284   1.628   3.450  0.4892  0.0539  0.2812
 8156TIP3    H124425   2.234   1.610   3.529  2.1587 -1.3617  1.0928
 8156TIP3    H224426   2.236   1.581   3.381  0.5728 -1.1450  1.0027
 8157TIP3   OH224427   8.138   4.684   5.747 -0.1699  0.3778 -0.2948
 8157TIP3    H124428   8.172   4.631   5.675  1.2047  1.3446 -0.4029
 8157TIP3    H224429   8.139   4.773   5.713  0.8433  0.8991  1.0079
 8158TIP3   OH224430   2.030   1.156   1.428 -0.4199 -0.1916  0.1571
 8158TIP3    H124431   2.120   1.176   1.454 -0.4204  0.4698 -0.3187
 8158TIP3    H224432   2.027   1.060   1.424  0.5633 -0.2030 -0.8305
 8159TIP3   OH224433   5.924   2.822   1.165  0.0705  1.7016  0.1169
 8159TIP3    H124434   6.012   2.833   1.202  1.3415 -2.0986 -1.3273
 8159TIP3    H224435   5.936   2.762   1.092 -3.8514  0.3142  0.3903
 8160TIP3   OH224436   4.911   6.157   6.503 -0.4527 -0.8589  0.2826
 8160TIP3    H124437   4.872   6.235   6.542 -0.3260  0.0805 -1.3773
 8160TIP3    H224438   5.000   6.155   6.538 -0.3706 -0.1055  0.1306
 8161TIP3   OH224439   7.130   4.927   2.000  0.3984 -0.4207  0.1634
 8161TIP3    H124440   7.075   4.899   2.073 -0.6613 -0.3012 -0.5678
 8161TIP3    H224441   7.216   4.944   2.040  0.1920 -1.5800  1.1495
 8162TIP3   OH224442   4.909   4.425   4.077 -0.8601  0.1166  0.4483
 8162TIP3    H124443   4.909   4.503   4.133 -0.2981 -2.4980  4.5448
 8162TIP3    H224444   5.002   4.406   4.064 -0.9961 -0.0076 -0.4030
 8163TIP3   OH224445   0.190   4.556   5.224  0.6520  0.0449  0.4829
 8163TIP3    H124446   0.222   4.642   5.199  0.7360  0.2610  1.3007
 8163TIP3    H224447   0.185   4.559   5.320 -2.1668  0.1382  0.4183
 8164TIP3   OH224448   1.035   7.496   4.617 -0.5432  0.1219 -0.1432
 8164TIP3    H124449   1.007   7.451   4.537  1.6119  0.7149 -1.3000
 8164TIP3    H224450   1.105   7.555   4.588  0.9081 -0.2686  2.3255
 8165TIP3   OH224451   0.235   2.128   5.085 -0.0320 -0.2544 -0.2675
 8165TIP3    H124452   0.236   2.032   5.093 -0.9346 -0.2221  0.4080
 8165TIP3    H224453   0.326   2.154   5.098 -0.1092 -0.8663  1.8970
 8166TIP3   OH224454   0.744   7.337   0.594 -0.0637  0.6833  0.0280
 8166TIP3    H124455   0.731   7.254   0.548 -0.2653  0.5763  0.2767
 8166TIP3    H224456   0.799   7.314   0.669 -1.5428  0.4515  1.0685
 8167TIP3   OH224457   1.399   5.686   1.989  0.3870 -0.4665 -0.1753
 8167TIP3    H124458   1.374   5.769   1.948  1.9150 -0.4110 -1.0698
 8167TIP3    H224459   1.468   5.709   2.051  0.4071 -0.9973  0.0067
 8168TIP3   OH224460   7.615   4.486   3.401 -0.3439  0.6688  0.1359
 8168TIP3    H124461   7.531   4.471   3.443  0.4429  0.1515  1.5836
 8168TIP3    H224462   7.618   4.424   3.328 -0.0811 -1.2992  1.7554
 8169TIP3   OH224463   6.097   5.504   5.546 -0.3394 -0.0005 -0.0877
 8169TIP3    H124464   6.015   5.500   5.594 -0.4752  0.7109 -0.2480
 8169TIP3    H224465   6.132   5.591   5.565  0.7196 -0.5385  0.5365
 8170TIP3   OH224466   1.979   6.787   3.868 -0.6305  0.5374  0.3295
 8170TIP3    H124467   2.029   6.800   3.949  0.4910  0.7426 -0.3780
 8170TIP3    H224468   2.015   6.708   3.829 -1.6758  0.0144  0.3810
 8171TIP3   OH224469   7.092   7.486   1.285 -0.0398  0.0520  0.1502
 8171TIP3    H124470   7.072   7.518   1.197 -0.5746  0.2491  0.3421
 8171TIP3    H224471   7.164   7.542   1.315  2.4544 -2.0779 -1.4035
 8172TIP3   OH224472   6.773   1.864   0.484  0.3259  0.7953 -0.4563
 8172TIP3    H124473   6.683   1.843   0.508  1.2856  0.6078  3.6377
 8172TIP3    H224474   6.767   1.951   0.445 -1.5571  1.1590  0.5177
 8173TIP3   OH224475   5.311   3.099   0.435 -0.0119  0.3589  0.3702
 8173TIP3    H124476   5.226   3.059   0.456 -0.7595  0.9622 -1.3153
 8173TIP3    H224477   5.373   3.053   0.491 -1.3264 -0.7151  1.0216
 8174TIP3   OH224478   6.977   0.754   0.898 -0.4727 -0.3630  0.9243
 8174TIP3    H124479   6.943   0.681   0.949  0.8844 -0.1361  2.2563
 8174TIP3    H224480   6.906   0.778   0.839 -0.8932 -2.8600  0.2924
 8175TIP3   OH224481   2.164   3.114   6.647  0.8442 -0.1424  0.0549
 8175TIP3    H124482   2.239   3.058   6.662  0.9359 -0.0882 -0.1996
 8175TIP3    H224483   2.187   3.166   6.570  0.8864  0.4627  0.4712
 8176TIP3   OH224484   3.814   0.133   3.175  0.6783  0.3192 -0.0753
 8176TIP3    H124485   3.727   0.151   3.211  0.1231 -0.5049 -0.9537
 8176TIP3    H224486   3.864   0.096   3.248  0.2964  0.8193  0.4396
 8177TIP3   OH224487   0.299   0.989   2.039  0.4866  0.3074 -0.2195
 8177TIP3    H124488   0.268   0.944   2.117 -0.6060  1.6419  0.1562
 8177TIP3    H224489   0.392   0.967   2.034  0.3707 -0.5331  0.9347
 8178TIP3   OH224490   5.854   1.516   0.371  0.1804 -0.6517  0.3090
 8178TIP3    H124491   5.787   1.540   0.435 -0.3304 -0.3132 -0.3453
 8178TIP3    H224492   5.934   1.507   0.423 -0.2120 -0.3141  0.9858
 8179TIP3   OH224493   4.879   4.818   2.622 -0.7223 -0.4715  0.1048
 8179TIP3    H124494   4.822   4.847   2.550 -0.9505  1.1165  0.8836
 8179TIP3    H224495   4.967   4.842   2.593 -0.5821 -1.5943 -0.4588
 8180TIP3   OH224496   0.952   2.331   2.301 -0.7417  0.1652 -0.2483
 8180TIP3    H124497   1.001   2.369   2.374 -0.5635  0.7666 -0.6685
 8180TIP3    H224498   0.957   2.236   2.315 -0.2218  0.2556  0.2082
 8181TIP3   OH224499   3.055   2.691   0.299 -0.5474  0.1523  0.3313
 8181TIP3    H124500   3.146   2.720   0.303 -0.5039  0.0141  0.3766
 8181TIP3    H224501   3.004   2.771   0.296 -0.6181  0.3745  3.8369
 8182TIP3   OH224502   3.670   1.374   0.787 -0.5415  0.0153 -0.2685
 8182TIP3    H124503   3.609   1.340   0.721 -1.0322 -1.0051  0.6873
 8182TIP3    H224504   3.615   1.390   0.864  0.2081  0.1905  0.2392
 8183TIP3   OH224505   0.561   1.049   3.977  0.1831 -0.2771  0.5404
 8183TIP3    H124506   0.614   1.000   4.040 -0.9952 -3.8334 -0.9682
 8183TIP3    H224507   0.624   1.090   3.918  1.2589 -0.6743  1.3954
 8184TIP3   OH224508   2.075   1.709   6.709 -0.5130 -0.8357 -0.2755
 8184TIP3    H124509   2.032   1.791   6.684 -0.5212 -0.8134 -0.1904
 8184TIP3    H224510   2.131   1.688   6.635  0.7154  0.0970  0.3412
 8185TIP3   OH224511   6.786   7.212   4.468 -0.3106 -0.2167 -0.0269
 8185TIP3    H124512   6.770   7.175   4.555 -0.5154 -0.2424 -0.0749
 8185TIP3    H224513   6.713   7.181   4.415 -1.4215  1.6606  0.3429
 8186TIP3   OH224514   2.304   3.679   2.900 -0.0432  0.9078  0.5013
 8186TIP3    H124515   2.270   3.600   2.943  1.2695 -0.1039 -0.2639
 8186TIP3    H224516   2.380   3.704   2.953  0.6754  0.5360 -0.3408
 8187TIP3   OH224517   7.235   6.697   0.760  0.0243  0.5466 -0.0980
 8187TIP3    H124518   7.307   6.676   0.700  1.3135  2.6047  0.6054
 8187TIP3    H224519   7.253   6.646   0.838 -0.5681 -0.6417 -0.7075
 8188TIP3   OH224520   0.992   1.334   3.804  0.1846  0.8093  0.4789
 8188TIP3    H124521   1.076   1.295   3.780 -0.6511 -1.0334  0.4015
 8188TIP3    H224522   1.014   1.398   3.872  1.4881 -0.8849  1.7419
 8189TIP3   OH224523   1.425   2.692   2.984 -0.2402  0.9073  0.5311
 8189TIP3    H124524   1.411   2.776   2.942 -2.1799  0.2496 -0.2812
 8189TIP3    H224525   1.364   2.691   3.057 -0.1068  0.2864  0.6451
 8190TIP3   OH224526   1.166   3.043   5.192  0.2833  0.0272 -0.1582
 8190TIP3    H124527   1.178   2.994   5.273 -0.2487 -0.3692 -0.3164
 8190TIP3    H224528   1.248   3.030   5.144 -0.2481 -1.6298 -0.6870
 8191TIP3   OH224529   7.978   0.786   1.362 -0.3704 -0.3333 -0.2665
 8191TIP3    H124530   7.912   0.734   1.406 -1.3408  1.5977  0.7030
 8191TIP3    H224531   7.940   0.874   1.356  0.7743  0.0975 -2.7025
 8192TIP3   OH224532   2.459   1.459   0.910  0.5051 -0.1750 -0.2078
 8192TIP3    H124533   2.537   1.502   0.875  0.3421 -0.0626 -0.4314
 8192TIP3    H224534   2.486   1.368   0.922  0.6799 -0.1305 -0.2599
 8193TIP3   OH224535   4.238   0.563   4.690  0.0449  0.1230 -0.4933
 8193TIP3    H124536   4.152   0.524   4.670  0.5795 -1.2687 -0.1533
 8193TIP3    H224537   4.227   0.656   4.668 -1.9138  0.2162  0.6577
 8194TIP3   OH224538   0.968   5.981   4.661 -0.1874  0.3943  0.2826
 8194TIP3    H124539   0.920   5.973   4.743  0.5288  1.2070  0.7960
 8194TIP3    H224540   0.913   6.036   4.606 -0.3229  0.4695  0.4919
 8195TIP3   OH224541   0.117   0.661   0.392 -0.0592 -0.0888  0.1707
 8195TIP3    H124542   0.166   0.629   0.467 -1.7926 -2.3392  0.4461
 8195TIP3    H224543   0.113   0.586   0.332 -1.9759  0.4175 -0.4114
 8196TIP3   OH224544   6.962   5.079   4.964  0.2616  0.2063 -0.0080
 8196TIP3    H124545   6.959   5.033   4.880 -1.6789 -2.0700  1.1920
 8196TIP3    H224546   7.053   5.073   4.992  0.2392 -2.3473 -0.2690
 8197TIP3   OH224547   5.433   3.935   3.938  0.7006  0.0681  0.7061
 8197TIP3    H124548   5.497   3.959   4.004 -0.7536  1.1152  1.8024
 8197TIP3    H224549   5.432   3.839   3.939  2.8923 -0.0137 -0.0504
 8198TIP3   OH224550   8.096   7.068   0.705 -0.3776  0.2574  0.4129
 8198TIP3    H124551   8.187   7.065   0.677 -0.3488 -0.6628  0.5662
 8198TIP3    H224552   8.056   7.136   0.650 -0.2392 -1.2522 -1.6960
 8199TIP3   OH224553   1.068   7.001   0.592  0.5246 -0.4626  0.1972
 8199TIP3    H124554   1.117   7.008   0.511 -0.3803 -1.2338 -0.4411
 8199TIP3    H224555   1.078   7.087   0.634  0.1913  0.3032 -1.2149
 8200TIP3   OH224556   0.484   4.145   1.693 -0.3268  0.1262  0.2509
 8200TIP3    H124557   0.447   4.063   1.661  0.6585 -0.0327 -0.5344
 8200TIP3    H224558   0.541   4.119   1.765 -0.4024  0.1710  0.3261
 8201TIP3   OH224559   2.393   5.691   0.842 -0.0830 -0.6417 -0.2827
 8201TIP3    H124560   2.323   5.625   0.837 -1.1448  0.4452 -0.3972
 8201TIP3    H224561   2.424   5.699   0.752  0.9232 -1.8636 -0.0638
 8202TIP3   OH224562   6.879   5.823   0.580  0.1181 -0.3913  0.5163
 8202TIP3    H124563   6.849   5.907   0.614 -0.6972  1.4726 -4.1489
 8202TIP3    H224564   6.823   5.758   0.624 -2.9747  2.0066  0.4670
 8203TIP3   OH224565   7.250   4.255   3.809  0.0577  0.5297 -0.5005
 8203TIP3    H124566   7.210   4.277   3.893  0.2058 -1.3088  0.0958
 8203TIP3    H224567   7.175   4.243   3.750 -0.0570  1.5692 -0.5810
 8204TIP3   OH224568   1.667   1.303   3.293  0.6638 -0.0546 -0.0500
 8204TIP3    H124569   1.734   1.239   3.319  0.3098 -0.0268  0.9587
 8204TIP3    H224570   1.696   1.334   3.207  1.4121 -0.7815 -0.0726
 8205TIP3   OH224571   0.011   7.697   1.224  0.1856  0.2667 -0.9569
 8205TIP3    H124572   0.029   7.776   1.274 -0.9618 -0.1303  0.1174
 8205TIP3    H224573   0.067   7.705   1.147  1.5950  1.1558  0.1005
 8206TIP3   OH224574   1.748   4.142   5.211  0.4416 -0.1897 -0.5234
 8206TIP3    H124575   1.698   4.071   5.171 -0.5630  0.5341 -0.5842
 8206TIP3    H224576   1.687   4.184   5.271  0.0737  2.3597 -2.4906
 8207TIP3   OH224577   6.055   7.231   4.229  0.1226 -0.1397  0.4422
 8207TIP3    H124578   6.113   7.221   4.154  0.4483 -0.3222  0.7170
 8207TIP3    H224579   6.015   7.145   4.241  0.4973 -0.2606  0.8264
 8208TIP3   OH224580   0.688   4.377   6.084 -0.1441  0.1088 -0.0647
 8208TIP3    H124581   0.767   4.325   6.074 -0.8805 -0.9878 -0.4339
 8208TIP3    H224582   0.636   4.357   6.006 -1.1027  0.2017  0.5342
 8209TIP3   OH224583   5.780   6.114   3.502 -0.1202 -0.1803 -0.5370
 8209TIP3    H124584   5.735   6.197   3.520 -0.6299 -0.2372 -1.5157
 8209TIP3    H224585   5.775   6.067   3.585  1.4185  1.3148  0.4899
 8210TIP3   OH224586   5.647   5.257   3.229 -0.5448  1.1529  0.1285
 8210TIP3    H124587   5.656   5.287   3.320 -1.0960  2.6590 -0.2810
 8210TIP3    H224588   5.561   5.287   3.202 -0.4006  0.6956 -0.8866
 8211TIP3   OH224589   1.533   5.891   2.223  0.8419  0.2295  0.1013
 8211TIP3    H124590   1.520   5.923   2.312  1.3858  0.8096 -0.0230
 8211TIP3    H224591   1.549   5.970   2.171  0.9550 -0.1408 -0.4381
 8212TIP3   OH224592   8.301   0.339   5.477  0.0888  0.4237 -0.1054
 8212TIP3    H124593   8.219   0.352   5.430 -1.3929 -1.1883  1.8589
 8212TIP3    H224594   8.294   0.394   5.555  0.0630 -1.0077  0.9466
 8213TIP3   OH224595   5.128   0.626   4.910 -0.1814  0.2940  1.1259
 8213TIP3    H124596   5.092   0.692   4.970  0.9098  0.1513  1.9693
 8213TIP3    H224597   5.135   0.547   4.962  0.4922  0.0790  0.7210
 8214TIP3   OH224598   2.233   4.029   0.436 -0.2118  0.3091  0.3156
 8214TIP3    H124599   2.209   3.951   0.386 -0.8772  0.6105  0.1604
 8214TIP3    H224600   2.183   4.100   0.396  0.3587  0.8184  0.4780
 8215TIP3   OH224601   5.623   4.566   0.242  0.0356 -0.4387  1.2067
 8215TIP3    H124602   5.601   4.658   0.222  0.3881 -0.2436  1.7015
 8215TIP3    H224603   5.552   4.536   0.298 -0.0533 -0.4579  1.0860
 8216TIP3   OH224604   2.540   2.827   0.837 -0.2497 -0.0717  0.2027
 8216TIP3    H124605   2.473   2.850   0.773 -1.2345 -0.2572  1.1385
 8216TIP3    H224606   2.575   2.911   0.866 -0.0238  0.0233 -0.3164
 8217TIP3   OH224607   2.744   0.707   0.892  0.1295  0.4146 -0.0721
 8217TIP3    H124608   2.830   0.665   0.883 -0.1468 -0.1103 -0.3141
 8217TIP3    H224609   2.682   0.638   0.871 -0.3988  0.4591  1.2500
 8218TIP3   OH224610   0.017   0.354   1.945 -0.2266  0.7059 -0.2145
 8218TIP3    H124611   0.097   0.386   1.903  0.5249 -0.9173 -0.0793
 8218TIP3    H224612  -0.022   0.295   1.882  1.0404 -1.9528  1.3241
 8219TIP3   OH224613   3.725   7.396   0.920  0.7123 -0.0025 -0.0930
 8219TIP3    H124614   3.718   7.429   0.830  1.0182  1.8628  0.5195
 8219TIP3    H224615   3.817   7.406   0.943  0.8786 -1.6249  0.0444
 8220TIP3   OH224616   2.241   6.214   3.862  0.1326  0.6246  0.0263
 8220TIP3    H124617   2.294   6.181   3.790 -0.8747 -1.4363  0.1676
 8220TIP3    H224618   2.305   6.255   3.921  1.1286  1.1696 -1.3690
 8221TIP3   OH224619   7.472   7.382   5.849  0.6934 -0.0401 -0.1222
 8221TIP3    H124620   7.475   7.476   5.830 -0.8756 -0.3296 -2.0948
 8221TIP3    H224621   7.394   7.351   5.803  3.3456 -3.0655 -2.9848
 8222TIP3   OH224622   6.184   1.243   2.220 -0.2447 -0.1979  0.1657
 8222TIP3    H124623   6.188   1.153   2.253 -0.8159  0.2467  1.5110
 8222TIP3    H224624   6.250   1.291   2.270 -0.0678  0.1853 -0.4157
 8223TIP3   OH224625   4.649   0.185   5.993 -0.2086  0.5171  0.1227
 8223TIP3    H124626   4.700   0.254   5.950  0.2773 -0.8942 -1.7152
 8223TIP3    H224627   4.693   0.172   6.077  1.9441  0.0246 -0.9975
 8224TIP3   OH224628   1.779   4.918   5.711 -0.7674  0.3535 -0.6756
 8224TIP3    H124629   1.787   4.973   5.789 -1.1718 -1.2240  0.5287
 8224TIP3    H224630   1.687   4.926   5.686 -1.0483 -0.4571  0.0514
 8225TIP3   OH224631   0.079   6.946   3.426 -1.0285  0.4907 -0.8626
 8225TIP3    H124632   0.108   6.966   3.337  0.3395  1.2853 -0.2594
 8225TIP3    H224633   0.075   7.030   3.470  1.1480 -0.1264  0.6469
 8226TIP3   OH224634   1.674   5.762   4.911  1.1012  0.3243  0.4367
 8226TIP3    H124635   1.713   5.843   4.942  2.1530  0.3311 -0.8424
 8226TIP3    H224636   1.611   5.788   4.844  0.2590  0.1789  1.1533
 8227TIP3   OH224637   5.911   4.171   0.245 -0.5704 -0.2475  0.1022
 8227TIP3    H124638   5.946   4.125   0.169  2.0054 -1.3335  1.8047
 8227TIP3    H224639   5.910   4.263   0.220 -2.5824 -0.7934 -2.1831
 8228TIP3   OH224640   4.724   2.356   1.393  0.2267 -0.2534 -0.5353
 8228TIP3    H124641   4.774   2.291   1.442 -0.8811 -1.8023 -1.3725
 8228TIP3    H224642   4.674   2.402   1.460  0.5418 -0.7009  0.0186
 8229TIP3   OH224643   7.206   1.761   3.381  0.5461 -0.0789  0.3548
 8229TIP3    H124644   7.209   1.734   3.472 -0.8613  0.3257  0.5419
 8229TIP3    H224645   7.267   1.835   3.376  0.6795 -0.1428  0.9554
 8230TIP3   OH224646   0.451   0.501   4.756 -0.0787 -0.2244 -0.0031
 8230TIP3    H124647   0.368   0.544   4.777 -0.0686 -0.7147  1.0881
 8230TIP3    H224648   0.432   0.407   4.765  0.5212 -0.3532 -0.0287
 8231TIP3   OH224649   5.860   6.920   5.475  0.2964  0.2136  0.1289
 8231TIP3    H124650   5.869   7.015   5.487  1.3312  0.0426  0.8827
 8231TIP3    H224651   5.934   6.895   5.420 -0.0648 -0.1394 -0.2051
 8232TIP3   OH224652   2.819   5.327   1.476 -0.2667  0.8685  0.1316
 8232TIP3    H124653   2.797   5.402   1.421 -1.2371 -0.1533 -0.9199
 8232TIP3    H224654   2.747   5.265   1.463  0.7301 -0.4432  0.6132
 8233TIP3   OH224655   1.024   3.527   3.294 -0.6101  0.3112  0.7661
 8233TIP3    H124656   0.950   3.517   3.354  0.0530 -0.3807  1.4894
 8233TIP3    H224657   1.048   3.620   3.301 -1.7494  0.6738  0.0984
 8234TIP3   OH224658   6.407   1.045   1.752 -0.5287 -0.1770  0.1785
 8234TIP3    H124659   6.332   1.096   1.722  0.2829  1.1973  0.3835
 8234TIP3    H224660   6.406   1.055   1.847  0.3357  0.5132  0.1327
 8235TIP3   OH224661   5.588   3.785   0.737 -0.2719 -0.6622 -0.1511
 8235TIP3    H124662   5.649   3.759   0.668 -0.9355 -0.9231 -0.6461
 8235TIP3    H224663   5.512   3.727   0.725 -1.9204  1.6262 -1.4346
 8236TIP3   OH224664   4.230   5.188   1.007  0.3955 -0.4106 -0.4076
 8236TIP3    H124665   4.272   5.194   1.092  0.6440  0.4033 -0.5728
 8236TIP3    H224666   4.286   5.240   0.949 -1.0432  1.1033 -0.5456
 8237TIP3   OH224667   3.074   5.169   6.294 -0.3605 -0.1198  0.5671
 8237TIP3    H124668   2.987   5.200   6.268  0.3065 -0.4350 -2.3909
 8237TIP3    H224669   3.131   5.245   6.281  0.8829 -1.5430 -4.4937
 8238TIP3   OH224670   3.522   6.331   0.063 -0.6470 -0.2799  0.2360
 8238TIP3    H124671   3.584   6.399   0.034 -1.1767 -0.6122 -1.8321
 8238TIP3    H224672   3.463   6.319  -0.011 -0.1674 -3.5075  0.2316
 8239TIP3   OH224673   4.745   6.696   3.161  0.0945 -0.2055  0.0196
 8239TIP3    H124674   4.809   6.657   3.220 -0.3527 -0.4946  0.3179
 8239TIP3    H224675   4.745   6.639   3.084  1.3454  0.6762 -0.6781
 8240TIP3   OH224676   0.408   2.885   3.154 -0.5615 -0.3686  0.4199
 8240TIP3    H124677   0.474   2.913   3.218 -0.3537  0.2842 -0.0630
 8240TIP3    H224678   0.458   2.832   3.092 -0.4474  0.2355 -0.0201
 8241TIP3   OH224679   4.334   1.977   2.684 -0.6271  0.0651  0.2018
 8241TIP3    H124680   4.418   2.014   2.709 -0.4914  0.0413 -0.2075
 8241TIP3    H224681   4.306   2.029   2.608  0.2132 -1.5099 -1.2493
 8242TIP3   OH224682   0.227   2.457   5.957 -0.1901 -0.0348  0.4547
 8242TIP3    H124683   0.144   2.501   5.976 -0.2474  0.4277 -0.7864
 8242TIP3    H224684   0.291   2.504   6.009 -0.3497  1.1476 -0.3867
 8243TIP3   OH224685   2.526   1.143   1.945 -0.3489 -0.8451 -0.6618
 8243TIP3    H124686   2.555   1.055   1.970  0.7587 -0.3428 -0.0796
 8243TIP3    H224687   2.549   1.198   2.020  0.2784  0.1790 -1.5697
 8244TIP3   OH224688   0.354   1.198   6.300  0.6949 -0.5844 -0.0195
 8244TIP3    H124689   0.413   1.132   6.335 -0.5117 -0.8390  1.6813
 8244TIP3    H224690   0.296   1.220   6.373 -0.1060  1.0250 -1.0674
 8245TIP3   OH224691   3.501   5.839   6.318 -0.2024  0.0126  0.0136
 8245TIP3    H124692   3.546   5.892   6.384  0.0870 -0.9835  0.6428
 8245TIP3    H224693   3.513   5.887   6.236  1.6864 -0.0107  0.2233
 8246TIP3   OH224694   2.936   3.745   3.789  0.0854 -0.2769  0.0559
 8246TIP3    H124695   2.994   3.674   3.814 -0.7104 -0.9166  0.1316
 8246TIP3    H224696   2.848   3.715   3.813 -0.6090 -0.4478 -2.3786
 8247TIP3   OH224697   5.486   4.143   6.220  0.7818 -0.4032 -0.4435
 8247TIP3    H124698   5.563   4.092   6.246  0.3477 -0.3833  0.9462
 8247TIP3    H224699   5.515   4.192   6.143  1.7675 -1.3483 -0.6890
 8248TIP3   OH224700   0.647   2.552   1.552  0.1168  0.0530  0.7506
 8248TIP3    H124701   0.567   2.559   1.500 -0.2578 -0.8872  1.1785
 8248TIP3    H224702   0.710   2.607   1.507 -0.5299  0.1319 -0.0730
 8249TIP3   OH224703   3.627   4.628   6.576 -0.4405 -0.1560  0.3923
 8249TIP3    H124704   3.706   4.627   6.521 -0.5223 -0.4504  0.2780
 8249TIP3    H224705   3.562   4.674   6.523 -0.1656  0.6505  0.7444
 8250TIP3   OH224706   5.406   6.857   5.592 -0.6614  0.1376  0.1912
 8250TIP3    H124707   5.476   6.890   5.536  0.4560  0.0899  1.5156
 8250TIP3    H224708   5.448   6.789   5.646 -1.7971 -0.1036  0.8072
 8251TIP3   OH224709   6.651   7.633   4.505 -0.0827  0.4558  0.3857
 8251TIP3    H124710   6.571   7.674   4.470 -0.6779 -1.5408 -0.7853
 8251TIP3    H224711   6.675   7.568   4.439  1.6698 -0.0357  1.4429
 8252TIP3   OH224712   7.459   6.998   0.170  0.4081  0.2526 -0.2232
 8252TIP3    H124713   7.382   6.942   0.180  0.8646 -0.2924  0.2716
 8252TIP3    H224714   7.476   6.998   0.076  0.9438 -1.1816 -0.1438
 8253TIP3   OH224715   0.724   7.223   1.415 -0.7057 -0.2346  0.8761
 8253TIP3    H124716   0.641   7.223   1.367 -0.5897  0.0946  0.6738
 8253TIP3    H224717   0.706   7.171   1.493 -0.7959 -1.0761  0.3071
 8254TIP3   OH224718   4.271   4.995   2.495  0.2481  0.8334 -0.0716
 8254TIP3    H124719   4.243   5.031   2.580 -1.9343 -0.6278 -0.1063
 8254TIP3    H224720   4.242   5.060   2.431 -0.8779  0.5286  0.1032
 8255TIP3   OH224721   4.194   3.373   3.003 -0.1862 -0.3297 -0.1157
 8255TIP3    H124722   4.263   3.360   2.938 -1.1272 -0.6922 -1.0831
 8255TIP3    H224723   4.212   3.308   3.070 -0.6022 -1.6835 -1.2603
 8256TIP3   OH224724   1.272   3.202   5.505  0.4848  0.3272 -0.2170
 8256TIP3    H124725   1.320   3.254   5.570  2.0740  1.4589 -2.1514
 8256TIP3    H224726   1.238   3.267   5.443  0.5049 -0.7902 -1.4503
 8257TIP3   OH224727   7.883   1.982   6.231  0.1788 -1.1505 -0.0491
 8257TIP3    H124728   7.958   2.005   6.177 -0.2019 -0.6571 -0.3771
 8257TIP3    H224729   7.813   2.039   6.200 -0.0892 -0.9697  0.8505
 8258TIP3   OH224730   4.060   2.897   5.498 -0.2937  0.1557  0.0981
 8258TIP3    H124731   4.085   2.976   5.545 -2.9926  0.0964  1.8535
 8258TIP3    H224732   4.066   2.827   5.563  0.0590 -0.7614 -0.8736
 8259TIP3   OH224733   7.873   4.186   2.728 -0.3535  0.3674 -0.2750
 8259TIP3    H124734   7.824   4.206   2.648 -0.1355  0.2464 -0.4414
 8259TIP3    H224735   7.880   4.091   2.728  2.3720  0.4436 -1.7968
 8260TIP3   OH224736   0.666   2.009   3.319 -0.0763 -0.2000  0.1913
 8260TIP3    H124737   0.757   2.036   3.334 -0.1540 -0.2933  0.8383
 8260TIP3    H224738   0.636   1.974   3.403 -1.9325  3.3414  1.2198
 8261TIP3   OH224739   5.358   7.786   4.320 -0.1629  0.7306 -0.2124
 8261TIP3    H124740   5.360   7.790   4.224  0.7134  0.6196 -0.2117
 8261TIP3    H224741   5.449   7.766   4.344 -0.2192  1.4969  0.6725
 8262TIP3   OH224742   3.111   6.398   1.476  0.3500 -0.2899 -0.3222
 8262TIP3    H124743   3.035   6.342   1.461 -0.5245  0.1568  1.9892
 8262TIP3    H224744   3.182   6.336   1.494 -0.1772 -0.6927  0.4164
 8263TIP3   OH224745   3.649   1.767   3.850 -0.4804 -0.1340  0.2352
 8263TIP3    H124746   3.576   1.706   3.861 -2.2675  1.5378 -1.4833
 8263TIP3    H224747   3.655   1.780   3.755  1.0669  0.9125  0.4478
 8264TIP3   OH224748   0.503   0.859   1.654  0.7370 -0.5007 -0.4412
 8264TIP3    H124749   0.459   0.944   1.658 -3.3422 -2.4084  1.4988
 8264TIP3    H224750   0.557   0.856   1.733  0.5787  0.1514 -0.3025
 8265TIP3   OH224751   7.508   4.440   2.181  0.3171  0.3872 -0.1783
 8265TIP3    H124752   7.413   4.444   2.192  0.3273  0.6270 -0.1835
 8265TIP3    H224753   7.538   4.530   2.194  0.4271  0.5158 -1.2694
 8266TIP3   OH224754   0.226   0.072   3.512  0.0433  0.4454  0.2399
 8266TIP3    H124755   0.139   0.082   3.552 -0.9033 -1.3853 -1.2293
 8266TIP3    H224756   0.287   0.092   3.583 -1.5467  1.8854  1.2826
 8267TIP3   OH224757   3.278   1.119   4.681  0.7570  0.2938 -0.3831
 8267TIP3    H124758   3.278   1.055   4.753  1.8525 -0.5258 -1.0620
 8267TIP3    H224759   3.369   1.151   4.678  0.3922  1.3495 -0.5314
 8268TIP3   OH224760   4.636   7.134   3.597 -0.1121  0.4327  0.3169
 8268TIP3    H124761   4.723   7.127   3.559  1.5686  1.5568  3.6335
 8268TIP3    H224762   4.605   7.043   3.603  1.6960 -0.1712  0.9512
 8269TIP3   OH224763   2.176   6.326   0.877 -0.2383 -0.3488  0.0975
 8269TIP3    H124764   2.233   6.286   0.811 -0.3485 -1.1136  0.4534
 8269TIP3    H224765   2.194   6.277   0.957 -1.7662 -0.9500  0.1010
 8270TIP3   OH224766   1.984   4.251   5.094 -0.4390  0.0147  0.2867
 8270TIP3    H124767   2.018   4.167   5.063  1.7095  0.0778  2.1900
 8270TIP3    H224768   1.909   4.228   5.149  0.9628 -0.8795  1.9306
 8271TIP3   OH224769   4.298   6.187   3.268 -0.1136 -0.0032 -0.0371
 8271TIP3    H124770   4.239   6.231   3.207  1.7076 -0.3734 -2.2118
 8271TIP3    H224771   4.244   6.170   3.345 -1.9673  2.4254 -0.6395
 8272TIP3   OH224772   6.053   2.234   2.025  0.1851  0.0571  0.5106
 8272TIP3    H124773   6.123   2.204   2.083 -0.4016 -1.4730  0.4826
 8272TIP3    H224774   6.001   2.156   2.009 -0.5077  0.7793 -0.9175
 8273TIP3   OH224775   4.085   4.279   5.024  0.0310 -0.4411 -0.0955
 8273TIP3    H124776   4.051   4.276   5.114  0.7449 -0.8958  0.1691
 8273TIP3    H224777   4.051   4.200   4.983 -1.7131  0.6032 -0.7746
 8274TIP3   OH224778   0.377   1.133   1.680 -0.2418 -0.3557 -0.0532
 8274TIP3    H124779   0.305   1.106   1.624  0.2990  0.1113 -1.0051
 8274TIP3    H224780   0.335   1.170   1.757 -0.9972 -2.4381  0.5975
 8275TIP3   OH224781   1.527   5.181   2.945 -0.0442 -0.0678 -0.0555
 8275TIP3    H124782   1.509   5.117   3.015 -2.1880 -1.0458 -1.3908
 8275TIP3    H224783   1.594   5.140   2.891 -0.1352 -0.3974  0.0806
 8276TIP3   OH224784   8.130   0.716   0.398  0.1744 -0.2374  0.1048
 8276TIP3    H124785   8.219   0.696   0.367  0.4647  0.7530  0.2939
 8276TIP3    H224786   8.077   0.646   0.361  1.3143 -1.9928  1.5867
 8277TIP3   OH224787   0.037   2.084   1.392 -0.2182  0.4845  0.3012
 8277TIP3    H124788  -0.047   2.110   1.354 -0.8125 -0.1246  1.1712
 8277TIP3    H224789   0.075   2.025   1.327 -0.6928  0.3627  0.1299
 8278TIP3   OH224790   0.847   3.830   1.969 -0.2987  0.0640  0.2343
 8278TIP3    H124791   0.923   3.886   1.959 -0.6287  0.5420  0.3478
 8278TIP3    H224792   0.882   3.745   1.994  0.2400  0.0723 -0.4915
 8279TIP3   OH224793   7.449   2.570   0.403  0.2045 -0.0976  0.6281
 8279TIP3    H124794   7.479   2.513   0.332  0.1149  0.4530  0.1376
 8279TIP3    H224795   7.528   2.591   0.453  0.2390 -0.6265  0.7931
 8280TIP3   OH224796   7.045   5.235   3.625 -0.5260 -0.1006 -0.0174
 8280TIP3    H124797   6.954   5.265   3.623 -0.5592 -0.1556  0.6300
 8280TIP3    H224798   7.042   5.147   3.587 -1.2904 -1.5015  3.0233
 8281TIP3   OH224799   5.438   3.667   3.900  0.2536 -0.8400  0.3745
 8281TIP3    H124800   5.430   3.612   3.822  0.0768 -1.0642  0.5527
 8281TIP3    H224801   5.498   3.620   3.957  0.7531 -0.4521  0.1829
 8282TIP3   OH224802   7.021   4.471   3.171  0.3163  0.5868 -0.3440
 8282TIP3    H124803   6.960   4.537   3.139 -2.6845 -1.6766  0.2092
 8282TIP3    H224804   7.046   4.421   3.094  1.3621  1.3963 -0.5429
 8283TIP3   OH224805   2.755   3.330   1.255 -0.2956 -0.7420 -0.2240
 8283TIP3    H124806   2.665   3.307   1.280 -0.4290 -1.4608 -1.3017
 8283TIP3    H224807   2.769   3.416   1.293 -1.5434 -0.4949 -0.2768
 8284TIP3   OH224808   7.618   0.628   4.601 -0.3112 -0.2372  0.8196
 8284TIP3    H124809   7.677   0.665   4.536 -0.2648  0.4727  1.2522
 8284TIP3    H224810   7.535   0.616   4.555  0.1226 -1.1082  0.2488
 8285TIP3   OH224811   1.323   6.273   4.308 -0.2118  0.0253  0.6774
 8285TIP3    H124812   1.387   6.206   4.331 -0.6949  0.2737  2.8878
 8285TIP3    H224813   1.361   6.355   4.340 -0.9606  0.4012  0.6323
 8286TIP3   OH224814   3.363   6.198   4.224 -0.0089 -0.0806  0.2387
 8286TIP3    H124815   3.452   6.194   4.188 -0.7430  0.7608 -1.8332
 8286TIP3    H224816   3.334   6.287   4.204 -1.6675 -0.6618 -0.0291
 8287TIP3   OH224817   4.258   7.128   5.226  0.7560 -0.1965  0.9104
 8287TIP3    H124818   4.353   7.127   5.215  0.9130 -0.6666  2.1941
 8287TIP3    H224819   4.231   7.213   5.190  1.5382 -0.4003 -0.2293
 8288TIP3   OH224820   1.874   1.504   2.505 -0.2655 -0.2292  0.0915
 8288TIP3    H124821   1.815   1.516   2.579 -1.2608 -0.6098 -0.6206
 8288TIP3    H224822   1.948   1.562   2.523  0.0298 -1.1153  1.9056
 8289TIP3   OH224823   5.866   2.340   2.285 -0.1749 -0.3825  0.5524
 8289TIP3    H124824   5.941   2.282   2.300  0.1570  0.6110  3.3781
 8289TIP3    H224825   5.899   2.427   2.306 -1.6962  0.3214  0.1859
 8290TIP3   OH224826   3.023   2.114   2.374 -0.1640  0.1642 -0.0796
 8290TIP3    H124827   3.065   2.159   2.301 -1.0415 -0.4601 -1.0083
 8290TIP3    H224828   3.011   2.024   2.343  1.9527 -0.9124  1.8848
 8291TIP3   OH224829   8.108   1.950   2.455  0.4981 -0.2818  0.1078
 8291TIP3    H124830   8.149   2.037   2.448 -0.3288  0.1423  0.4005
 8291TIP3    H224831   8.176   1.889   2.427  0.9675  0.4945 -0.4836
 8292TIP3   OH224832   5.571   0.593   0.158 -0.0063  0.5832  0.5098
 8292TIP3    H124833   5.584   0.606   0.064  0.5334  1.1715  0.6617
 8292TIP3    H224834   5.581   0.680   0.196 -1.3437  0.5471  1.0034
 8293TIP3   OH224835   6.408   6.196   5.949 -0.4399 -0.2945  0.0699
 8293TIP3    H124836   6.468   6.126   5.975 -1.3205 -0.8083  0.7771
 8293TIP3    H224837   6.462   6.256   5.898  0.6613 -0.7774  0.6287
 8294TIP3   OH224838   3.699   5.212   4.750  0.0244 -0.0735  0.3365
 8294TIP3    H124839   3.678   5.229   4.658 -1.7547  1.5959  0.9890
 8294TIP3    H224840   3.676   5.294   4.795  2.5003 -0.2286  2.0477
 8295TIP3   OH224841   1.823   0.638   1.015  0.1520 -0.1902 -0.3073
 8295TIP3    H124842   1.832   0.721   0.968 -0.1238 -0.7947 -1.4658
 8295TIP3    H224843   1.773   0.660   1.094  2.3357  1.2209  0.7765
 8296TIP3   OH224844   0.956   3.183   3.624 -0.1733  0.0992  0.3558
 8296TIP3    H124845   0.978   3.116   3.558  0.9978  0.9827 -0.1946
 8296TIP3    H224846   1.039   3.230   3.638 -0.7968  0.9452  1.2913
 8297TIP3   OH224847   5.838   6.540   3.614 -0.2883 -0.3045 -0.6751
 8297TIP3    H124848   5.750   6.521   3.580 -0.5167 -0.8493  0.1563
 8297TIP3    H224849   5.866   6.457   3.654 -0.6076  0.6133  1.6296
 8298TIP3   OH224850   1.909   7.145   3.446 -0.2966  0.2505  0.5299
 8298TIP3    H124851   1.935   7.237   3.451 -1.1865  0.4477  1.6715
 8298TIP3    H224852   1.821   7.147   3.409 -0.8276 -0.0456  1.7476
 8299TIP3   OH224853   7.338   6.915   5.036  0.3188 -0.4384  0.6819
 8299TIP3    H124854   7.421   6.871   5.051  1.3694  1.8043  1.9380
 8299TIP3    H224855   7.349   6.959   4.951  0.4807 -0.0158  0.9205
 8300TIP3   OH224856   6.034   4.072   4.687 -0.1438 -0.1045 -0.2228
 8300TIP3    H124857   6.051   4.085   4.593  1.7036  0.2404  0.1235
 8300TIP3    H224858   6.015   3.978   4.695 -0.4860 -0.1071 -0.9534
 8301TIP3   OH224859   1.529   2.537   6.348  0.6183  0.4138 -0.0140
 8301TIP3    H124860   1.582   2.458   6.362  0.2082  0.3310  1.1532
 8301TIP3    H224861   1.579   2.606   6.392  0.2326  0.5153  0.2661
 8302TIP3   OH224862   3.740   3.663   4.272 -0.0372 -0.1242 -0.0681
 8302TIP3    H124863   3.775   3.699   4.353  2.7424 -1.6296 -0.4993
 8302TIP3    H224864   3.724   3.740   4.217 -1.1383  0.8485  1.5453
 8303TIP3   OH224865   4.896   7.177   3.498  1.0047 -0.5759  0.2476
 8303TIP3    H124866   4.876   7.168   3.405  0.0635  0.4635  0.3302
 8303TIP3    H224867   4.946   7.258   3.504 -2.6085  1.8388  1.0719
 8304TIP3   OH224868   2.120   3.207   1.213  0.3534 -0.3397 -0.2202
 8304TIP3    H124869   2.083   3.120   1.228  0.6208 -0.1730  1.7998
 8304TIP3    H224870   2.215   3.193   1.216  0.4551  0.2490  2.5225
 8305TIP3   OH224871   6.485   1.436   6.712  0.2189  0.0617  0.4862
 8305TIP3    H124872   6.485   1.419   6.617  1.6841  0.3396  0.4082
 8305TIP3    H224873   6.568   1.399   6.742  0.5765  1.5063  1.3692
 8306TIP3   OH224874   7.412   4.811   1.595  0.9639 -0.5614 -0.2038
 8306TIP3    H124875   7.396   4.762   1.514 -0.3340 -0.5049 -0.0113
 8306TIP3    H224876   7.412   4.744   1.664  0.1096 -0.4211 -0.0482
 8307TIP3   OH224877   0.991   4.090   5.380  0.0597  0.3645 -0.1029
 8307TIP3    H124878   0.940   4.150   5.435  0.4939  0.4278  0.2330
 8307TIP3    H224879   0.963   4.111   5.291  1.6170  2.4863 -0.1800
 8308TIP3   OH224880   7.344   4.273   0.714 -0.3931  0.5121 -0.1683
 8308TIP3    H124881   7.405   4.248   0.644 -1.2037  1.9647 -1.4587
 8308TIP3    H224882   7.396   4.329   0.772 -0.6061  2.4287 -1.7065
 8309TIP3   OH224883   0.125   3.864   5.220  0.2707  0.3186  0.5231
 8309TIP3    H124884   0.196   3.805   5.194  0.4320  0.7792 -0.1030
 8309TIP3    H224885   0.098   3.906   5.138 -1.0409 -0.1897  0.6731
 8310TIP3   OH224886   4.210   3.293   3.769  0.2432  0.0796  0.0788
 8310TIP3    H124887   4.215   3.278   3.674 -0.1892  0.5677 -0.0241
 8310TIP3    H224888   4.286   3.348   3.788  0.4713 -0.2246  0.0600
 8311TIP3   OH224889   6.852   6.844   0.109  0.0663 -0.3090  0.0838
 8311TIP3    H124890   6.891   6.821   0.025 -0.4327 -1.1563  0.0703
 8311TIP3    H224891   6.905   6.798   0.174 -1.1994 -1.9567  0.0286
 8312TIP3   OH224892   6.079   5.085   0.226 -0.2512 -0.1272  0.1227
 8312TIP3    H124893   6.002   5.141   0.236 -1.2216 -1.2315 -0.7709
 8312TIP3    H224894   6.061   5.010   0.282  0.2478 -0.3193  0.0294
 8313TIP3   OH224895   2.263   4.894   1.104 -0.5989 -0.0158  0.2005
 8313TIP3    H124896   2.327   4.957   1.071 -1.2074  0.2870 -0.4222
 8313TIP3    H224897   2.310   4.846   1.172 -0.2734  1.4650  1.0824
 8314TIP3   OH224898   5.285   6.100   1.046  0.2580  0.1060 -0.7928
 8314TIP3    H124899   5.371   6.135   1.022  0.6374 -0.8025 -0.8051
 8314TIP3    H224900   5.284   6.012   1.009 -0.3742 -0.1740 -0.1351
 8315TIP3   OH224901   4.515   5.386   3.350 -0.0639 -0.3236  0.2059
 8315TIP3    H124902   4.439   5.411   3.402 -0.8497 -0.4166 -0.8636
 8315TIP3    H224903   4.535   5.464   3.299  0.6075 -0.2780  0.5314
 8316TIP3   OH224904   0.112   1.299   3.526 -0.1335  0.4229 -0.2870
 8316TIP3    H124905   0.125   1.265   3.614  1.9093  1.8194  0.0115
 8316TIP3    H224906   0.059   1.379   3.538 -2.3529 -0.8892 -0.6897
 8317TIP3   OH224907   2.787   6.876   4.338 -0.1337  0.3593  0.2280
 8317TIP3    H124908   2.799   6.881   4.244 -1.1119 -1.6237 -0.0483
 8317TIP3    H224909   2.850   6.810   4.367  0.7062  1.4958  1.1132
 8318TIP3   OH224910   5.084   4.291   6.247  0.5400 -0.2805 -0.6176
 8318TIP3    H124911   5.045   4.322   6.165  1.7068 -0.5975 -1.3134
 8318TIP3    H224912   5.156   4.351   6.264  0.8541 -0.7443 -0.2933
 8319TIP3   OH224913   5.183   6.543   0.941 -0.3410 -0.0434 -0.1093
 8319TIP3    H124914   5.091   6.568   0.946 -0.2522  0.7240 -1.6811
 8319TIP3    H224915   5.194   6.477   1.010 -2.4848 -1.5441 -1.0951
 8320TIP3   OH224916   6.181   6.869   2.659 -0.3510 -0.1297 -0.2617
 8320TIP3    H124917   6.272   6.892   2.680 -0.9025  0.1527  2.0199
 8320TIP3    H224918   6.182   6.774   2.650 -0.1575 -0.3449  1.7446
 8321TIP3   OH224919   0.010   1.782   5.237  0.2262 -0.1467 -0.0425
 8321TIP3    H124920  -0.004   1.856   5.296 -1.8215 -0.4565 -0.0733
 8321TIP3    H224921   0.028   1.708   5.295 -0.7043 -0.2248  0.1602
 8322TIP3   OH224922   6.763   2.989   3.378  0.4084 -0.7072  0.2917
 8322TIP3    H124923   6.728   2.900   3.384 -0.3032 -0.5326 -0.8113
 8322TIP3    H224924   6.685   3.045   3.382  0.6961 -0.2255 -0.5792
 8323TIP3   OH224925   3.422   5.239   1.251 -0.2237  0.0410 -0.1431
 8323TIP3    H124926   3.479   5.312   1.276 -0.1926 -0.5128  1.5729
 8323TIP3    H224927   3.482   5.169   1.228 -0.2349  0.1335 -0.4519
 8324TIP3   OH224928   1.083   5.316   3.278  0.5521 -0.1545 -0.8843
 8324TIP3    H124929   1.088   5.411   3.270 -1.7405  0.1561  0.3529
 8324TIP3    H224930   1.006   5.301   3.333  0.2356 -2.7692 -1.8919
 8325TIP3   OH224931   3.798   6.531   0.681  0.0152  0.5229 -0.0116
 8325TIP3    H124932   3.870   6.591   0.662 -0.7212  0.7880 -2.2725
 8325TIP3    H224933   3.761   6.511   0.595 -2.1750 -0.1631  1.0322
 8326TIP3   OH224934   6.807   6.236   2.872  0.2492 -0.2508 -0.2023
 8326TIP3    H124935   6.844   6.271   2.791 -0.9269 -2.5014 -1.8394
 8326TIP3    H224936   6.752   6.162   2.843 -0.8545 -0.6489  2.5902
 8327TIP3   OH224937   4.656   0.807   1.992  0.0452 -0.3481 -0.2622
 8327TIP3    H124938   4.720   0.849   2.049 -1.4635  0.1440  1.1339
 8327TIP3    H224939   4.705   0.737   1.948  2.0061  1.2645 -0.7850
 8328TIP3   OH224940   4.004   7.404   2.054  0.6119  0.0125 -0.1776
 8328TIP3    H124941   4.038   7.492   2.069  2.9100  0.0734 -4.3147
 8328TIP3    H224942   4.041   7.378   1.970 -3.7770 -3.0642 -1.5045
 8329TIP3   OH224943   0.043   7.302   4.881 -0.4414  0.2349 -0.4398
 8329TIP3    H124944   0.101   7.343   4.945 -0.9791 -0.2872  0.4050
 8329TIP3    H224945  -0.045   7.311   4.920 -0.5266 -2.1879  0.0666
 8330TIP3   OH224946   0.041   5.447   6.378 -0.1764 -0.4603 -0.2993
 8330TIP3    H124947   0.001   5.365   6.404  0.1122 -1.1439 -1.8495
 8330TIP3    H224948  -0.025   5.491   6.324 -0.1550  0.0978  0.1212
 8331TIP3   OH224949   1.114   1.107   1.433  0.1322  0.0654 -0.5050
 8331TIP3    H124950   1.178   1.174   1.455  0.2842 -0.1503 -0.2911
 8331TIP3    H224951   1.157   1.054   1.366  0.7606 -0.9696  0.6729
 8332TIP3   OH224952   5.374   5.458   0.684  0.1828  0.4178  0.0044
 8332TIP3    H124953   5.363   5.384   0.623  0.9763  0.1364  0.1870
 8332TIP3    H224954   5.331   5.428   0.764  0.4386  0.1749  0.0551
 8333TIP3   OH224955   5.128   6.788   2.267 -0.6187 -0.3194  0.1871
 8333TIP3    H124956   5.212   6.746   2.247 -0.6718  0.0461 -0.8732
 8333TIP3    H224957   5.099   6.824   2.183 -2.0375 -0.7865  0.4507
 8334TIP3   OH224958   2.574   1.941   4.014 -0.0622 -0.0641 -0.1023
 8334TIP3    H124959   2.493   1.898   4.043 -0.6957  2.0181  1.4175
 8334TIP3    H224960   2.640   1.910   4.075  0.4508 -1.9729 -1.5013
 8335TIP3   OH224961   2.584   5.882   4.114 -0.1073 -0.1963 -0.3995
 8335TIP3    H124962   2.654   5.947   4.117 -0.1846 -0.1373  0.2701
 8335TIP3    H224963   2.615   5.811   4.171  0.0814 -0.8573 -1.3067
 8336TIP3   OH224964   7.055   4.186   4.042  0.3839 -0.7798  0.2544
 8336TIP3    H124965   7.102   4.106   4.064  1.4581 -1.1258 -2.8495
 8336TIP3    H224966   6.967   4.158   4.019  1.0023 -1.2534 -1.6716
 8337TIP3   OH224967   5.504   0.250   3.501 -0.2786  0.3177  0.7452
 8337TIP3    H124968   5.554   0.307   3.558  0.6407  1.6959 -1.3363
 8337TIP3    H224969   5.433   0.218   3.556 -0.8340  3.4365  2.0419
 8338TIP3   OH224970   2.184   4.491   1.040 -0.2299  0.3343  0.1577
 8338TIP3    H124971   2.159   4.448   0.958  4.0337 -2.8155  0.1894
 8338TIP3    H224972   2.260   4.545   1.016  0.9405 -0.4569  1.8990
 8339TIP3   OH224973   2.738   0.995   3.782 -0.0472  0.2118 -0.1976
 8339TIP3    H124974   2.714   0.931   3.714 -1.6079  0.1808  0.3538
 8339TIP3    H224975   2.799   1.054   3.738  2.0403 -2.0224 -0.5409
 8340TIP3   OH224976   5.354   4.955   6.204  0.1687 -0.6727 -0.6293
 8340TIP3    H124977   5.266   4.970   6.238 -0.1237 -2.7694 -0.3566
 8340TIP3    H224978   5.340   4.902   6.125  1.0537  1.2334 -2.1588
 8341TIP3   OH224979   7.153   7.066   1.898  0.9805  0.3418  0.3790
 8341TIP3    H124980   7.216   7.002   1.930  0.1365 -0.0943  1.2348
 8341TIP3    H224981   7.202   7.148   1.894  1.8898 -0.2072 -0.0662
 8342TIP3   OH224982   0.117   1.006   5.515 -0.2205  0.1386  0.5261
 8342TIP3    H124983   0.211   1.009   5.535 -0.5163 -0.9843  2.3691
 8342TIP3    H224984   0.087   0.922   5.551 -1.2928 -1.3347 -3.2990
 8343TIP3   OH224985   6.629   1.365   2.040 -0.1656  0.3776 -0.1724
 8343TIP3    H124986   6.646   1.433   1.975 -3.3732 -0.4681 -2.1248
 8343TIP3    H224987   6.576   1.409   2.107 -1.1724  0.1208 -0.7874
 8344TIP3   OH224988   2.553   6.621   1.844 -0.2178  0.6350  0.3773
 8344TIP3    H124989   2.564   6.575   1.927 -1.0549 -0.2731  0.0000
 8344TIP3    H224990   2.511   6.557   1.786  0.3619  1.2483 -0.7540
 8345TIP3   OH224991   2.249   3.608   0.118  0.1053 -0.1186  0.3975
 8345TIP3    H124992   2.290   3.681   0.072 -1.9392  1.0937  0.3896
 8345TIP3    H224993   2.196   3.564   0.052 -0.5184 -0.1803  0.9291
 8346TIP3   OH224994   7.246   0.776   5.847 -0.7566  0.4374  0.4167
 8346TIP3    H124995   7.170   0.724   5.870 -0.8305 -0.1946 -1.1505
 8346TIP3    H224996   7.210   0.852   5.800 -0.4647  0.2914 -0.0568
 8347TIP3   OH224997   1.271   6.994   5.072  0.4039  0.0831  0.1955
 8347TIP3    H124998   1.267   7.017   4.979  1.4669 -0.3039  0.0364
 8347TIP3    H224999   1.187   7.021   5.108  0.3138  1.0287 -0.7025
 8348TIP3   OH225000   1.672   2.656   3.864  0.4730 -0.4138  0.2697
 8348TIP3    H125001   1.622   2.678   3.943  1.4996 -2.6154  1.6187
 8348TIP3    H225002   1.748   2.715   3.868 -0.2690  0.5870  0.0348
 8349TIP3   OH225003   6.950   1.165   3.004  0.0390  0.1185 -1.1705
 8349TIP3    H125004   7.002   1.097   3.047  0.4840 -0.0837 -2.0003
 8349TIP3    H225005   6.937   1.232   3.071  1.6188  0.3078 -1.0172
 8350TIP3   OH225006   4.617   5.544   2.664 -0.4871 -0.3933  0.5831
 8350TIP3    H125007   4.623   5.450   2.644  0.7710 -0.1070 -0.5561
 8350TIP3    H225008   4.695   5.562   2.716  0.0316  0.2591 -0.3777
 8351TIP3   OH225009   0.111   6.085   6.004 -0.1477 -0.2365 -0.0400
 8351TIP3    H125010   0.031   6.109   6.051  0.6715  1.1819  0.6809
 8351TIP3    H225011   0.081   6.028   5.933 -1.6499 -0.7102  0.9291
 8352TIP3   OH225012   6.362   6.244   0.734 -0.4354 -0.2578 -0.1478
 8352TIP3    H125013   6.454   6.225   0.715 -0.5423 -0.2722 -0.6942
 8352TIP3    H225014   6.359   6.339   0.745 -0.5864 -0.0612 -1.6189
 8353TIP3   OH225015   5.855   6.459   5.128  0.2923 -0.2776 -0.5997
 8353TIP3    H125016   5.831   6.398   5.197  2.6413 -1.5477 -0.7876
 8353TIP3    H225017   5.790   6.445   5.059 -0.1748 -1.3742  0.0357
 8354TIP3   OH225018   5.744   0.168   1.708  0.6239  0.0619  0.3105
 8354TIP3    H125019   5.712   0.106   1.774  1.8526 -0.1154  0.7583
 8354TIP3    H225020   5.695   0.145   1.629 -0.0286 -0.4834  0.8500
 8355TIP3   OH225021   4.768   1.315   3.480  0.3577  0.2170 -0.0506
 8355TIP3    H125022   4.783   1.364   3.399  0.2531 -1.2550 -1.0203
 8355TIP3    H225023   4.720   1.237   3.451 -1.1015  0.4305  1.6778
 8356TIP3   OH225024   3.351   0.631   6.357 -0.0438 -0.7061 -0.0244
 8356TIP3    H125025   3.402   0.706   6.329 -0.5745 -0.6380 -0.8585
 8356TIP3    H225026   3.352   0.572   6.282 -1.1993 -0.6877 -0.0780
 8357TIP3   OH225027   5.375   0.068   1.839  0.1742  0.2660  0.8176
 8357TIP3    H125028   5.323  -0.005   1.872 -1.1157  0.3107 -1.0004
 8357TIP3    H225029   5.378   0.130   1.912  0.1982 -1.0125  1.9406
 8358TIP3   OH225030   7.505   3.938   1.258  0.3406  0.1346 -0.0566
 8358TIP3    H125031   7.542   4.026   1.272  2.0492 -0.4141 -0.8653
 8358TIP3    H225032   7.446   3.948   1.184 -1.7801  1.1703  1.6634
 8359TIP3   OH225033   5.094   1.831   0.722 -0.3227 -0.2694  0.0966
 8359TIP3    H125034   5.138   1.840   0.807  0.4924 -0.1706 -0.3206
 8359TIP3    H225035   5.031   1.760   0.735 -0.9780  0.4841  1.0864
 8360TIP3   OH225036   0.394   6.569   1.817 -0.3854  0.1221 -0.0530
 8360TIP3    H125037   0.446   6.607   1.888 -0.4902  0.9623 -0.4120
 8360TIP3    H225038   0.458   6.544   1.751 -0.2426 -1.1242  0.5273
 8361TIP3   OH225039   6.061   4.607   2.802  0.1956 -0.1772 -0.4748
 8361TIP3    H125040   5.967   4.590   2.813 -0.1354  2.1861  1.0780
 8361TIP3    H225041   6.097   4.602   2.890  1.2415  0.4124 -0.8540
 8362TIP3   OH225042   4.172   5.688   2.009  0.0412 -0.3090  0.1057
 8362TIP3    H125043   4.252   5.708   2.057 -0.2794  0.3752  0.3727
 8362TIP3    H225044   4.139   5.773   1.981 -0.2194 -0.6413 -0.6174
 8363TIP3   OH225045   4.036   0.667   4.428  0.1141  0.1503 -0.4902
 8363TIP3    H125046   4.075   0.715   4.501 -0.7031  0.5634 -0.3188
 8363TIP3    H225047   3.951   0.708   4.415  0.6246  0.7449 -2.3004
 8364TIP3   OH225048   2.185   4.854   6.777  0.4050 -0.1493  0.5857
 8364TIP3    H125049   2.277   4.833   6.764  0.8244  2.4661 -1.4577
 8364TIP3    H225050   2.138   4.783   6.733  1.4505 -1.0241  0.8369
 8365TIP3   OH225051   6.948   3.178   3.190 -1.0433 -0.0719 -0.7614
 8365TIP3    H125052   6.880   3.178   3.122 -1.0488  0.1888 -0.7579
 8365TIP3    H225053   6.912   3.123   3.260 -0.8939 -0.6095 -1.1082
 8366TIP3   OH225054   2.071   2.456   5.194 -0.3804  0.3691  0.2230
 8366TIP3    H125055   2.039   2.506   5.269 -1.6864  0.5000 -0.3884
 8366TIP3    H225056   1.996   2.401   5.168 -0.2945  1.0178 -1.5479
 8367TIP3   OH225057   4.916   5.822   5.406  0.0398  0.3602 -0.2121
 8367TIP3    H125058   5.008   5.802   5.392  0.2045  0.4530  0.6822
 8367TIP3    H225059   4.871   5.783   5.331  0.8034  0.3098 -0.6460
 8368TIP3   OH225060   2.707   2.397   3.654  0.6561 -0.0866  0.4486
 8368TIP3    H125061   2.761   2.450   3.712  0.6365  0.4756 -0.0398
 8368TIP3    H225062   2.617   2.418   3.677  0.6456  0.7703 -0.3462
 8369TIP3   OH225063   0.462   1.524   2.218 -0.4198  0.3032 -0.0864
 8369TIP3    H125064   0.394   1.459   2.236 -0.5664 -0.2384 -2.2827
 8369TIP3    H225065   0.503   1.493   2.137  2.8541  0.3214  1.4418
 8370TIP3   OH225066   4.741   4.288   1.380  0.2022  0.3680  0.1242
 8370TIP3    H125067   4.736   4.383   1.389 -0.0083  0.4095 -0.4045
 8370TIP3    H225068   4.756   4.256   1.469  0.8811  0.9326  0.2221
 8371TIP3   OH225069   2.536   3.834   4.050  0.6373 -0.1549  0.1229
 8371TIP3    H125070   2.546   3.840   3.955  1.4522  0.8593  0.2551
 8371TIP3    H225071   2.484   3.910   4.074  1.8460  0.5319  0.6608
 8372TIP3   OH225072   4.896   1.502   4.472 -0.1706  0.2600  0.6167
 8372TIP3    H125073   4.958   1.435   4.501  0.9854  0.9011 -0.2719
 8372TIP3    H225074   4.920   1.580   4.523 -0.0376  0.5925  0.0538
 8373TIP3   OH225075   4.192   1.714   4.497 -0.4239 -0.2358 -0.0928
 8373TIP3    H125076   4.159   1.798   4.527 -0.1832  0.3184 -1.3260
 8373TIP3    H225077   4.238   1.678   4.572 -2.0707 -0.1101  1.0257
 8374TIP3   OH225078   4.699   2.545   1.880 -0.2792 -0.0162  0.5545
 8374TIP3    H125079   4.789   2.515   1.874 -0.1087  0.5361  0.2428
 8374TIP3    H225080   4.705   2.641   1.878 -0.7283  0.0933  2.5794
 8375TIP3   OH225081   0.360   2.908   0.011  0.1007 -0.2631  0.1345
 8375TIP3    H125082   0.276   2.866   0.029 -0.7394  1.4296  0.3855
 8375TIP3    H225083   0.382   2.953   0.093  0.1396  1.1063 -0.6028
 8376TIP3   OH225084   7.218   6.756   4.111  0.3995 -0.4962 -0.3229
 8376TIP3    H125085   7.267   6.674   4.125  0.3173 -0.8529 -1.9583
 8376TIP3    H225086   7.266   6.800   4.041 -0.5396  0.0438 -0.6378
 8377TIP3   OH225087   1.951   3.886   3.581  0.1981 -0.5811 -0.6344
 8377TIP3    H125088   2.037   3.928   3.571  0.4513 -0.7657  0.6226
 8377TIP3    H225089   1.913   3.889   3.493  1.2077  0.1130 -1.0713
 8378TIP3   OH225090   6.408   7.527   3.468 -0.6808  0.5222  0.2889
 8378TIP3    H125091   6.387   7.621   3.472 -1.2869  0.4060 -0.0413
 8378TIP3    H225092   6.343   7.491   3.407  1.3313  0.3851 -1.9180
 8379TIP3   OH225093   0.576   3.649   2.567 -0.6408 -0.2909  0.3360
 8379TIP3    H125094   0.598   3.638   2.660 -0.0438  2.3922  0.5992
 8379TIP3    H225095   0.543   3.738   2.561  0.2558 -0.0620 -2.2143
 8380TIP3   OH225096   1.105   4.455   3.214 -0.1524 -0.0458 -0.2464
 8380TIP3    H125097   1.033   4.488   3.160 -0.3044 -0.8286 -0.5329
 8380TIP3    H225098   1.105   4.360   3.199  0.4566 -0.1455  0.3391
 8381TIP3   OH225099   1.655   0.798   0.227 -0.4337  0.2984  0.3580
 8381TIP3    H125100   1.698   0.715   0.207 -0.3016  0.5481 -0.4203
 8381TIP3    H225101   1.702   0.832   0.302  1.3580  1.0039 -1.0159
 8382TIP3   OH225102   7.157   5.814   3.738 -0.1189 -0.5515  0.2573
 8382TIP3    H125103   7.127   5.853   3.656  2.0377 -0.7136 -0.6762
 8382TIP3    H225104   7.171   5.889   3.796 -0.7582 -0.3650  0.1823
 8383TIP3   OH225105   5.984   4.762   2.194  0.0881 -0.1536 -0.6101
 8383TIP3    H125106   6.027   4.773   2.109  0.4879  2.2057 -0.1614
 8383TIP3    H225107   6.055   4.743   2.255 -0.4326 -4.9484 -1.1027
 8384TIP3   OH225108   6.674   6.847   4.355 -0.2054 -0.3855 -0.3212
 8384TIP3    H125109   6.579   6.834   4.350 -0.3823  0.6145  0.2404
 8384TIP3    H225110   6.710   6.780   4.297 -1.2489 -0.8348 -0.4733
 8385TIP3   OH225111   0.702   4.798   5.198 -0.0766  0.5001 -0.4104
 8385TIP3    H125112   0.769   4.865   5.184 -1.7233  2.3692  0.1500
 8385TIP3    H225113   0.705   4.744   5.119  1.9898  0.5917 -0.4291
 8386TIP3   OH225114   4.899   7.644   3.395  0.2625 -0.6861  0.3824
 8386TIP3    H125115   4.950   7.718   3.363  1.9279 -2.1286 -0.5026
 8386TIP3    H225116   4.882   7.591   3.317  0.7096 -2.1317  1.2099
 8387TIP3   OH225117   8.211   5.373   3.457  0.3317  0.7903  0.1813
 8387TIP3    H125118   8.193   5.289   3.499  0.4627  0.0273 -1.2263
 8387TIP3    H225119   8.307   5.375   3.448  0.3359  1.1314  0.2770
 8388TIP3   OH225120   3.125   1.805   2.730  0.2085 -0.3555 -0.4677
 8388TIP3    H125121   3.142   1.869   2.800 -0.5426  0.6650 -1.1908
 8388TIP3    H225122   3.090   1.728   2.776  0.8070 -0.1397  0.3809
 8389TIP3   OH225123   2.989   0.511   6.448  0.2830  0.1566  0.2218
 8389TIP3    H125124   2.897   0.538   6.440  0.2513 -0.2883 -1.0992
 8389TIP3    H225125   3.036   0.569   6.389  0.8862  0.4381  0.9584
 8390TIP3   OH225126   4.498   0.339   4.854 -0.2777 -0.0981 -0.2358
 8390TIP3    H125127   4.494   0.310   4.945 -0.4531  0.1107 -0.1784
 8390TIP3    H225128   4.416   0.310   4.815 -0.3783  0.1717 -0.2228
 8391TIP3   OH225129   0.744   3.250   3.457  0.1711  0.4153 -0.2700
 8391TIP3    H125130   0.809   3.230   3.525 -1.5262  0.4095  1.4259
 8391TIP3    H225131   0.752   3.345   3.443  1.3002  0.2395 -0.9257
 8392TIP3   OH225132   1.765   2.143   6.592 -0.3091 -0.4945  0.0062
 8392TIP3    H125133   1.816   2.217   6.558 -0.6936 -0.5132 -0.6375
 8392TIP3    H225134   1.717   2.179   6.666 -2.1294  0.5156 -1.5554
 8393TIP3   OH225135   6.437   3.261   4.782  0.3973 -0.0124 -0.3729
 8393TIP3    H125136   6.365   3.324   4.775  0.6777  0.2875 -0.5818
 8393TIP3    H225137   6.403   3.181   4.743 -0.1929 -0.1946  0.4742
 8394TIP3   OH225138   7.086   7.747   4.924  0.3025  0.1975 -0.3861
 8394TIP3    H125139   7.051   7.833   4.948 -1.5273 -0.1672 -1.5062
 8394TIP3    H225140   7.142   7.722   4.998  0.3208  2.0278  0.2728
 8395TIP3   OH225141   1.077   0.166   5.257 -0.3343 -0.1547 -0.5823
 8395TIP3    H125142   1.150   0.109   5.234 -0.2438 -0.5140  0.5545
 8395TIP3    H225143   1.102   0.251   5.221  0.8866 -0.1554  0.1843
 8396TIP3   OH225144   4.901   2.057   5.437 -0.3054  0.3336  0.3942
 8396TIP3    H125145   4.893   2.067   5.342 -1.1403 -1.4639  0.2457
 8396TIP3    H225146   4.828   2.109   5.473 -1.1151 -0.4849 -0.0490
 8397TIP3   OH225147   0.993   2.888   5.533 -0.0735  0.3817  0.1446
 8397TIP3    H125148   0.902   2.865   5.551  0.1043 -0.9334 -0.5030
 8397TIP3    H225149   0.989   2.980   5.504 -1.1079  0.5219  0.6775
 8398TIP3   OH225150   7.616   4.664   2.880  0.3276  0.1496  0.0397
 8398TIP3    H125151   7.600   4.570   2.889  0.4119  0.1935  0.7341
 8398TIP3    H225152   7.578   4.702   2.960 -1.3669  0.9153 -1.0872
 8399TIP3   OH225153   0.619   5.912   5.228  0.1345  0.0395 -0.2857
 8399TIP3    H125154   0.596   5.861   5.305 -0.7547 -1.3386 -1.4018
 8399TIP3    H225155   0.546   5.898   5.167  3.2438 -3.9288 -3.7417
 8400TIP3   OH225156   4.453   2.014   0.794  0.1630  0.2624  0.3368
 8400TIP3    H125157   4.366   2.045   0.768  0.1705  0.2555  0.3041
 8400TIP3    H225158   4.510   2.090   0.784  0.1988  0.2133  0.1672
 8401TIP3   OH225159   3.659   3.814   1.483  0.4077  0.1157 -0.6637
 8401TIP3    H125160   3.639   3.898   1.442 -0.1675  2.0016  3.0639
 8401TIP3    H225161   3.750   3.822   1.510  1.1731 -1.5909 -2.4654
 8402TIP3   OH225162   5.669   5.772   3.809 -0.1037 -0.0015 -0.0285
 8402TIP3    H125163   5.701   5.805   3.725 -0.8490 -0.6635 -0.5873
 8402TIP3    H225164   5.649   5.852   3.859  0.7087  0.3973 -0.3304
 8403TIP3   OH225165   4.683   3.358   3.226  0.2420 -0.7091  0.0286
 8403TIP3    H125166   4.649   3.332   3.312 -1.5619 -1.1594 -0.7662
 8403TIP3    H225167   4.678   3.453   3.226  0.7983 -0.6782  0.6310
 8404TIP3   OH225168   6.347   6.544   5.943 -0.7858 -0.7577 -0.7635
 8404TIP3    H125169   6.338   6.488   5.865 -0.5196 -0.4301 -1.0365
 8404TIP3    H225170   6.414   6.608   5.918  0.6443 -1.7501  0.3739
 8405TIP3   OH225171   7.870   0.170   4.804  0.0643  0.2591 -0.1844
 8405TIP3    H125172   7.833   0.251   4.837 -1.3671  0.3442 -1.8500
 8405TIP3    H225173   7.924   0.197   4.729 -1.7787 -0.4129 -1.8195
 8406TIP3   OH225174   6.935   5.494   6.768  0.0300 -0.1434 -0.5081
 8406TIP3    H125175   6.854   5.444   6.756 -1.0239  1.1736  0.7525
 8406TIP3    H225176   7.004   5.435   6.739 -0.9501 -2.9598  2.3169
 8407TIP3   OH225177   1.459   4.278   1.565 -0.4035 -0.1238 -0.6587
 8407TIP3    H125178   1.533   4.284   1.505  0.0094 -0.3155 -0.1778
 8407TIP3    H225179   1.388   4.243   1.512  0.4638 -2.0822 -0.6272
 8408TIP3   OH225180   2.739   0.684   2.791  0.1552  0.1544 -0.2987
 8408TIP3    H125181   2.663   0.672   2.848 -1.9679  0.5968 -2.7911
 8408TIP3    H225182   2.797   0.611   2.811 -2.6160 -2.3239 -0.6482
 8409TIP3   OH225183   6.866   4.072   3.066  0.2578  0.0081  0.1781
 8409TIP3    H125184   6.947   4.101   3.024  0.1304 -0.8150 -0.6662
 8409TIP3    H225185   6.852   3.983   3.033 -1.2110  0.2853 -0.0265
 8410TIP3   OH225186   5.599   0.140   0.837 -0.0103  0.0415  0.3711
 8410TIP3    H125187   5.644   0.216   0.874 -1.9621  1.7639 -0.5625
 8410TIP3    H225188   5.507   0.167   0.834 -1.0529 -2.9585  1.4204
 8411TIP3   OH225189   5.959   7.502   4.316 -0.2004  0.0151  0.1569
 8411TIP3    H125190   6.011   7.423   4.331 -0.6141 -0.1848  0.5522
 8411TIP3    H225191   5.906   7.511   4.395 -0.3369  0.5490  0.0050
 8412TIP3   OH225192   3.234   1.927   2.037 -0.9016 -0.0521 -0.1440
 8412TIP3    H125193   3.238   1.869   2.113 -3.3308 -0.0692  0.0554
 8412TIP3    H225194   3.282   2.005   2.064 -0.5820 -0.5956  0.9106
 8413TIP3   OH225195   7.204   7.544   4.644  0.4838  0.3563 -0.2756
 8413TIP3    H125196   7.137   7.480   4.668 -1.4558  1.1049 -3.2493
 8413TIP3    H225197   7.157   7.627   4.634  2.1533  1.2978 -0.8449
 8414TIP3   OH225198   2.297   3.236   0.314  0.5040 -0.5463 -0.0152
 8414TIP3    H125199   2.340   3.319   0.291 -0.6044 -0.0597 -0.4241
 8414TIP3    H225200   2.361   3.191   0.369  0.7389  1.0408  1.0990
 8415TIP3   OH225201   1.304   7.684   4.969 -0.1958  0.9905 -0.0425
 8415TIP3    H125202   1.217   7.711   5.000  0.6336  1.3703  2.0675
 8415TIP3    H225203   1.297   7.689   4.873 -2.6675  0.4241  0.0491
 8416TIP3   OH225204   1.125   4.355   2.627 -0.8842 -0.4793 -0.6529
 8416TIP3    H125205   1.062   4.381   2.695  0.7471 -0.1591  0.8084
 8416TIP3    H225206   1.126   4.428   2.566  0.6228  1.1839  1.2188
 8417TIP3   OH225207   7.304   0.284   2.266 -0.0654 -0.2624 -0.1261
 8417TIP3    H125208   7.285   0.275   2.173  2.3189 -0.5920 -0.6495
 8417TIP3    H225209   7.345   0.201   2.291  0.4862  0.2904  0.8910
 8418TIP3   OH225210   5.978   2.568   2.442  0.2539  0.0023 -0.2753
 8418TIP3    H125211   6.049   2.528   2.492  0.7595 -0.7341 -1.5374
 8418TIP3    H225212   6.012   2.654   2.417 -0.4205  0.8265  1.5315
 8419TIP3   OH225213   1.510   1.086   1.365 -0.3069 -0.2282  0.4905
 8419TIP3    H125214   1.457   1.163   1.347  1.1477  0.6269 -0.2729
 8419TIP3    H225215   1.597   1.119   1.384  0.6859 -1.6950 -1.1124
 8420TIP3   OH225216   2.036   6.431   3.253 -0.1856  0.2940 -0.0614
 8420TIP3    H125217   2.072   6.519   3.261  2.7888 -0.5939 -1.8668
 8420TIP3    H225218   1.985   6.433   3.171  0.5988  0.1692 -0.5650
 8421TIP3   OH225219   6.209   2.983   1.918  0.5908  0.5116  0.2041
 8421TIP3    H125220   6.220   2.918   1.849 -2.8266 -1.5951  1.4160
 8421TIP3    H225221   6.286   2.971   1.974  0.9701 -1.2236 -0.6215
 8422TIP3   OH225222   0.419   4.209   1.306  0.2155  0.0661  0.4290
 8422TIP3    H125223   0.498   4.263   1.309 -0.3126  1.1678 -2.3820
 8422TIP3    H225224   0.447   4.124   1.340  1.4513  1.5553  3.5811
 8423TIP3   OH225225   3.513   1.174   2.851 -0.2035 -0.1833  0.3943
 8423TIP3    H125226   3.478   1.117   2.783  2.2529 -0.3507 -0.8454
 8423TIP3    H225227   3.540   1.114   2.921 -0.4617 -0.2358  0.4506
 8424TIP3   OH225228   5.922   4.140   3.979  0.4520  0.0474  0.1562
 8424TIP3    H125229   5.997   4.135   3.920  0.2233  0.4186 -0.1703
 8424TIP3    H225230   5.872   4.060   3.961  1.1371 -0.5497  0.8809
 8425TIP3   OH225231   1.164   6.543   5.696  0.1159  0.1521  0.1532
 8425TIP3    H125232   1.076   6.583   5.693 -0.4860 -1.1730 -0.3549
 8425TIP3    H225233   1.222   6.617   5.715 -1.2320  0.8558  1.8184
 8426TIP3   OH225234   1.772   2.909   5.781 -0.3366 -0.3930  0.1016
 8426TIP3    H125235   1.812   2.966   5.846 -1.8381 -0.4671  1.1524
 8426TIP3    H225236   1.740   2.834   5.832  0.8534 -1.7775 -1.1274
 8427TIP3   OH225237   7.814   2.079   5.025 -0.5114  0.7364  0.2353
 8427TIP3    H125238   7.902   2.050   5.049 -0.1575  1.7889  0.2769
 8427TIP3    H225239   7.759   2.002   5.038  0.6325 -0.4084 -1.2716
 8428TIP3   OH225240   4.697   2.673   0.519  0.3441 -0.2060  0.9238
 8428TIP3    H125241   4.750   2.620   0.578 -1.2151 -1.3243  1.3972
 8428TIP3    H225242   4.711   2.636   0.433  0.5520 -0.3152  1.0062
 8429TIP3   OH225243   7.695   2.585   0.861 -0.8211  0.7833  0.4445
 8429TIP3    H125244   7.676   2.513   0.801 -0.2363  1.2413 -0.3072
 8429TIP3    H225245   7.621   2.586   0.921 -1.6390  0.5877 -0.5370
 8430TIP3   OH225246   3.346   1.207   3.318  0.1120  0.3548 -0.2390
 8430TIP3    H125247   3.303   1.149   3.255 -1.2457  0.1558  0.8268
 8430TIP3    H225248   3.312   1.294   3.299  0.8834  0.5524 -0.7615
 8431TIP3   OH225249   6.067   2.431   5.922  0.1030 -0.0293  0.0708
 8431TIP3    H125250   6.163   2.434   5.924  0.1114 -0.3337  0.2827
 8431TIP3    H225251   6.040   2.498   5.985  0.1505  0.9010 -0.8633
 8432TIP3   OH225252   1.861   2.301   0.958 -0.2254  0.3235  0.2762
 8432TIP3    H125253   1.882   2.316   1.050 -0.7644  1.3023  0.2538
 8432TIP3    H225254   1.767   2.315   0.953 -0.1628  0.5017 -0.4722
 8433TIP3   OH225255   0.851   5.346   1.849 -0.0475  0.4223  0.2118
 8433TIP3    H125256   0.864   5.348   1.754 -1.7102 -1.4893 -0.1297
 8433TIP3    H225257   0.796   5.422   1.868 -1.9847 -0.6390 -0.8336
 8434TIP3   OH225258   0.482   0.879   3.236  0.2228 -0.2851 -0.3612
 8434TIP3    H125259   0.438   0.960   3.259 -1.7912 -1.2268 -0.7178
 8434TIP3    H225260   0.575   0.900   3.240 -0.2281  1.6916  0.7448
 8435TIP3   OH225261   0.103   3.052   0.190 -0.0567  0.0222 -0.2373
 8435TIP3    H125262   0.080   2.960   0.177  0.5229  0.0491 -1.5873
 8435TIP3    H225263   0.101   3.064   0.285 -0.0058 -1.4167 -0.0357
 8436TIP3   OH225264   5.519   3.880   2.172 -0.0015 -0.4421  0.5612
 8436TIP3    H125265   5.579   3.909   2.240 -0.5988  0.8968  0.5361
 8436TIP3    H225266   5.433   3.879   2.215 -0.1293 -1.3603  0.3153
 8437TIP3   OH225267   4.573   5.947   5.531 -0.1866 -0.1903 -0.0594
 8437TIP3    H125268   4.521   5.962   5.610  1.9359  0.4223  1.3227
 8437TIP3    H225269   4.541   5.863   5.496 -3.6708  1.2412 -0.7273
 8438TIP3   OH225270   6.573   0.262   5.177  0.3850 -0.6014  0.4323
 8438TIP3    H125271   6.613   0.340   5.217  1.0366 -1.0728  0.7165
 8438TIP3    H225272   6.627   0.189   5.207  0.2416 -1.0881 -0.4436
 8439TIP3   OH225273   4.759   7.231   5.626  0.1426  0.4637 -0.2830
 8439TIP3    H125274   4.832   7.177   5.595 -0.4363  0.3531 -1.5136
 8439TIP3    H225275   4.774   7.239   5.720  1.8521  0.6236 -0.5279
 8440TIP3   OH225276   5.187   7.369   5.226 -0.2512 -0.4751  0.0113
 8440TIP3    H125277   5.229   7.447   5.191  0.4176 -1.1749 -0.7796
 8440TIP3    H225278   5.234   7.296   5.187  0.0038 -1.3031  1.7739
 8441TIP3   OH225279   4.993   7.182   4.016  0.2183  0.0269 -0.4310
 8441TIP3    H125280   5.081   7.144   4.023  0.1057 -0.0464  0.9471
 8441TIP3    H225281   4.944   7.143   4.088 -0.5430  1.0951 -0.3430
 8442TIP3   OH225282   6.449   4.321   5.744  0.4294 -0.7954 -0.3668
 8442TIP3    H125283   6.515   4.301   5.678  0.5317  0.0085 -0.5206
 8442TIP3    H225284   6.373   4.352   5.693  1.1075  1.5249 -0.0743
 8443TIP3   OH225285   4.391   4.884   3.044  0.7852 -0.1398 -0.0719
 8443TIP3    H125286   4.336   4.956   3.074  1.8547  0.1059  1.3970
 8443TIP3    H225287   4.369   4.874   2.951 -1.8105 -0.1594  0.4720
 8444TIP3   OH225288   6.814   6.159   4.429  0.3453 -0.2198 -0.0740
 8444TIP3    H125289   6.900   6.130   4.399  1.2488  1.8714  0.2986
 8444TIP3    H225290   6.763   6.171   4.349 -0.0712 -2.6387 -0.2440
 8445TIP3   OH225291   1.989   3.190   4.365  0.1290  0.1909  0.4235
 8445TIP3    H125292   2.003   3.096   4.378  0.4781  0.0006 -1.1262
 8445TIP3    H225293   1.906   3.208   4.410 -1.4448 -1.4540 -1.6174
 8446TIP3   OH225294   6.520   3.337   6.582  0.1934  0.3550  0.4403
 8446TIP3    H125295   6.540   3.394   6.508  0.4639 -0.0195  0.2240
 8446TIP3    H225296   6.445   3.380   6.625 -3.1971 -1.7255 -2.7342
 8447TIP3   OH225297   5.061   0.099   6.491 -0.0346  0.0370 -0.5089
 8447TIP3    H125298   5.050   0.064   6.579 -3.8237  0.4794 -0.6220
 8447TIP3    H225299   5.047   0.194   6.501  0.5769  0.2415 -1.4386
 8448TIP3   OH225300   6.875   6.300   5.923 -0.0814  0.6259 -0.3806
 8448TIP3    H125301   6.921   6.380   5.948 -0.9837  0.9652  0.2364
 8448TIP3    H225302   6.886   6.294   5.828 -0.9928  2.1098 -0.5982
 8449TIP3   OH225303   0.945   5.528   5.562 -0.0926  0.3193  0.4128
 8449TIP3    H125304   0.989   5.578   5.494 -0.9206 -0.8467 -1.0380
 8449TIP3    H225305   0.948   5.437   5.531 -2.0462 -0.0103  1.0275
 8450TIP3   OH225306   6.858   5.140   2.283  0.2092  0.1226  0.3872
 8450TIP3    H125307   6.952   5.126   2.279  0.2607  0.7388 -0.8505
 8450TIP3    H225308   6.821   5.067   2.233  0.0136 -0.1901  0.9795
 8451TIP3   OH225309   1.443   4.755   2.866 -0.1977 -0.1045 -0.0085
 8451TIP3    H125310   1.396   4.770   2.948 -0.6738 -1.2480 -0.0525
 8451TIP3    H225311   1.535   4.757   2.891 -0.3534 -1.8206  0.8402
 8452TIP3   OH225312   0.735   4.796   6.443 -0.1510  0.0334  0.0846
 8452TIP3    H125313   0.768   4.770   6.357 -0.2258 -0.4221  0.1895
 8452TIP3    H225314   0.693   4.717   6.477 -0.1062  0.2061  0.5469
 8453TIP3   OH225315   3.769   4.497   0.216  0.0989 -0.0026 -0.4891
 8453TIP3    H125316   3.806   4.473   0.302 -0.2705  2.6808  0.5251
 8453TIP3    H225317   3.746   4.414   0.176 -0.3422 -1.3536  2.3086
 8454TIP3   OH225318   8.012   6.387   2.882 -0.5116 -0.3046  0.0171
 8454TIP3    H125319   7.997   6.475   2.849  3.5115  0.2418 -0.9514
 8454TIP3    H225320   7.981   6.330   2.812  0.9029  0.5868 -1.4023
 8455TIP3   OH225321   2.955   7.357   2.966 -0.0255 -0.2506 -0.0168
 8455TIP3    H125322   2.895   7.407   2.911  1.9228  1.5302 -0.6343
 8455TIP3    H225323   2.973   7.414   3.041  0.8587 -0.7504  0.1666
 8456TIP3   OH225324   0.751   5.664   5.823 -0.0621 -0.3221  0.2320
 8456TIP3    H125325   0.777   5.587   5.874  0.0744 -1.2333 -1.1583
 8456TIP3    H225326   0.820   5.728   5.841  1.2263 -1.4232 -0.5249
 8457TIP3   OH225327   5.602   5.985   5.044  0.3624  0.1223  0.0385
 8457TIP3    H125328   5.533   5.925   5.014  0.2554 -1.1447  2.5549
 8457TIP3    H225329   5.680   5.930   5.052  0.8408  0.8292  0.2937
 8458TIP3   OH225330   1.900   1.926   0.186 -0.1058 -0.6237  0.9871
 8458TIP3    H125331   1.963   1.867   0.228 -0.8913  0.2262  3.5433
 8458TIP3    H225332   1.828   1.869   0.159 -0.2539 -1.0267  2.1977
 8459TIP3   OH225333   6.461   3.046   5.924 -0.5164  0.5264  0.1890
 8459TIP3    H125334   6.527   3.019   5.988  0.1459  1.2148 -0.1902
 8459TIP3    H225335   6.493   3.012   5.841 -0.2574  1.4795 -0.1139
 8460TIP3   OH225336   0.035   5.427   2.772  0.5761  0.2306  0.4603
 8460TIP3    H125337   0.036   5.454   2.681 -0.4243  1.4657  0.7931
 8460TIP3    H225338  -0.047   5.461   2.807  0.8015 -0.4681  1.7484
 8461TIP3   OH225339   7.763   4.914   1.956  0.1978 -0.5462  0.0114
 8461TIP3    H125340   7.811   4.900   1.875  0.5216  0.5447 -0.0137
 8461TIP3    H225341   7.822   4.883   2.025  0.2278 -0.7961 -0.1291
 8462TIP3   OH225342   3.588   1.060   3.829 -0.2070 -0.1614  0.4077
 8462TIP3    H125343   3.544   1.032   3.909  0.3640  0.5431  0.9918
 8462TIP3    H225344   3.607   1.153   3.844  0.5769 -0.2057 -0.2333
 8463TIP3   OH225345   6.739   4.638   5.018  0.0525 -0.6061 -0.9954
 8463TIP3    H125346   6.763   4.580   4.945 -2.5100 -0.7158 -1.8334
 8463TIP3    H225347   6.676   4.588   5.069  1.2809 -0.2503  0.9656
 8464TIP3   OH225348   0.456   2.192   6.658  0.5400 -0.2343 -0.1426
 8464TIP3    H125349   0.515   2.267   6.646 -0.0737  0.2969  0.1054
 8464TIP3    H225350   0.387   2.226   6.714  0.8305 -1.2976  0.8872
 8465TIP3   OH225351   8.214   1.467   5.705  0.0215 -0.4679  0.1120
 8465TIP3    H125352   8.287   1.422   5.662  0.0824  0.0021 -0.2800
 8465TIP3    H225353   8.237   1.466   5.798 -0.0137 -1.3161  0.1200
 8466TIP3   OH225354   2.187   2.624   1.020  0.4396  0.2519  0.0599
 8466TIP3    H125355   2.202   2.687   1.091  0.3427  0.6855 -0.2973
 8466TIP3    H225356   2.270   2.578   1.011  0.5443  0.4008  0.2566
 8467TIP3   OH225357   3.705   3.699   2.236  0.2766  0.4126  0.5971
 8467TIP3    H125358   3.795   3.675   2.215 -0.7273 -2.2667 -1.0562
 8467TIP3    H225359   3.674   3.629   2.294 -1.5628 -0.3157 -1.1529
 8468TIP3   OH225360   0.244   4.266   6.421 -0.5200 -0.1944 -0.3213
 8468TIP3    H125361   0.323   4.272   6.368 -1.4136  1.4245 -1.5502
 8468TIP3    H225362   0.272   4.223   6.502  2.4128  3.1960  0.7011
 8469TIP3   OH225363   1.991   6.281   1.138 -0.0746 -0.4029 -0.1643
 8469TIP3    H125364   1.978   6.187   1.155 -1.8779 -0.4006 -1.2301
 8469TIP3    H225365   1.903   6.313   1.116  0.7812  1.1719 -1.5034
 8470TIP3   OH225366   6.663   4.352   4.140 -0.8895 -0.2958 -0.3453
 8470TIP3    H125367   6.585   4.406   4.129 -1.4603 -0.7598  1.1496
 8470TIP3    H225368   6.726   4.410   4.184 -0.1181  0.2856 -2.1468
 8471TIP3   OH225369   5.552   1.385   2.489 -0.1560  0.3170 -0.3638
 8471TIP3    H125370   5.548   1.479   2.503 -0.6708  0.1623  0.6271
 8471TIP3    H225371   5.463   1.354   2.506  0.8109 -0.8797  3.7345
 8472TIP3   OH225372   6.858   2.376   5.466  0.2694  0.1495 -0.0647
 8472TIP3    H125373   6.813   2.299   5.430  0.5152  0.5066 -1.1658
 8472TIP3    H225374   6.822   2.450   5.418  1.9368  0.4535 -0.8906
 8473TIP3   OH225375   8.190   7.237   6.319  0.3740 -0.0902 -0.2040
 8473TIP3    H125376   8.245   7.186   6.260  0.4795  0.6924 -0.7934
 8473TIP3    H225377   8.221   7.327   6.310  0.0167  0.1281  0.6240
 8474TIP3   OH225378   4.954   5.892   3.913  0.4125 -0.5943 -0.0633
 8474TIP3    H125379   4.987   5.917   3.826 -0.8448 -0.1122 -0.4319
 8474TIP3    H225380   4.960   5.797   3.915 -1.4243 -0.8123 -1.5265
 8475TIP3   OH225381   0.667   1.968   4.027 -0.1406  0.1896  0.3460
 8475TIP3    H125382   0.622   1.901   4.078  0.8356 -1.1681 -0.5093
 8475TIP3    H225383   0.741   1.995   4.082 -0.3216  0.3059  0.5353
 8476TIP3   OH225384   0.820   5.036   4.164 -0.1305 -0.8677 -0.0183
 8476TIP3    H125385   0.867   5.089   4.229 -0.0967  1.6520 -1.9325
 8476TIP3    H225386   0.747   5.091   4.136  0.2369 -1.5229 -2.5680
 8477TIP3   OH225387   7.831   1.306   5.980  0.1425  0.1027  0.5499
 8477TIP3    H125388   7.895   1.239   5.956 -0.6855 -1.1468  1.6645
 8477TIP3    H225389   7.797   1.277   6.065 -2.0252  0.6121 -0.0798
 8478TIP3   OH225390   2.587   6.327   1.727  0.2910  0.2137  0.5210
 8478TIP3    H125391   2.592   6.357   1.636 -0.7211 -1.1236 -0.0108
 8478TIP3    H225392   2.547   6.240   1.721  1.1797 -0.3472  2.1642
 8479TIP3   OH225393   5.198   2.298   3.922 -0.6963  0.2196 -0.0299
 8479TIP3    H125394   5.197   2.236   3.849 -1.3171 -0.7569  0.7859
 8479TIP3    H225395   5.290   2.325   3.929 -0.1770 -1.5505  0.3604
 8480TIP3   OH225396   3.734   0.795   6.572  0.1005 -0.0991  0.2294
 8480TIP3    H125397   3.791   0.719   6.568 -0.5356 -0.5133 -2.8352
 8480TIP3    H225398   3.790   0.865   6.606  2.1765 -0.7425 -1.6283
 8481TIP3   OH225399   3.780   0.741   1.921  0.4523 -0.0385 -0.1382
 8481TIP3    H125400   3.801   0.783   1.837 -0.4967 -0.9711 -0.8609
 8481TIP3    H225401   3.688   0.714   1.912 -0.3115  1.6132  1.9487
 8482TIP3   OH225402   4.086   3.895   5.161  0.2838  0.2818 -0.1713
 8482TIP3    H125403   4.089   3.828   5.229  1.4689  0.4661 -0.0194
 8482TIP3    H225404   4.177   3.923   5.151 -0.1517  1.7382 -0.3573
 8483TIP3   OH225405   5.404   7.168   5.113 -0.0582 -0.3646 -0.0730
 8483TIP3    H125406   5.436   7.234   5.174 -1.7814 -0.7864  1.3505
 8483TIP3    H225407   5.423   7.084   5.155  0.4929 -0.7506 -1.0441
 8484TIP3   OH225408   7.675   0.969   3.591  0.4395 -0.3484 -0.1083
 8484TIP3    H125409   7.672   0.940   3.499 -2.3522  3.1307 -1.3475
 8484TIP3    H225410   7.750   1.028   3.595 -0.3617  0.7622 -0.7078
 8485TIP3   OH225411   2.658   1.672   5.730 -0.5100 -0.6134 -0.1972
 8485TIP3    H125412   2.600   1.747   5.740 -0.3333 -0.5664  0.5372
 8485TIP3    H225413   2.626   1.608   5.794 -1.1539 -1.4956 -1.3492
 8486TIP3   OH225414   0.168   2.853   6.705 -0.1068 -0.1443  0.2757
 8486TIP3    H125415   0.223   2.887   6.775  0.8509 -0.1969 -0.4203
 8486TIP3    H225416   0.183   2.758   6.707  1.1302 -0.0119 -0.9405
 8487TIP3   OH225417   3.075   4.254   0.159  0.2408 -0.2766  0.0459
 8487TIP3    H125418   3.153   4.239   0.212  0.1732  0.3686  0.3383
 8487TIP3    H225419   3.061   4.348   0.162 -0.1198 -0.2997 -0.6270
 8488TIP3   OH225420   6.790   3.374   2.487 -0.0014  0.6878 -0.1950
 8488TIP3    H125421   6.707   3.417   2.467 -0.7869 -1.6600 -2.6238
 8488TIP3    H225422   6.767   3.304   2.547  0.3424  0.4609 -0.3245
 8489TIP3   OH225423   4.464   6.702   0.939  0.1924 -0.4417 -0.4349
 8489TIP3    H125424   4.476   6.657   0.856  0.4705 -2.0920  0.4480
 8489TIP3    H225425   4.370   6.719   0.945 -0.2137 -2.5514 -0.0342
 8490TIP3   OH225426   5.082   7.132   3.748  0.7272 -0.0195  0.0014
 8490TIP3    H125427   5.024   7.129   3.824  0.9854 -0.2363  0.1930
 8490TIP3    H225428   5.027   7.162   3.677  0.5158  0.3254  0.3058
 8491TIP3   OH225429   4.509   4.217   2.141  0.7675  0.0527  0.1009
 8491TIP3    H125430   4.442   4.168   2.093 -0.5557 -3.1823  4.5555
 8491TIP3    H225431   4.500   4.307   2.110 -2.9325 -0.9313 -2.3651
 8492TIP3   OH225432   8.047   4.802   4.722  0.0795 -0.0896 -0.3327
 8492TIP3    H125433   7.987   4.864   4.679 -1.2631 -0.8121  0.4136
 8492TIP3    H225434   8.048   4.726   4.663  0.0007 -0.1965 -0.1987
 8493TIP3   OH225435   2.646   0.885   0.705  0.4781  0.3297  0.2355
 8493TIP3    H125436   2.696   0.833   0.768  0.0451  1.4164  1.5296
 8493TIP3    H225437   2.590   0.940   0.759 -0.8985  0.3539 -1.1427
 8494TIP3   OH225438   0.802   7.551   0.449  0.2720  0.3744 -0.0764
 8494TIP3    H125439   0.808   7.508   0.363  0.0140 -0.7465  0.4496
 8494TIP3    H225440   0.776   7.481   0.509 -2.3794  1.6656  0.4573
 8495TIP3   OH225441   0.181   5.097   2.195 -0.1937  0.0431  0.3498
 8495TIP3    H125442   0.199   5.074   2.286  0.9079 -2.0506 -0.3347
 8495TIP3    H225443   0.252   5.157   2.171 -0.6923  0.8940  0.9407
 8496TIP3   OH225444   7.518   6.560   4.888  0.2539  0.2335  0.0755
 8496TIP3    H125445   7.452   6.620   4.854 -0.8953 -0.3449  1.2176
 8496TIP3    H225446   7.494   6.475   4.851  0.8213  0.1523 -0.1128
 8497TIP3   OH225447   6.705   2.980   2.154 -0.3738 -0.4167 -0.3644
 8497TIP3    H125448   6.794   2.950   2.170  0.2509  1.3378 -0.3508
 8497TIP3    H225449   6.670   2.996   2.242 -0.9100 -1.6004 -0.3442
 8498TIP3   OH225450   6.147   7.160   6.056  0.3789 -0.4947 -0.3584
 8498TIP3    H125451   6.190   7.239   6.024  0.5759 -0.7715 -0.7791
 8498TIP3    H225452   6.071   7.192   6.105  0.4100 -0.0472 -0.6006
 8499TIP3   OH225453   4.381   0.111   2.250 -0.3562 -0.1396 -0.3267
 8499TIP3    H125454   4.385   0.206   2.248 -1.1060 -0.0360  1.2861
 8499TIP3    H225455   4.352   0.086   2.162  0.2808  1.0810 -0.8936
 8500TIP3   OH225456   3.956   4.666   4.909 -0.8943 -0.2256  0.1972
 8500TIP3    H125457   3.895   4.695   4.842 -1.4087  1.1772  1.2109
 8500TIP3    H225458   3.912   4.687   4.992 -0.7114 -2.7771  1.0215
 8501TIP3   OH225459   4.494   0.846   6.738  0.0897  0.1447  0.1150
 8501TIP3    H125460   4.536   0.893   6.811 -1.1403  1.8024 -0.1875
 8501TIP3    H225461   4.534   0.883   6.660 -0.4566  0.2303 -0.1205
 8502TIP3   OH225462   3.483   2.624   6.534 -0.6186  0.1124 -0.5337
 8502TIP3    H125463   3.470   2.548   6.590 -3.4920  0.5290 -0.4947
 8502TIP3    H225464   3.576   2.622   6.511  0.1516 -1.3871  2.3022
 8503TIP3   OH225465   6.709   3.856   0.115  0.9238  0.1904  0.2698
 8503TIP3    H125466   6.754   3.855   0.031  1.9684  0.7125  0.8046
 8503TIP3    H225467   6.622   3.820   0.096  0.4391  2.0704 -1.4143
 8504TIP3   OH225468   6.546   6.966   5.699 -0.6235  0.0925  0.3028
 8504TIP3    H125469   6.476   7.027   5.720 -0.7126 -0.1861  0.8237
 8504TIP3    H225470   6.626   7.017   5.713 -0.7217  0.7064 -1.2129
 8505TIP3   OH225471   7.579   5.792   2.827  0.0131  0.1854 -0.4867
 8505TIP3    H125472   7.560   5.716   2.882  2.2834 -0.4329 -0.4685
 8505TIP3    H225473   7.554   5.765   2.739 -2.6811  0.8169  0.0009
 8506TIP3   OH225474   3.448   1.242   6.327  0.2730 -0.5472  0.1888
 8506TIP3    H125475   3.519   1.264   6.387 -1.3416  0.8388  1.7121
 8506TIP3    H225476   3.384   1.313   6.338 -1.0005 -1.2989 -1.7135
 8507TIP3   OH225477   3.366   5.325   0.504 -0.1071  0.3525 -0.0932
 8507TIP3    H125478   3.405   5.252   0.455  0.8789  0.5554  0.3699
 8507TIP3    H225479   3.352   5.393   0.439 -2.0995 -0.6136 -0.7706
 8508TIP3   OH225480   0.259   3.495   2.726  0.1222  0.1728 -0.2188
 8508TIP3    H125481   0.312   3.418   2.750  1.5829  1.2393  0.0698
 8508TIP3    H225482   0.240   3.537   2.809 -2.2265 -0.7893 -0.1845
 8509TIP3   OH225483   6.323   0.213   3.684 -0.5918  0.9361  0.4516
 8509TIP3    H125484   6.265   0.151   3.639 -1.2142  1.9946 -0.2665
 8509TIP3    H225485   6.275   0.296   3.681  1.3396  2.0928 -1.0578
 8510TIP3   OH225486   6.570   5.664   2.726  0.0248 -0.2676 -0.2737
 8510TIP3    H125487   6.526   5.619   2.653 -0.2914  1.0002 -0.8922
 8510TIP3    H225488   6.652   5.695   2.689  0.4438 -0.7040  0.2723
 8511TIP3   OH225489   5.520   1.646   2.569 -0.3008 -0.2288  0.0176
 8511TIP3    H125490   5.432   1.673   2.594 -0.8048  0.1222 -2.0103
 8511TIP3    H225491   5.577   1.711   2.610 -0.9770 -0.2463  1.0423
 8512TIP3   OH225492   3.894   0.080   2.281 -0.3282  0.1219  0.2332
 8512TIP3    H125493   3.984   0.052   2.297  0.0704 -0.4735 -2.4115
 8512TIP3    H225494   3.862   0.109   2.366  1.8948 -0.9390  1.5389
 8513TIP3   OH225495   4.655   5.116   0.458  0.0834  0.1345  0.1696
 8513TIP3    H125496   4.634   5.199   0.415 -1.0992 -0.7942 -1.1574
 8513TIP3    H225497   4.578   5.097   0.511 -0.0800 -0.5822 -0.3105
 8514TIP3   OH225498   1.853   0.694   5.023 -0.2411 -0.0720 -0.0945
 8514TIP3    H125499   1.903   0.774   5.041 -1.0531  0.8875 -1.8100
 8514TIP3    H225500   1.918   0.624   5.021  0.2459  0.0701  3.6521
 8515TIP3   OH225501   3.141   4.381   3.044 -0.0533  0.5977  0.5610
 8515TIP3    H125502   3.061   4.421   3.009 -0.0126 -0.2952 -0.6085
 8515TIP3    H225503   3.145   4.295   3.002  1.2179  0.4062  1.0436
 8516TIP3   OH225504   0.753   1.895   1.113 -0.0551  0.1466  0.1417
 8516TIP3    H125505   0.661   1.921   1.116  0.3635  1.8512 -0.3490
 8516TIP3    H225506   0.755   1.820   1.054 -0.9124  1.3484 -1.5103
 8517TIP3   OH225507   0.986   3.939   1.316  0.3457 -0.5153  0.8328
 8517TIP3    H125508   1.063   3.887   1.295  0.3969 -1.2056  2.5542
 8517TIP3    H225509   1.001   3.968   1.406 -0.1056  1.7393  0.2404
 8518TIP3   OH225510   7.420   4.594   5.671  0.2754  0.1097 -0.1038
 8518TIP3    H125511   7.426   4.677   5.717 -2.1863  0.0069  0.5187
 8518TIP3    H225512   7.473   4.606   5.593  0.5089  2.0221  0.3062
 8519TIP3   OH225513   6.796   2.701   2.890  0.4491  0.1954  0.3004
 8519TIP3    H125514   6.843   2.651   2.957  1.2047 -2.3872 -1.9527
 8519TIP3    H225515   6.850   2.691   2.812 -2.6225 -0.9359 -1.8443
 8520TIP3   OH225516   2.044   6.099   5.237  0.4586 -0.1743  0.0679
 8520TIP3    H125517   2.005   6.012   5.241 -1.5961  0.7216  1.7049
 8520TIP3    H225518   2.102   6.096   5.161  1.1243 -3.1998  0.5536
 8521TIP3   OH225519   6.316   6.449   1.039  0.4231 -0.1753  0.3405
 8521TIP3    H125520   6.238   6.404   1.006  0.0377  0.1660  0.7800
 8521TIP3    H225521   6.331   6.520   0.976  1.3287 -1.1938 -0.6386
 8522TIP3   OH225522   2.768   0.062   5.356  0.6121 -0.0544  0.1125
 8522TIP3    H125523   2.741   0.117   5.429  1.4330 -0.9668  1.1343
 8522TIP3    H225524   2.858   0.036   5.377  1.0859  0.1118 -1.5049
 8523TIP3   OH225525   6.338   6.789   4.889 -0.3364 -0.3043 -0.6096
 8523TIP3    H125526   6.373   6.769   4.802  0.6748 -0.0810 -0.2629
 8523TIP3    H225527   6.320   6.883   4.887  0.0642 -0.2253 -0.4416
 8524TIP3   OH225528   5.817   0.697   2.441  0.9308  0.1310 -0.4100
 8524TIP3    H125529   5.901   0.655   2.461  1.3329  0.6128 -1.0480
 8524TIP3    H225530   5.781   0.719   2.527  0.6090 -1.6735 -0.0346
 8525TIP3   OH225531   5.641   6.115   6.474  0.3381 -0.1095 -0.0496
 8525TIP3    H125532   5.614   6.041   6.418 -1.6401 -0.3158  1.0918
 8525TIP3    H225533   5.687   6.174   6.415  1.7647 -2.1191 -1.0577
 8526TIP3   OH225534   0.195   4.195   0.783  0.0223  0.0091 -0.3035
 8526TIP3    H125535   0.154   4.143   0.714 -2.0959  1.4596 -0.2343
 8526TIP3    H225536   0.185   4.286   0.754 -0.8150  0.6607  1.8098
 8527TIP3   OH225537   1.823   0.264   6.039 -0.3240 -0.4363 -0.1494
 8527TIP3    H125538   1.876   0.186   6.056 -0.7630 -1.0058 -1.2908
 8527TIP3    H225539   1.733   0.234   6.046 -0.4984 -0.0827 -0.7850
 8528TIP3   OH225540   7.105   4.723   6.725 -0.4916 -0.4366 -0.3011
 8528TIP3    H125541   7.081   4.709   6.816 -1.0241 -0.2878 -0.4117
 8528TIP3    H225542   7.119   4.635   6.690  2.8320 -0.4097  0.7065
 8529TIP3   OH225543   6.005   0.224   5.663 -0.3782 -0.0189 -0.0412
 8529TIP3    H125544   5.929   0.201   5.715  0.1190 -0.2476  0.5986
 8529TIP3    H225545   6.051   0.290   5.715  0.1194 -0.2441 -0.1873
 8530TIP3   OH225546   5.473   1.146   4.545 -0.1643 -0.2536 -0.5325
 8530TIP3    H125547   5.402   1.083   4.555 -0.6101  0.4571  1.3443
 8530TIP3    H225548   5.545   1.108   4.595  0.0908 -0.0065 -0.7114
 8531TIP3   OH225549   6.125   2.971   2.683 -0.3109 -0.2466 -0.6076
 8531TIP3    H125550   6.073   2.944   2.758  0.4274 -0.1539 -0.0515
 8531TIP3    H225551   6.081   3.049   2.650  0.7626  1.2957  1.3440
 8532TIP3   OH225552   6.613   0.070   0.613 -0.3352  0.0675 -0.5248
 8532TIP3    H125553   6.647   0.142   0.560 -2.3078  0.1270 -1.7694
 8532TIP3    H225554   6.668  -0.004   0.589 -0.6593  0.2886 -2.0713
 8533TIP3   OH225555   6.786   2.423   2.487  0.2934  0.0497 -1.5220
 8533TIP3    H125556   6.862   2.368   2.467  0.9609 -0.1580  1.1780
 8533TIP3    H225557   6.814   2.476   2.562 -2.2245 -0.0936 -0.3726
 8534TIP3   OH225558   2.751   1.436   1.236  0.4134  0.5831 -0.4539
 8534TIP3    H125559   2.704   1.365   1.278 -0.4403  0.2358 -1.9082
 8534TIP3    H225560   2.730   1.513   1.289 -0.7766  0.2052 -0.3470
 8535TIP3   OH225561   3.132   4.192   5.151 -0.5091 -0.6106 -0.5162
 8535TIP3    H125562   3.179   4.153   5.077 -0.4322 -0.4428 -0.5576
 8535TIP3    H225563   3.049   4.146   5.154 -0.5645 -0.5334 -0.7882
 8536TIP3   OH225564   8.205   4.962   0.963 -0.5650 -0.7017 -0.0169
 8536TIP3    H125565   8.265   5.029   0.930 -0.3414 -0.5855  0.6102
 8536TIP3    H225566   8.228   4.953   1.055 -0.2445 -2.0115 -0.2030
 8537TIP3   OH225567   2.813   0.810   1.160  0.1440 -0.5031  0.1443
 8537TIP3    H125568   2.735   0.787   1.211  0.3143 -1.1842  0.1099
 8537TIP3    H225569   2.796   0.775   1.073  1.3566 -2.5942  0.6624
 8538TIP3   OH225570   2.733   6.112   1.084 -0.3922  0.2355 -0.0362
 8538TIP3    H125571   2.687   6.103   1.168  1.0833 -1.5571  0.6439
 8538TIP3    H225572   2.666   6.094   1.018 -0.9471 -1.1811  0.8756
 8539TIP3   OH225573   7.681   5.398   3.443 -0.6260  0.1207 -0.0931
 8539TIP3    H125574   7.585   5.399   3.442 -0.6768  0.0407  1.4707
 8539TIP3    H225575   7.704   5.421   3.533  0.8700  1.6103 -0.7851
 8540TIP3   OH225576   6.033   4.123   1.173 -0.2310  0.1734 -0.1576
 8540TIP3    H125577   6.060   4.152   1.261 -0.5865 -0.5861  0.2141
 8540TIP3    H225578   6.019   4.029   1.183 -3.4469  0.5425 -0.1761
 8541TIP3   OH225579   7.502   4.326   3.858 -0.0817  0.5464  0.3564
 8541TIP3    H125580   7.515   4.392   3.926 -1.8985 -1.1868  2.5294
 8541TIP3    H225581   7.407   4.318   3.850  0.0723 -1.6464  0.0750
 8542TIP3   OH225582   7.507   7.086   3.812 -0.5892 -0.0266 -0.0684
 8542TIP3    H125583   7.596   7.067   3.780 -0.3642  0.3964  0.2963
 8542TIP3    H225584   7.457   7.105   3.732 -0.0604  0.8879 -0.2009
 8543TIP3   OH225585   3.293   0.514   3.016 -0.7617 -0.0646  0.3560
 8543TIP3    H125586   3.260   0.536   2.928  0.1640 -0.9193 -0.2224
 8543TIP3    H225587   3.217   0.477   3.061 -1.2664  0.4458 -0.0629
 8544TIP3   OH225588   1.035   7.418   5.156 -0.2789 -0.4176  0.5023
 8544TIP3    H125589   1.049   7.512   5.170 -1.8366 -0.0019 -0.4035
 8544TIP3    H225590   1.002   7.386   5.240  0.8087 -0.2946  0.9896
 8545TIP3   OH225591   1.431   3.074   3.086  0.7344  1.0093 -0.2287
 8545TIP3    H125592   1.419   2.991   3.132 -1.0058  1.4252  0.1694
 8545TIP3    H225593   1.414   3.142   3.152 -2.3503  1.6152 -1.4466
 8546TIP3   OH225594   1.044   3.739   2.374  0.5251 -0.3263  0.4253
 8546TIP3    H125595   1.135   3.724   2.397  0.5923  0.1858  0.5173
 8546TIP3    H225596   1.007   3.652   2.360  0.6608 -0.6208  1.7686
 8547TIP3   OH225597   2.060   6.830   4.577 -0.2059  0.7204 -0.6096
 8547TIP3    H125598   2.073   6.744   4.619 -0.8817  1.1869  0.5987
 8547TIP3    H225599   2.022   6.809   4.491 -0.3317 -0.2012 -0.3416
 8548TIP3   OH225600   1.906   5.212   5.163  0.4212  0.1421  0.0004
 8548TIP3    H125601   1.860   5.195   5.080 -1.3146  0.6750  0.8144
 8548TIP3    H225602   1.936   5.302   5.156  0.0179  0.2808  0.0782
 8549TIP3   OH225603   4.823   1.693   5.893 -0.8849  0.4532  0.0438
 8549TIP3    H125604   4.844   1.683   5.985 -0.8783  0.6124  0.0606
 8549TIP3    H225605   4.809   1.787   5.882 -1.1572  0.4020 -0.0591
 8550TIP3   OH225606   4.049   1.108   0.914 -0.1973 -0.4096 -0.3417
 8550TIP3    H125607   3.965   1.152   0.904 -0.5439 -0.8992  0.3412
 8550TIP3    H225608   4.046   1.068   1.001  0.7439 -0.4288 -0.3001
 8551TIP3   OH225609   8.163   4.886   3.805 -0.1760  0.7792 -0.4346
 8551TIP3    H125610   8.077   4.918   3.833  0.1184  1.6805 -0.5520
 8551TIP3    H225611   8.165   4.902   3.711 -0.4309 -0.5570 -0.6896
 8552TIP3   OH225612   0.679   0.252   3.905  0.0379 -0.3990 -0.3716
 8552TIP3    H125613   0.673   0.345   3.883 -2.3508  0.3157  2.6267
 8552TIP3    H225614   0.746   0.248   3.973  0.2850 -0.9703 -0.6377
 8553TIP3   OH225615   4.122   7.399   4.321  0.3645  0.1555 -0.0909
 8553TIP3    H125616   4.131   7.492   4.343  1.7818 -0.3281  1.5802
 8553TIP3    H225617   4.211   7.365   4.321 -0.1541 -1.2919 -0.3746
 8554TIP3   OH225618   5.670   2.760   3.026  0.0087  0.8588  0.3667
 8554TIP3    H125619   5.591   2.790   3.072  0.8020  0.8555  1.8030
 8554TIP3    H225620   5.742   2.793   3.080  1.0033  0.9031 -0.9410
 8555TIP3   OH225621   7.884   6.664   3.867 -0.3713  0.1144 -0.1087
 8555TIP3    H125622   7.962   6.615   3.895 -0.6856 -1.1945 -1.3940
 8555TIP3    H225623   7.839   6.604   3.807 -1.2073  1.6901 -1.1171
 8556TIP3   OH225624   7.189   0.528   2.235  0.4643  0.4249  0.1481
 8556TIP3    H125625   7.202   0.439   2.201  0.1136  1.0073 -1.6652
 8556TIP3    H225626   7.157   0.516   2.324 -0.3907 -1.3079 -0.3502
 8557TIP3   OH225627   7.301   4.196   2.035 -0.4075 -0.0322  0.0032
 8557TIP3    H125628   7.236   4.203   1.966 -0.4581  0.6197  0.1118
 8557TIP3    H225629   7.383   4.224   1.994 -0.6993  1.7273  0.5702
 8558TIP3   OH225630   4.674   3.908   3.573 -0.0182  0.3641 -0.0439
 8558TIP3    H125631   4.730   3.961   3.517 -1.8938  1.7657 -0.6811
 8558TIP3    H225632   4.643   3.968   3.641 -2.4374  0.2995 -0.9670
 8559TIP3   OH225633   1.786   1.749   1.553  0.4593  0.1249 -0.0662
 8559TIP3    H125634   1.797   1.820   1.489  0.8092 -0.4718 -0.6838
 8559TIP3    H225635   1.692   1.745   1.568  0.5539  1.7921  1.2258
 8560TIP3   OH225636   3.970   4.405   4.291 -0.1307  0.2283 -0.1194
 8560TIP3    H125637   3.943   4.345   4.361  0.8891  0.4060  0.4364
 8560TIP3    H225638   4.056   4.375   4.264 -0.2990  0.4682 -0.9690
 8561TIP3   OH225639   6.650   1.316   3.763  0.0643 -0.2156  0.2554
 8561TIP3    H125640   6.666   1.222   3.775  1.1672 -0.2671 -1.2682
 8561TIP3    H225641   6.722   1.358   3.810 -0.9047 -0.0850  1.6524
 8562TIP3   OH225642   0.252   3.201   6.384  0.5674  0.0450  0.1712
 8562TIP3    H125643   0.219   3.274   6.332  2.4163  0.3979 -0.5781
 8562TIP3    H225644   0.175   3.170   6.433 -0.7996  0.9313 -1.3086
 8563TIP3   OH225645   4.385   4.814   4.751  0.2680 -0.1444 -0.4862
 8563TIP3    H125646   4.393   4.817   4.846 -0.7439  0.4666 -0.4075
 8563TIP3    H225647   4.401   4.904   4.723  0.9621 -0.4002 -0.9394
 8564TIP3   OH225648   1.672   4.709   2.995 -0.4769 -0.1027  0.5260
 8564TIP3    H125649   1.637   4.621   3.008 -1.7197  0.4790  1.2559
 8564TIP3    H225650   1.767   4.696   2.987 -0.5104 -1.4041  1.7823
 8565TIP3   OH225651   3.715   0.649   3.933 -0.0348 -0.0273 -0.8360
 8565TIP3    H125652   3.761   0.712   3.988 -0.9241  0.9149 -1.1575
 8565TIP3    H225653   3.666   0.595   3.994  0.0565  0.1371 -0.6186
 8566TIP3   OH225654   3.456   7.163   3.749 -0.3939 -0.2666 -0.5110
 8566TIP3    H125655   3.485   7.096   3.686  0.7077 -1.3873  1.1135
 8566TIP3    H225656   3.536   7.208   3.775 -1.3180  3.5652 -3.4337
 8567TIP3   OH225657   2.772   4.817   0.867  0.5789 -0.2341  0.1843
 8567TIP3    H125658   2.801   4.730   0.894 -1.7929 -0.0154  4.0483
 8567TIP3    H225659   2.692   4.801   0.817  1.1519 -0.2848 -0.7509
 8568TIP3   OH225660   6.278   2.225   2.218  0.2455 -0.1731  0.3366
 8568TIP3    H125661   6.359   2.173   2.221 -0.0102 -0.7622 -1.6719
 8568TIP3    H225662   6.299   2.298   2.159 -0.4546  0.0931  0.4114
 8569TIP3   OH225663   3.163   0.819   5.201 -0.1339  0.5253 -0.0123
 8569TIP3    H125664   3.238   0.764   5.180 -0.5139  0.1249 -0.3280
 8569TIP3    H225665   3.145   0.802   5.293  1.7169  2.4961  0.7982
 8570TIP3   OH225666   7.078   5.244   1.064  0.2905 -0.0438  0.5020
 8570TIP3    H125667   7.047   5.174   1.120  0.3021 -0.8783 -0.5061
 8570TIP3    H225668   7.147   5.204   1.010  0.9180  0.9655  0.5249
 8571TIP3   OH225669   7.231   6.849   0.254 -0.4896 -0.4452  0.2737
 8571TIP3    H125670   7.243   6.755   0.240 -0.8786 -0.3039 -1.0737
 8571TIP3    H225671   7.291   6.869   0.326  0.0740 -1.5952  0.1601
 8572TIP3   OH225672   2.405   6.964   1.817  0.4981 -0.6494  0.0691
 8572TIP3    H125673   2.438   7.053   1.807  1.6561 -0.6480  2.8745
 8572TIP3    H225674   2.333   6.957   1.754  2.0861  1.3330 -2.0982
 8573TIP3   OH225675   5.965   3.287   5.959  0.3273  0.1693 -0.0541
 8573TIP3    H125676   5.939   3.208   6.007 -1.4737  0.9858  0.4011
 8573TIP3    H225677   6.047   3.263   5.916 -0.9897 -2.5029 -1.2811
 8574TIP3   OH225678   1.938   4.966   3.851 -0.0331  0.4434  0.0543
 8574TIP3    H125679   1.906   4.999   3.936  0.9910  0.1904  0.5522
 8574TIP3    H225680   1.979   5.042   3.810  2.3626 -0.1291  1.2193
 8575TIP3   OH225681   0.493   0.591   5.791  0.0721 -0.0534  0.5147
 8575TIP3    H125682   0.547   0.528   5.838  2.8259  0.7363 -1.3098
 8575TIP3    H225683   0.554   0.661   5.767 -1.9191  1.2046 -1.1954
 8576TIP3   OH225684   0.650   1.837   0.627  0.7860 -0.7421  0.0234
 8576TIP3    H125685   0.707   1.907   0.658  0.5261 -0.4472 -0.1566
 8576TIP3    H225686   0.657   1.842   0.531  0.8975 -1.0747  0.0111
 8577TIP3   OH225687   2.694   3.064   3.918 -0.4986 -0.6673  0.3342
 8577TIP3    H125688   2.785   3.072   3.947 -0.1138 -0.5588 -0.8460
 8577TIP3    H225689   2.643   3.108   3.987  0.5244  1.1712 -0.0056
 8578TIP3   OH225690   3.327   3.675   4.175 -0.6335 -0.4380 -0.6555
 8578TIP3    H125691   3.325   3.742   4.244  1.6276 -1.8517  0.9214
 8578TIP3    H225692   3.247   3.690   4.125 -1.6625  1.5669  1.3970
 8579TIP3   OH225693   1.928   0.421   3.074 -0.4679 -0.0515 -0.0910
 8579TIP3    H125694   1.839   0.447   3.097  0.3750  0.2421  3.3410
 8579TIP3    H225695   1.947   0.348   3.133  1.3489 -0.5602 -1.2397
 8580TIP3   OH225696   7.652   7.519   5.629  0.0188  0.1882 -0.3951
 8580TIP3    H125697   7.620   7.461   5.559 -0.4506 -0.9994  0.7671
 8580TIP3    H225698   7.578   7.578   5.646 -1.0352 -1.4700  1.1248
 8581TIP3   OH225699   0.907   4.232   6.018 -0.5044  0.1632  0.2696
 8581TIP3    H125700   0.936   4.148   5.983 -1.0607 -0.0544  0.3099
 8581TIP3    H225701   0.982   4.266   6.067  0.1623  0.3108 -0.8293
 8582TIP3   OH225702   0.423   5.320   0.483 -0.8539  0.3291 -0.5203
 8582TIP3    H125703   0.399   5.343   0.393 -2.1602  0.8041 -0.0793
 8582TIP3    H225704   0.347   5.274   0.518 -0.6649  0.7774  0.5579
 8583TIP3   OH225705   1.140   2.381   2.041 -0.2240  0.0015  0.4300
 8583TIP3    H125706   1.135   2.297   2.087  0.7238 -0.5164 -0.3542
 8583TIP3    H225707   1.170   2.443   2.107  1.2165 -0.7496  0.5395
 8584TIP3   OH225708   7.129   1.867   1.075  0.2408  0.5264 -0.5214
 8584TIP3    H125709   7.108   1.932   1.008  0.3896 -0.3382 -1.4363
 8584TIP3    H225710   7.046   1.820   1.089  0.6266 -0.4957 -1.4718
 8585TIP3   OH225711   2.360   3.802   3.485 -0.4913  0.3761 -0.3627
 8585TIP3    H125712   2.381   3.747   3.561  2.1498 -0.0002 -1.2871
 8585TIP3    H225713   2.365   3.743   3.410 -1.4592  1.1010 -1.0252
 8586TIP3   OH225714   0.199   0.424   1.403  1.0754  0.1943 -0.4486
 8586TIP3    H125715   0.284   0.465   1.383  1.7058 -0.9935 -0.3044
 8586TIP3    H225716   0.222   0.346   1.453 -0.2135  0.6234  0.8463
 8587TIP3   OH225717   8.056   3.232   4.839 -0.5153 -0.4954 -0.1710
 8587TIP3    H125718   8.104   3.150   4.830  0.4524 -0.0381  0.5278
 8587TIP3    H225719   8.071   3.278   4.756  0.9303 -0.0438  0.3012
 8588TIP3   OH225720   5.050   7.052   1.483  0.5305  0.2332  0.2234
 8588TIP3    H125721   5.088   7.023   1.400  0.9540 -0.6895  0.7278
 8588TIP3    H225722   5.077   6.985   1.547  0.1151  0.8648  1.0818
 8589TIP3   OH225723   7.775   5.695   0.314  0.1860 -0.4655 -0.2696
 8589TIP3    H125724   7.801   5.634   0.384  0.8222 -1.5437 -1.3928
 8589TIP3    H225725   7.764   5.639   0.237  2.9936  1.0058 -1.9343
 8590TIP3   OH225726   1.458   2.657   5.717 -0.1024 -0.0725  0.0878
 8590TIP3    H125727   1.509   2.629   5.641  0.1666 -0.4243  0.3946
 8590TIP3    H225728   1.367   2.653   5.687 -0.1326 -1.9576  0.3263
 8591TIP3   OH225729   1.595   7.193   4.881  0.5140 -0.4211  0.2003
 8591TIP3    H125730   1.666   7.152   4.930 -0.0627 -0.9290  0.6288
 8591TIP3    H225731   1.566   7.125   4.820  0.7166 -0.0509 -0.3189
 8592TIP3   OH225732   6.757   6.805   2.415  0.2872  0.2340  0.1369
 8592TIP3    H125733   6.722   6.797   2.504 -0.2987  1.4756  0.0439
 8592TIP3    H225734   6.839   6.854   2.426  0.4571 -0.0287  0.0426
 8593TIP3   OH225735   5.439   5.259   1.499  0.0765 -0.2116 -0.1251
 8593TIP3    H125736   5.434   5.184   1.439 -2.9959 -0.7627  0.6585
 8593TIP3    H225737   5.465   5.220   1.583 -1.5002 -0.4663  0.2773
 8594TIP3   OH225738   7.328   0.533   5.596  0.1945  1.2885 -0.7670
 8594TIP3    H125739   7.343   0.625   5.572 -1.3375  1.6666 -0.3461
 8594TIP3    H225740   7.312   0.535   5.690  0.2675  0.5625 -0.7333
 8595TIP3   OH225741   1.966   4.546   2.071 -0.2175  0.1020  0.4434
 8595TIP3    H125742   1.876   4.525   2.046 -0.7427  0.1210  2.1888
 8595TIP3    H225743   2.020   4.486   2.019 -1.2479 -0.1135 -0.4136
 8596TIP3   OH225744   2.999   0.447   5.172 -0.3221 -0.5266  0.2340
 8596TIP3    H125745   3.015   0.432   5.265 -1.2292  1.1836  0.7133
 8596TIP3    H225746   2.934   0.381   5.148 -1.9862  0.5387  1.4995
 8597TIP3   OH225747   4.819   1.135   2.744 -0.3041 -0.3953  0.0433
 8597TIP3    H125748   4.800   1.103   2.833  0.5857  1.4734  0.9741
 8597TIP3    H225749   4.892   1.080   2.714  0.3757 -0.1088  1.0896
 8598TIP3   OH225750   1.467   7.412   2.830 -0.2594  0.0661  0.0833
 8598TIP3    H125751   1.509   7.498   2.826 -2.2131  1.0864  0.3669
 8598TIP3    H225752   1.496   7.367   2.750 -0.5991  1.6861 -1.0019
 8599TIP3   OH225753   5.459   0.867   3.310  0.4210  0.5971  0.5703
 8599TIP3    H125754   5.466   0.788   3.363  1.5490  0.4737  0.2636
 8599TIP3    H225755   5.393   0.847   3.244  1.4262 -0.4773 -0.1389
 8600TIP3   OH225756   2.546   0.967   2.913  0.0371 -0.1095  0.1951
 8600TIP3    H125757   2.484   0.900   2.884 -0.3922  0.7243 -0.8863
 8600TIP3    H225758   2.604   0.981   2.838  0.1772  0.6600  0.4333
 8601TIP3   OH225759   6.769   2.545   4.942  0.2303  0.4229 -0.8380
 8601TIP3    H125760   6.839   2.554   5.008  0.2103  0.8394 -0.8739
 8601TIP3    H225761   6.792   2.609   4.874  1.2311 -1.2098 -2.1177
 8602TIP3   OH225762   0.245   5.092   6.655 -0.2615  0.2506 -0.1673
 8602TIP3    H125763   0.230   5.093   6.561 -1.4880  1.1230  0.0081
 8602TIP3    H225764   0.161   5.064   6.693 -0.3031  1.4738  0.7114
 8603TIP3   OH225765   2.308   7.110   3.993  0.0893 -0.3141 -0.1807
 8603TIP3    H125766   2.252   7.046   3.949 -2.1468 -0.0871  2.0743
 8603TIP3    H225767   2.378   7.129   3.931 -0.0154 -3.7565 -1.5367
 8604TIP3   OH225768   3.897   2.451   0.924 -0.7980 -0.2264 -0.5074
 8604TIP3    H125769   3.834   2.522   0.911 -0.4760 -0.3161 -3.1075
 8604TIP3    H225770   3.983   2.494   0.918 -0.6175 -0.5828 -0.4684
 8605TIP3   OH225771   3.620   7.079   6.560  0.2738  0.3158  0.1811
 8605TIP3    H125772   3.702   7.076   6.510  1.0434  1.3053  1.3096
 8605TIP3    H225773   3.606   7.173   6.577  0.0541  0.0179  1.7930
 8606TIP3   OH225774   7.008   1.298   1.749 -0.1277 -0.2913 -0.3978
 8606TIP3    H125775   6.922   1.279   1.712 -1.1471  1.2837  0.9845
 8606TIP3    H225776   7.052   1.351   1.682 -0.2605 -1.0181 -1.0700
 8607TIP3   OH225777   3.502   6.270   4.449 -0.2016 -0.1404  0.3515
 8607TIP3    H125778   3.498   6.292   4.356 -0.4909  0.1605  0.4362
 8607TIP3    H225779   3.416   6.293   4.484  0.0747  0.2252  0.8031
 8608TIP3   OH225780   3.435   7.637   5.073 -0.6702 -0.1937  0.3056
 8608TIP3    H125781   3.391   7.555   5.050  0.0990 -1.1160  1.9147
 8608TIP3    H225782   3.403   7.657   5.162  1.4768 -0.4600  1.1931
 8609TIP3   OH225783   4.719   2.069   5.008  0.4490 -0.0875  0.8422
 8609TIP3    H125784   4.791   2.008   4.987  0.4373  0.3138 -0.4071
 8609TIP3    H225785   4.703   2.054   5.101  3.1035  0.7960  1.5497
 8610TIP3   OH225786   3.832   5.530   3.942  0.5592  0.4768 -0.5326
 8610TIP3    H125787   3.914   5.537   3.991  0.5486 -2.1995  0.0229
 8610TIP3    H225788   3.861   5.521   3.851  0.8237  0.6485 -0.4688
 8611TIP3   OH225789   3.068   4.521   6.668 -0.0050 -0.0186  0.1404
 8611TIP3    H125790   2.990   4.505   6.615  0.0343  0.8846 -0.2193
 8611TIP3    H225791   3.135   4.547   6.605 -0.0295  1.3264  0.6294
 8612TIP3   OH225792   7.813   3.660   3.145 -0.1877  0.2064  0.0083
 8612TIP3    H125793   7.835   3.733   3.203  0.5052  0.1886 -0.2171
 8612TIP3    H225794   7.729   3.628   3.178  0.3428 -0.0122  1.2263
 8613TIP3   OH225795   0.416   6.155   0.885  0.3399  0.0650 -0.2257
 8613TIP3    H125796   0.364   6.191   0.813  0.0929  2.8879  1.1912
 8613TIP3    H225797   0.503   6.192   0.873  0.1239  1.1713  1.1975
 8614TIP3   OH225798   0.581   1.945   5.203  0.1138 -0.5869 -0.0133
 8614TIP3    H125799   0.597   1.856   5.171 -0.8790  0.4800 -3.9287
 8614TIP3    H225800   0.492   1.942   5.237  0.1282 -1.1082 -0.0020
 8615TIP3   OH225801   6.428   4.363   3.160  0.8805  0.6414  0.3226
 8615TIP3    H125802   6.503   4.383   3.216  2.0073 -0.0639 -0.8699
 8615TIP3    H225803   6.435   4.269   3.143 -1.7227  0.0017  2.1699
 8616TIP3   OH225804   5.706   4.263   3.198 -0.5338  0.2308 -0.6251
 8616TIP3    H125805   5.706   4.324   3.271 -0.2729 -0.4681 -0.0231
 8616TIP3    H225806   5.771   4.297   3.137 -0.7265  0.7952 -0.5198
 8617TIP3   OH225807   3.610   7.074   4.867  1.1149  0.3864 -0.9512
 8617TIP3    H125808   3.697   7.114   4.861  0.8446  1.1196 -0.1146
 8617TIP3    H225809   3.619   7.007   4.935  1.6729 -1.3230 -2.6217
 8618TIP3   OH225810   6.197   3.166   2.139 -0.4058  0.9380  0.2291
 8618TIP3    H125811   6.262   3.117   2.188  1.3764  2.8343 -0.0658
 8618TIP3    H225812   6.200   3.129   2.050  1.3173  1.8327 -0.1367
 8619TIP3   OH225813   1.898   1.112   6.446 -0.1784 -0.4780 -0.3755
 8619TIP3    H125814   1.984   1.144   6.474 -1.1614  1.1723  0.9247
 8619TIP3    H225815   1.914   1.074   6.359  1.2325  3.0716 -1.8527
 8620TIP3   OH225816   3.577   4.440   1.574  0.3799 -0.2575  0.0889
 8620TIP3    H125817   3.492   4.413   1.540  1.5164 -2.3341 -1.3694
 8620TIP3    H225818   3.635   4.366   1.553  2.3015  0.6008  2.0334
 8621TIP3   OH225819   7.961   6.161   1.397  0.3030 -0.3400  0.2550
 8621TIP3    H125820   7.880   6.121   1.428  0.1459 -0.6900 -0.5788
 8621TIP3    H225821   8.018   6.087   1.376  0.9965 -0.0965  1.2047
 8622TIP3   OH225822   3.420   5.853   4.152 -0.3606  0.4810  0.1451
 8622TIP3    H125823   3.389   5.850   4.061  0.4110 -0.1519 -0.1063
 8622TIP3    H225824   3.504   5.806   4.150 -0.1497  0.8065  1.1098
 8623TIP3   OH225825   2.463   7.249   5.680  0.1617  0.1009 -0.2192
 8623TIP3    H125826   2.480   7.321   5.619 -0.7672  0.7026  0.2214
 8623TIP3    H225827   2.376   7.218   5.656  0.3486 -0.5496 -0.0683
 8624TIP3   OH225828   5.333   6.612   2.189 -0.9495  0.1188  0.7544
 8624TIP3    H125829   5.274   6.538   2.176 -1.3570  0.6472 -0.5289
 8624TIP3    H225830   5.419   6.579   2.162 -1.3214  0.4110 -0.8625
 8625TIP3   OH225831   4.688   0.548   5.043  0.4133 -0.3572 -0.4446
 8625TIP3    H125832   4.639   0.530   4.962  1.3467 -0.7617 -0.9324
 8625TIP3    H225833   4.751   0.476   5.050  1.0472  0.2305  0.0843
 8626TIP3   OH225834   0.329   4.125   3.981 -0.7018  0.7143 -0.1251
 8626TIP3    H125835   0.263   4.057   3.994  0.6240 -0.7681 -0.7991
 8626TIP3    H225836   0.379   4.125   4.063 -1.3932  1.7094  0.3153
 8627TIP3   OH225837   7.497   5.621   4.089 -0.3127 -0.3299  0.1681
 8627TIP3    H125838   7.493   5.682   4.162  1.5554  2.3064 -1.7527
 8627TIP3    H225839   7.413   5.633   4.044 -0.0503  0.7282 -0.0697
 8628TIP3   OH225840   2.459   1.667   1.938  0.1690  0.2051 -0.2287
 8628TIP3    H125841   2.432   1.612   2.012  1.1050 -0.6683 -0.5134
 8628TIP3    H225842   2.389   1.732   1.930 -1.3739 -1.3789 -0.3311
 8629TIP3   OH225843   7.751   1.272   6.695 -0.3335 -0.1555 -0.6164
 8629TIP3    H125844   7.699   1.192   6.688 -1.6531  0.5273  0.7029
 8629TIP3    H225845   7.771   1.296   6.605 -0.3125 -1.7042 -1.0506
 8630TIP3   OH225846   0.045   6.408   0.079  0.0897  0.4265  0.2796
 8630TIP3    H125847   0.117   6.392   0.140  0.9624  1.3514 -0.4777
 8630TIP3    H225848   0.085   6.455   0.006 -1.2972  1.0147 -0.1352
 8631TIP3   OH225849   1.662   1.303   6.438 -0.0758  0.3527  0.2050
 8631TIP3    H125850   1.636   1.335   6.352 -1.4117 -1.1406 -0.0050
 8631TIP3    H225851   1.748   1.264   6.425  1.4345  3.3729  0.4010
 8632TIP3   OH225852   3.594   3.721   5.635  0.4000 -0.2763  0.4471
 8632TIP3    H125853   3.661   3.745   5.699 -0.1985  2.3281  0.2369
 8632TIP3    H225854   3.637   3.658   5.577  1.9650 -0.2672  1.5403
 8633TIP3   OH225855   7.819   1.315   0.553 -0.3544 -0.0205  0.1065
 8633TIP3    H125856   7.838   1.345   0.465 -0.8689  0.4712  0.1586
 8633TIP3    H225857   7.901   1.326   0.601 -1.1651  4.1944  0.9227
 8634TIP3   OH225858   7.125   1.004   2.399  0.5446 -0.3420  0.2590
 8634TIP3    H125859   7.204   0.959   2.428  0.8005 -0.1454 -0.1106
 8634TIP3    H225860   7.083   0.941   2.340  0.4908 -0.3996  0.3590
 8635TIP3   OH225861   4.155   4.428   0.218  0.1558 -0.1485 -0.3465
 8635TIP3    H125862   4.226   4.387   0.168  0.6151 -0.4944  0.5804
 8635TIP3    H225863   4.133   4.506   0.166 -1.0256 -1.7125 -2.3551
 8636TIP3   OH225864   4.390   2.559   1.905 -0.1666 -0.4784 -0.5368
 8636TIP3    H125865   4.477   2.598   1.895 -0.1352 -0.8283 -1.7316
 8636TIP3    H225866   4.335   2.608   1.844 -0.2739 -1.8238 -1.5638
 8637TIP3   OH225867   4.121   4.428   3.044  0.7532 -0.1336 -0.8305
 8637TIP3    H125868   4.126   4.523   3.055  2.0447 -0.1874 -0.8189
 8637TIP3    H225869   4.035   4.413   3.004 -0.0128  0.9060  0.3693
 8638TIP3   OH225870   4.961   6.080   6.226  0.1367  0.5169 -0.0611
 8638TIP3    H125871   5.033   6.017   6.240  0.4960  1.3111  2.0861
 8638TIP3    H225872   4.949   6.121   6.312 -0.2568  3.1990 -1.3076
 8639TIP3   OH225873   6.601   3.659   3.481 -0.4103 -0.2251 -0.3874
 8639TIP3    H125874   6.653   3.579   3.483 -0.5767 -0.3906 -1.6668
 8639TIP3    H225875   6.652   3.722   3.530 -0.5809 -1.2759  1.2286
 8640TIP3   OH225876   4.562   4.237   2.884  0.3684  0.6811  0.3827
 8640TIP3    H125877   4.558   4.257   2.791  0.4173 -0.0868  0.2116
 8640TIP3    H225878   4.503   4.163   2.896  1.0683  0.1815  0.7988
 8641TIP3   OH225879   6.689   4.552   5.469  0.1051 -0.2294 -0.2006
 8641TIP3    H125880   6.620   4.581   5.410  0.6289  0.5003 -0.4660
 8641TIP3    H225881   6.737   4.486   5.419 -0.8118 -1.2588  0.2402
 8642TIP3   OH225882   2.069   0.928   5.195 -0.2468  0.0081 -0.1607
 8642TIP3    H125883   2.014   1.004   5.216  0.8189  0.8143 -0.1888
 8642TIP3    H225884   2.128   0.920   5.270 -1.0370 -1.4814  0.3425
 8643TIP3   OH225885   3.853   4.598   4.461  0.8339  0.8287 -0.3458
 8643TIP3    H125886   3.918   4.556   4.405  2.2298  1.0175  1.0723
 8643TIP3    H225887   3.819   4.670   4.407 -0.0188 -0.7202 -1.9993
 8644TIP3   OH225888   3.869   6.560   4.528 -0.5576  0.3884 -0.0857
 8644TIP3    H125889   3.957   6.549   4.493 -1.0723 -0.7651 -1.0837
 8644TIP3    H225890   3.860   6.654   4.542  0.9523  0.4824  0.3863
 8645TIP3   OH225891   0.718   2.924   3.744  0.6143  0.0142  0.0493
 8645TIP3    H125892   0.716   2.843   3.796  1.1351  0.1588  0.3062
 8645TIP3    H225893   0.811   2.946   3.739  0.5242  0.2532 -0.5615
 8646TIP3   OH225894   4.851   2.077   4.702 -0.3210 -0.2363  0.4988
 8646TIP3    H125895   4.939   2.040   4.705  0.4762  1.1333 -2.4590
 8646TIP3    H225896   4.820   2.057   4.613 -0.9500  3.5428 -0.2737
 8647TIP3   OH225897   2.769   3.426   0.446  0.6105  0.3622 -0.1174
 8647TIP3    H125898   2.831   3.486   0.405  0.2179  0.7106 -0.2086
 8647TIP3    H225899   2.812   3.399   0.527  0.6338  1.0672  0.1103
 8648TIP3   OH225900   4.714   3.212   5.333 -0.4409 -0.0908  0.3269
 8648TIP3    H125901   4.746   3.299   5.307 -0.2486  0.5131  2.4075
 8648TIP3    H225902   4.757   3.195   5.417  0.7896 -2.9434 -0.7700
 8649TIP3   OH225903   5.878   5.164   0.786  0.3356  0.0028 -0.1900
 8649TIP3    H125904   5.836   5.136   0.867  1.5414 -1.4788 -0.0299
 8649TIP3    H225905   5.947   5.224   0.814  0.3900 -0.0709 -0.1656
 8650TIP3   OH225906   1.847   7.585   6.408 -0.2505 -0.1457  0.1288
 8650TIP3    H125907   1.816   7.604   6.320  0.4797 -0.9306 -0.3060
 8650TIP3    H225908   1.896   7.664   6.433 -0.3232  0.0156 -0.2271
 8651TIP3   OH225909   2.567   1.881   2.992  0.4078  0.4433 -0.4968
 8651TIP3    H125910   2.650   1.836   2.975  0.5859  0.7493 -0.4416
 8651TIP3    H225911   2.522   1.825   3.056 -0.2817 -0.7374 -1.9493
 8652TIP3   OH225912   1.354   2.248   2.549  0.1574 -0.0659  0.1250
 8652TIP3    H125913   1.275   2.264   2.497  0.3553 -1.2555 -0.6067
 8652TIP3    H225914   1.402   2.330   2.545 -0.7216  0.4655  0.0168
 8653TIP3   OH225915   0.710   6.696   3.223  0.4291  0.2145  0.4326
 8653TIP3    H125916   0.630   6.750   3.220  0.8877  0.9779  1.3633
 8653TIP3    H225917   0.746   6.713   3.309  1.8437  0.2121 -0.1432
 8654TIP3   OH225918   0.307   7.757   1.992  0.5849  0.5044  0.3256
 8654TIP3    H125919   0.291   7.776   2.085  0.1888  0.3305  0.2947
 8654TIP3    H225920   0.278   7.667   1.981  0.9713  0.4016  0.1104
 8655TIP3   OH225921   1.435   2.010   2.462  0.1761 -0.4566 -0.0757
 8655TIP3    H125922   1.364   1.951   2.488 -0.3052  0.2258  0.1606
 8655TIP3    H225923   1.410   2.095   2.497 -0.0593  0.3092 -1.9992
 8656TIP3   OH225924   1.155   3.745   3.438 -0.3948  0.5307 -0.3638
 8656TIP3    H125925   1.093   3.775   3.504  1.6687  0.2995  1.8333
 8656TIP3    H225926   1.177   3.823   3.388 -0.6830  1.1057  0.3844
 8657TIP3   OH225927   3.936   1.604   4.277 -0.2898  0.5633  0.0208
 8657TIP3    H125928   3.940   1.699   4.277 -1.2479  0.6473  1.3958
 8657TIP3    H225929   3.888   1.582   4.357  1.0300 -1.1265  0.4279
 8658TIP3   OH225930   5.760   1.048   0.471  0.1452 -0.4691 -0.6460
 8658TIP3    H125931   5.714   1.059   0.388  0.6375 -2.1893 -1.1940
 8658TIP3    H225932   5.716   1.108   0.531  0.2790  1.4074 -2.3201
 8659TIP3   OH225933   0.796   1.239   1.068  0.9614 -0.2288 -0.0039
 8659TIP3    H125934   0.806   1.256   1.161 -0.2571 -0.8475  0.2591
 8659TIP3    H225935   0.844   1.156   1.053 -0.8108 -1.4034  0.5735
 8660TIP3   OH225936   4.354   3.208   0.359  0.3006 -0.0041 -0.3806
 8660TIP3    H125937   4.406   3.188   0.438 -1.1517  0.5944  0.7769
 8660TIP3    H225938   4.295   3.133   0.349  1.7203 -0.9736 -2.0544
 8661TIP3   OH225939   5.558   4.057   0.916 -0.0769 -0.9621 -0.3836
 8661TIP3    H125940   5.651   4.041   0.904  0.1044 -1.2604  1.2650
 8661TIP3    H225941   5.522   4.057   0.827  1.8069  1.4073 -1.2474
 8662TIP3   OH225942   4.183   3.648   2.190 -0.5033  0.4560 -0.1568
 8662TIP3    H125943   4.187   3.565   2.143 -0.2807  1.3560 -1.7804
 8662TIP3    H225944   4.177   3.623   2.282  0.6259 -1.3467 -0.5298
 8663TIP3   OH225945   8.160   6.939   1.680  0.0394  0.1038  0.3138
 8663TIP3    H125946   8.117   7.024   1.673 -0.1113 -0.0537 -1.2321
 8663TIP3    H225947   8.169   6.910   1.589 -0.1959 -1.6673  0.8187
 8664TIP3   OH225948   3.793   3.697   2.541  0.1886 -0.5177 -0.4412
 8664TIP3    H125949   3.850   3.647   2.600 -0.6326 -0.5855  0.3115
 8664TIP3    H225950   3.725   3.635   2.515 -2.2747  0.7439  2.4374
 8665TIP3   OH225951   1.491   1.141   4.086 -0.1509 -0.1303 -0.0849
 8665TIP3    H125952   1.439   1.208   4.042 -0.3324  0.3680  0.8755
 8665TIP3    H225953   1.427   1.074   4.112 -0.0307 -0.4708 -0.6519
 8666TIP3   OH225954   5.685   5.741   4.684 -0.3883  0.4408  0.8146
 8666TIP3    H125955   5.662   5.759   4.593 -2.6536  1.9935  1.5746
 8666TIP3    H225956   5.718   5.652   4.684 -1.2499  0.0595 -1.3838
 8667TIP3   OH225957   7.924   7.568   2.716 -0.4074  0.1332 -0.5001
 8667TIP3    H125958   7.859   7.637   2.705  1.2492  1.7060 -0.9129
 8667TIP3    H225959   8.007   7.609   2.691  0.6254 -2.0674 -0.8952
 8668TIP3   OH225960   1.280   6.195   2.189 -0.0960  0.0687  0.2507
 8668TIP3    H125961   1.329   6.250   2.250 -1.8667  0.8281  1.0710
 8668TIP3    H225962   1.227   6.138   2.245  0.0313 -0.9370 -0.6031
 8669TIP3   OH225963   4.194   6.777   1.004 -0.6608  0.2646 -0.0068
 8669TIP3    H125964   4.139   6.842   0.960 -0.2377  0.5827 -0.0791
 8669TIP3    H225965   4.142   6.697   1.003 -1.3896  0.7214  0.5090
 8670TIP3   OH225966   2.764   2.498   5.391  0.2088 -0.1564  0.9316
 8670TIP3    H125967   2.680   2.476   5.350  1.0050 -2.4565  0.3951
 8670TIP3    H225968   2.799   2.570   5.338 -0.1135 -1.1484 -0.6917
 8671TIP3   OH225969   5.941   6.178   4.998 -0.4444 -0.2850  0.7619
 8671TIP3    H125970   5.921   6.098   4.949  0.9186  0.5919 -1.3678
 8671TIP3    H225971   5.873   6.240   4.973 -0.1292 -0.0377  0.5165
 8672TIP3   OH225972   4.061   2.688   5.677 -0.0510 -1.0029 -0.2168
 8672TIP3    H125973   4.153   2.663   5.688 -0.2016 -1.9893 -1.0645
 8672TIP3    H225974   4.029   2.701   5.766  1.2750  0.7996  0.0695
 8673TIP3   OH225975   7.916   4.729   2.149  0.2797  0.3763 -0.5755
 8673TIP3    H125976   7.959   4.779   2.218 -1.7430  0.5953  0.6359
 8673TIP3    H225977   7.964   4.646   2.145 -0.4481 -0.3039  2.3019
 8674TIP3   OH225978   5.693   6.682   0.991  0.2557 -0.1269  0.0066
 8674TIP3    H125979   5.761   6.734   0.949 -0.2955  0.7502  0.1626
 8674TIP3    H225980   5.710   6.691   1.085  0.3250 -0.4557  0.0240
 8675TIP3   OH225981   0.399   7.480   5.267  0.4886  0.1418 -0.0800
 8675TIP3    H125982   0.429   7.569   5.285 -0.1582  0.4965 -0.6971
 8675TIP3    H225983   0.471   7.439   5.219  0.4847  0.5860 -0.4669
 8676TIP3   OH225984   1.046   6.623   4.820  0.1097 -0.2982 -0.7125
 8676TIP3    H125985   0.985   6.663   4.883  1.1777 -0.6541  0.6019
 8676TIP3    H225986   1.021   6.660   4.736 -1.1541  0.4700 -0.0404
 8677TIP3   OH225987   1.050   1.858   4.137  0.5811  0.5604 -0.0677
 8677TIP3    H125988   1.071   1.855   4.044 -1.8280  0.4918 -0.6665
 8677TIP3    H225989   1.102   1.787   4.175  0.2510 -0.6058 -1.6746
 8678TIP3   OH225990   6.010   0.697   0.230 -0.5697  0.4937  0.4048
 8678TIP3    H125991   5.975   0.786   0.236  0.4540  0.9984 -0.6450
 8678TIP3    H225992   6.034   0.687   0.137  0.0467 -0.5922  0.6634
 8679TIP3   OH225993   6.027   3.749   2.838  0.5515 -0.0725 -0.1776
 8679TIP3    H125994   6.073   3.759   2.755 -0.4429 -0.4391 -0.7886
 8679TIP3    H225995   6.097   3.736   2.903  1.4021  1.4284 -0.7529
 8680TIP3   OH225996   5.577   2.945   4.638 -0.3465  0.1808  0.0219
 8680TIP3    H125997   5.583   2.851   4.626 -0.2294  0.2630 -0.5775
 8680TIP3    H225998   5.568   2.956   4.733  0.6808 -0.3825  0.2076
 8681TIP3   OH225999   0.122   3.589   3.975  0.0833  0.2236 -0.2204
 8681TIP3    H126000   0.148   3.534   4.049 -1.2265 -0.6259 -0.3474
 8681TIP3    H226001   0.064   3.655   4.014  0.2643  0.4505 -0.3340
 8682TIP3   OH226002   6.832   1.316   5.620  0.0286  0.3412 -0.0178
 8682TIP3    H126003   6.769   1.289   5.553 -0.6083  2.1599 -0.2246
 8682TIP3    H226004   6.813   1.409   5.633  2.2938  0.7902  0.3658
 8683TIP3   OH226005   3.626   0.057   3.870 -0.6063  0.4994  0.6189
 8683TIP3    H126006   3.644  -0.026   3.827  0.4218  0.5878  0.8360
 8683TIP3    H226007   3.695   0.116   3.838 -1.6214  1.4277  0.0540
 8684TIP3   OH226008   5.033   0.375   5.738 -0.3687 -0.1615  0.0851
 8684TIP3    H126009   5.097   0.320   5.784 -0.4621  0.5500  1.0862
 8684TIP3    H226010   5.063   0.465   5.754 -0.7085  0.1167 -0.7999
 8685TIP3   OH226011   2.697   5.193   5.675  0.0794  0.2729  0.5763
 8685TIP3    H126012   2.733   5.195   5.586 -2.3449 -0.0493 -0.4932
 8685TIP3    H226013   2.605   5.218   5.664 -0.4633 -0.4754  2.9070
 8686TIP3   OH226014   0.731   4.635   4.934 -0.0776 -0.1526 -0.9429
 8686TIP3    H126015   0.741   4.540   4.941 -0.6230 -0.2324 -1.1492
 8686TIP3    H226016   0.801   4.663   4.876  1.5371 -0.1104  0.9213
 8687TIP3   OH226017   6.494   1.337   2.838  0.5893 -0.3718  0.1711
 8687TIP3    H126018   6.512   1.408   2.899  0.5797  1.6408 -2.0535
 8687TIP3    H226019   6.569   1.277   2.848  1.3278  0.6727  1.0933
 8688TIP3   OH226020   3.047  -0.012   1.712 -0.2295  0.5755 -0.1514
 8688TIP3    H126021   3.103   0.065   1.700 -1.2166  1.9768  3.1197
 8688TIP3    H226022   3.052  -0.031   1.805 -0.9209 -2.7209 -0.6653
 8689TIP3   OH226023   7.196   2.398   0.577  0.3511 -0.0268  0.1506
 8689TIP3    H126024   7.161   2.417   0.490  0.3472 -1.7454 -0.2686
 8689TIP3    H226025   7.122   2.414   0.637 -0.4633 -1.2761 -0.4672
 8690TIP3   OH226026   7.655   4.659   6.459 -0.4750  0.0557  0.4876
 8690TIP3    H126027   7.602   4.614   6.525  1.3696 -3.0693  0.0568
 8690TIP3    H226028   7.742   4.620   6.468  0.3670  1.0187 -2.4130
 8691TIP3   OH226029   4.168   4.663   3.424  0.2234  0.4074  0.0626
 8691TIP3    H126030   4.146   4.581   3.467  2.1798  0.2306  0.8218
 8691TIP3    H226031   4.092   4.720   3.440 -0.7941 -0.9560  0.2325
 8692TIP3   OH226032   3.670   0.997   2.547  0.5191 -0.5558 -0.0285
 8692TIP3    H126033   3.589   1.043   2.569  0.0668 -1.1268 -0.4799
 8692TIP3    H226034   3.642   0.922   2.494  1.0682 -2.3330  2.0550
 8693TIP3   OH226035   8.277   3.626   1.698 -0.1103  0.2920 -0.4338
 8693TIP3    H126036   8.299   3.602   1.608  0.1818 -0.8086 -0.0869
 8693TIP3    H226037   8.185   3.602   1.707  0.3859 -1.5334  0.1511
 8694TIP3   OH226038   8.100   7.716   1.678  0.4608  0.6062 -0.1753
 8694TIP3    H126039   8.121   7.772   1.753 -1.0842  1.9190 -0.6634
 8694TIP3    H226040   8.007   7.733   1.660  0.7493  0.2679 -2.3172
 8695TIP3   OH226041   5.229   4.783   0.426 -0.3873 -0.5871  0.4087
 8695TIP3    H126042   5.200   4.698   0.393  2.4345 -1.5880  0.2196
 8695TIP3    H226043   5.217   4.843   0.351 -1.0896 -1.1145  0.0868
 8696TIP3   OH226044   4.598   2.626   5.997  0.3365  0.7509 -0.5773
 8696TIP3    H126045   4.684   2.620   5.956  0.8067  1.9578  0.1950
 8696TIP3    H226046   4.563   2.537   5.992  1.5743  0.2749 -1.0107
 8697TIP3   OH226047   0.891   6.523   6.437  0.5129 -0.2748  0.0955
 8697TIP3    H126048   0.909   6.544   6.529 -2.6529  1.3457  0.4821
 8697TIP3    H226049   0.895   6.608   6.393 -1.1836 -0.5299 -0.6036
 8698TIP3   OH226050   0.405   0.946   3.772  0.3951 -0.0954 -0.1084
 8698TIP3    H126051   0.430   0.874   3.714 -0.2682 -1.0091  0.6940
 8698TIP3    H226052   0.473   0.945   3.840 -1.7098 -2.7686  2.2368
 8699TIP3   OH226053   2.291   2.720   1.818 -0.0633 -0.0510  0.5384
 8699TIP3    H126054   2.285   2.648   1.881 -0.3559  0.8838  1.5987
 8699TIP3    H226055   2.385   2.740   1.814  0.3035 -1.7750 -1.2910
 8700TIP3   OH226056   7.884   5.731   2.200  0.4844 -0.1232 -0.4411
 8700TIP3    H126057   7.801   5.709   2.157 -0.2613  2.7680 -0.6687
 8700TIP3    H226058   7.950   5.720   2.132 -0.0455 -0.1616 -0.9552
 8701TIP3   OH226059   5.113   0.312   4.406 -0.4349 -0.6130  0.3990
 8701TIP3    H126060   5.130   0.352   4.492 -1.3094  1.8315 -0.4849
 8701TIP3    H226061   5.139   0.378   4.343 -0.2179 -2.1981 -1.2660
 8702TIP3   OH226062   3.705   0.072   6.388  0.0460 -0.1212  0.2110
 8702TIP3    H126063   3.780   0.099   6.334 -0.0214 -0.1035  0.1256
 8702TIP3    H226064   3.632   0.069   6.327 -0.6413  2.5746  0.7850
 8703TIP3   OH226065   3.471   2.888   4.501 -0.4358 -0.5526 -0.6338
 8703TIP3    H126066   3.400   2.935   4.545  1.1527 -0.3724  1.9646
 8703TIP3    H226067   3.461   2.911   4.409 -2.0070  1.8006  0.0120
 8704TIP3   OH226068   2.154   5.096   4.098  0.0512  0.3441 -0.5361
 8704TIP3    H126069   2.223   5.058   4.152 -0.7055 -0.0354  0.1913
 8704TIP3    H226070   2.193   5.175   4.061  0.2215  1.3546  1.6070
 8705TIP3   OH226071   2.627   2.271   3.403  0.2895  0.0550  0.1886
 8705TIP3    H126072   2.545   2.226   3.424  1.5842 -1.7887  1.5627
 8705TIP3    H226073   2.649   2.319   3.483  1.6928 -1.3378  0.6777
 8706TIP3   OH226074   5.545   6.958   5.954  0.6172  0.1032  0.5417
 8706TIP3    H126075   5.597   6.978   5.876 -0.0309  0.9836  0.3156
 8706TIP3    H226076   5.459   6.997   5.937 -0.3050 -1.7244  0.6960
 8707TIP3   OH226077   6.858   6.125   4.709  0.0654 -1.2080  0.5796
 8707TIP3    H126078   6.902   6.207   4.685  1.4655 -2.0347  0.2336
 8707TIP3    H226079   6.790   6.114   4.642  1.3112 -1.4295 -0.6993
 8708TIP3   OH226080   0.201   7.462   1.949 -0.1629 -0.3208  0.1072
 8708TIP3    H126081   0.113   7.436   1.922 -0.2032 -1.3834  1.1521
 8708TIP3    H226082   0.216   7.412   2.030  0.1949  2.1899  1.6926
 8709TIP3   OH226083   3.028   4.006   4.145 -0.0248 -0.0430  0.1801
 8709TIP3    H126084   2.984   4.086   4.175  0.5685  1.0461 -1.6610
 8709TIP3    H226085   2.988   3.988   4.060 -0.1516 -1.7500  0.5590
 8710TIP3   OH226086   6.468   7.243   6.689  0.1256 -0.5364 -0.0278
 8710TIP3    H126087   6.542   7.293   6.724  0.4563 -0.2300 -1.1232
 8710TIP3    H226088   6.483   7.242   6.594 -0.7688 -1.2924 -0.1698
 8711TIP3   OH226089   5.008   3.819   6.342  0.4932 -0.2692  0.6141
 8711TIP3    H126090   5.057   3.779   6.270  1.7211  1.3933  0.4720
 8711TIP3    H226091   4.916   3.810   6.316  0.9171  2.2552 -2.3353
 8712TIP3   OH226092   6.872   6.546   3.617  0.0695  0.5022 -0.0043
 8712TIP3    H126093   6.877   6.465   3.566  0.1738  0.6377 -0.2135
 8712TIP3    H226094   6.964   6.569   3.635  0.0152  0.1295  0.7690
 8713TIP3   OH226095   5.124   4.137  -0.029 -0.7623 -0.2612 -0.7186
 8713TIP3    H126096   5.129   4.216   0.025 -0.5677 -0.5497 -0.3061
 8713TIP3    H226097   5.084   4.071   0.029 -0.1675 -0.6888 -0.7835
 8714TIP3   OH226098   0.105   1.652   2.569  0.2937  0.8369 -0.1656
 8714TIP3    H126099   0.137   1.732   2.528 -0.6801  0.6577 -1.3210
 8714TIP3    H226100   0.177   1.589   2.559  0.7458  1.3245  0.0166
 8715TIP3   OH226101   6.152   5.747   2.008  0.1500 -0.6351  0.1038
 8715TIP3    H126102   6.156   5.707   1.921  0.1280 -0.1847 -0.1073
 8715TIP3    H226103   6.062   5.731   2.038  0.4864 -1.8100  0.5427
 8716TIP3   OH226104   8.072   6.484   5.350 -0.2634 -0.1687  0.0374
 8716TIP3    H126105   7.983   6.450   5.363 -1.3212  2.6686  1.2716
 8716TIP3    H226106   8.063   6.544   5.275  1.0559 -1.1010 -0.9053
 8717TIP3   OH226107   4.995   7.780   2.469 -0.8020 -0.2510  0.2709
 8717TIP3    H126108   4.926   7.769   2.534 -1.1378  0.7632  0.1080
 8717TIP3    H226109   5.028   7.869   2.483  0.0701 -0.5113 -0.0448
 8718TIP3   OH226110   4.930   3.601   0.611 -0.3407  0.4818  0.3701
 8718TIP3    H126111   4.890   3.602   0.525 -4.3640 -0.5685  2.0109
 8718TIP3    H226112   4.964   3.513   0.622 -2.1175 -0.2038  0.6955
 8719TIP3   OH226113   0.268   7.641   4.279  0.3206  0.3780 -0.3837
 8719TIP3    H126114   0.222   7.664   4.199 -0.7302 -0.1724  0.0373
 8719TIP3    H226115   0.205   7.588   4.328  1.1862  0.1398  0.5003
 8720TIP3   OH226116   3.835   0.635   0.317  0.3463  0.2065 -0.2001
 8720TIP3    H126117   3.879   0.550   0.319 -0.6717 -0.3241  0.2289
 8720TIP3    H226118   3.815   0.654   0.408  1.2663  1.3015 -0.2023
 8721TIP3   OH226119   6.301   4.182   6.699  0.4602 -0.3889  0.9085
 8721TIP3    H126120   6.338   4.220   6.620  0.1804  1.1382  1.4804
 8721TIP3    H226121   6.328   4.242   6.769 -1.4754 -0.2731  1.6093
 8722TIP3   OH226122   2.524   5.469   6.390  0.4144  0.0937 -0.0178
 8722TIP3    H126123   2.522   5.509   6.477 -0.9224 -1.0728  0.5291
 8722TIP3    H226124   2.601   5.413   6.391  1.1842  1.1111 -0.1029
 8723TIP3   OH226125   4.331   7.034   0.483  0.1603 -0.8273  0.1178
 8723TIP3    H126126   4.383   6.969   0.436  1.0444  0.8812 -1.3805
 8723TIP3    H226127   4.316   7.104   0.419  0.2735  1.0165  2.0045
 8724TIP3   OH226128   0.442   5.968   1.739 -0.2007  0.2663  0.6091
 8724TIP3    H126129   0.527   5.946   1.700 -1.0513 -1.8997 -0.1187
 8724TIP3    H226130   0.465   6.020   1.816  1.8097 -0.3568  0.4948
 8725TIP3   OH226131   7.001   5.448   3.252  0.3365 -0.4567  0.1161
 8725TIP3    H126132   6.997   5.505   3.329 -0.3353  0.3702 -0.5204
 8725TIP3    H226133   6.938   5.485   3.191  0.1162 -1.7046 -0.4462
 8726TIP3   OH226134   5.147   6.078   1.434  0.8310  0.8818 -0.0539
 8726TIP3    H126135   5.182   6.066   1.346  2.4187  0.6960  0.5616
 8726TIP3    H226136   5.214   6.128   1.480 -0.2959  1.6154  0.8565
 8727TIP3   OH226137   0.361   5.473   0.830 -0.4106  0.3833 -0.2360
 8727TIP3    H126138   0.416   5.549   0.846  0.0895 -0.3025  1.4548
 8727TIP3    H226139   0.422   5.400   0.819 -0.9218 -0.0546 -0.2623
 8728TIP3   OH226140   5.089   3.455   4.131  0.2898  0.4338 -0.6572
 8728TIP3    H126141   5.059   3.430   4.219  0.7725 -1.6689 -1.0435
 8728TIP3    H226142   5.127   3.542   4.142 -1.2630  0.9848  0.8465
 8729TIP3   OH226143   5.350   1.123   3.224 -0.3755 -0.3484 -0.0056
 8729TIP3    H126144   5.383   1.176   3.152 -0.9352 -0.6022 -0.4548
 8729TIP3    H226145   5.422   1.064   3.245 -0.3122 -0.4761 -0.5625
 8730TIP3   OH226146   2.361   4.582   5.973  0.0702 -0.0937  0.0707
 8730TIP3    H126147   2.350   4.629   6.056  2.0879  1.8295 -0.6636
 8730TIP3    H226148   2.280   4.530   5.964 -1.6788  2.1670  1.6150
 8731TIP3   OH226149   7.605   3.684   2.589 -0.0207  0.6044 -0.2557
 8731TIP3    H126150   7.520   3.691   2.546  0.2122  0.2760 -0.7808
 8731TIP3    H226151   7.661   3.745   2.542  0.5354 -0.5753 -1.1863
 8732TIP3   OH226152   2.036   0.480   3.360  0.2506  0.7010 -0.4884
 8732TIP3    H126153   1.979   0.536   3.413  0.4986 -0.4300  1.0281
 8732TIP3    H226154   1.991   0.396   3.358  1.5442 -0.0293  0.2138
 8733TIP3   OH226155   0.872   6.202   2.633  0.2014  1.0360 -0.6485
 8733TIP3    H126156   0.881   6.288   2.674 -0.6256  0.6797  0.3291
 8733TIP3    H226157   0.925   6.144   2.689 -3.9803 -0.2410  2.5422
 8734TIP3   OH226158   7.651   0.025   4.724  0.0493  0.1175 -0.1215
 8734TIP3    H126159   7.734   0.070   4.739 -0.3531  0.2906  1.8004
 8734TIP3    H226160   7.607   0.025   4.809 -1.8289 -0.1883 -1.0265
 8735TIP3   OH226161   4.668   3.503   6.235  0.3391 -0.0564 -0.0994
 8735TIP3    H126162   4.723   3.474   6.308 -1.6530 -0.7807  1.1825
 8735TIP3    H226163   4.683   3.438   6.167  0.8956 -0.3812  0.3235
 8736TIP3   OH226164   2.181   1.977   0.497 -0.1328 -0.1560  0.2211
 8736TIP3    H126165   2.180   2.070   0.473 -1.0131  0.0010  0.8277
 8736TIP3    H226166   2.252   1.970   0.560 -0.9249  0.3938  1.2100
 8737TIP3   OH226167   1.030   3.194   5.803  0.3713 -0.0536  0.1582
 8737TIP3    H126168   0.998   3.105   5.817 -0.7103 -0.0245 -1.8223
 8737TIP3    H226169   1.116   3.196   5.844 -0.1792 -1.5745  1.4603
 8738TIP3   OH226170   0.770   3.177   6.311  0.3199  0.2629 -0.2278
 8738TIP3    H126171   0.675   3.163   6.304  0.2253 -0.2424  1.5550
 8738TIP3    H226172   0.798   3.196   6.222 -1.2267 -1.0928 -1.0536
 8739TIP3   OH226173   7.986   1.089   2.935  0.4997 -0.1681 -0.5223
 8739TIP3    H126174   8.039   1.169   2.932 -0.3113  0.3576 -1.4598
 8739TIP3    H226175   8.050   1.018   2.930  1.1574  0.4364 -1.0112
 8740TIP3   OH226176   2.948   7.589   4.761  0.1323  0.2327  0.7925
 8740TIP3    H126177   2.894   7.519   4.724  1.1843 -1.1229  1.7118
 8740TIP3    H226178   2.998   7.623   4.687  1.2812 -1.5794  0.6712
 8741TIP3   OH226179   7.436   3.191   3.531 -0.1383 -0.1661  0.1762
 8741TIP3    H126180   7.460   3.155   3.617  0.3715  0.3743  0.2685
 8741TIP3    H226181   7.407   3.115   3.481  0.8280 -0.6976  0.3957
 8742TIP3   OH226182   8.024   1.573   1.838 -0.6630 -0.0758 -0.1665
 8742TIP3    H126183   8.027   1.641   1.906 -0.8985  2.6385 -2.6919
 8742TIP3    H226184   7.931   1.564   1.818 -0.4761  0.5178 -1.3643
 8743TIP3   OH226185   5.169   1.090   2.224  0.2229  0.5148 -0.1509
 8743TIP3    H126186   5.257   1.125   2.235  1.0657 -0.8909 -1.9074
 8743TIP3    H226187   5.182   0.996   2.211 -1.3927  0.4677 -1.8526
 8744TIP3   OH226188   7.060   4.604   4.868  0.2722  0.1449  0.2454
 8744TIP3    H126189   7.145   4.569   4.842  1.0516  1.4308  0.9214
 8744TIP3    H226190   6.998   4.534   4.848  1.3197 -0.4014 -1.3373
 8745TIP3   OH226191   1.235   6.627   6.009 -0.5045 -0.1612 -0.2254
 8745TIP3    H126192   1.174   6.592   6.074 -1.5973  1.0433 -0.5650
 8745TIP3    H226193   1.228   6.722   6.018  0.5161  0.0105 -1.0286
 8746TIP3   OH226194   1.256   7.456   3.541 -0.3249 -0.5672 -0.0588
 8746TIP3    H126195   1.196   7.525   3.570 -0.7611 -1.7225  2.0158
 8746TIP3    H226196   1.321   7.501   3.487 -1.7074  1.1149 -0.3822
 8747TIP3   OH226197   4.861   2.201   1.565 -0.5560 -0.0096 -0.2345
 8747TIP3    H126198   4.875   2.107   1.578 -3.0616 -0.6344 -1.5776
 8747TIP3    H226199   4.806   2.228   1.639 -1.4031 -0.0375 -0.8431
 8748TIP3   OH226200   0.192   3.762   5.791  0.4302  0.3810 -0.3520
 8748TIP3    H126201   0.226   3.696   5.730 -1.5794 -1.0432 -0.0103
 8748TIP3    H226202   0.099   3.769   5.770  0.4822  2.7972 -0.0379
 8749TIP3   OH226203   2.712   7.106   5.756 -0.1815 -0.3204 -0.3129
 8749TIP3    H126204   2.702   7.046   5.830  0.5957  0.2047  0.2305
 8749TIP3    H226205   2.636   7.164   5.763 -1.9542 -2.2752 -1.8920
 8750TIP3   OH226206   6.450   7.308   0.270 -0.5075  0.4615 -0.0525
 8750TIP3    H126207   6.493   7.390   0.243 -1.6390  0.6536 -1.4085
 8750TIP3    H226208   6.356   7.328   0.265 -0.8568  0.1833  3.1910
 8751TIP3   OH226209   5.146   5.528   1.784  0.3798 -0.3604 -0.4035
 8751TIP3    H126210   5.237   5.503   1.768  0.3065 -0.4650 -0.6483
 8751TIP3    H226211   5.121   5.580   1.707  0.9276  1.5580  0.6307
 8752TIP3   OH226212   3.980   6.717   0.627  0.3530  0.5103 -0.3239
 8752TIP3    H126213   4.009   6.799   0.666  0.0769 -0.3289  1.7804
 8752TIP3    H226214   4.062   6.668   0.612  0.4080  0.4123  0.2613
 8753TIP3   OH226215   5.740   4.693   3.961  0.0039 -0.3302 -0.1835
 8753TIP3    H126216   5.660   4.692   4.014  0.4024  1.2449  0.5044
 8753TIP3    H226217   5.753   4.602   3.936 -1.8974 -0.6586 -0.1630
 8754TIP3   OH226218   6.756   7.021   0.480 -0.3107  0.1563  0.0949
 8754TIP3    H126219   6.733   6.946   0.425  0.1689  1.5872 -2.1797
 8754TIP3    H226220   6.852   7.021   0.481 -0.2892  1.2371 -0.6860
 8755TIP3   OH226221   2.327   4.923   2.436 -0.0686 -0.0744  0.4819
 8755TIP3    H126222   2.307   4.830   2.427 -0.5052  0.1597 -1.3112
 8755TIP3    H226223   2.407   4.936   2.386 -1.1857  0.8665 -1.1696
 8756TIP3   OH226224   0.550   4.932   5.598  0.1596  0.0661  0.2126
 8756TIP3    H126225   0.518   4.923   5.687  1.4974  1.8346  0.9276
 8756TIP3    H226226   0.573   4.843   5.571 -0.4951 -0.5189  1.5288
 8757TIP3   OH226227   1.399   2.933   2.852  0.3219  0.2057  0.2623
 8757TIP3    H126228   1.414   2.992   2.926  1.7706 -1.0228  0.9865
 8757TIP3    H226229   1.346   2.985   2.791  3.2864  3.0682 -0.1364
 8758TIP3   OH226230   1.597   3.120   1.198 -0.0156 -0.1021 -0.2701
 8758TIP3    H126231   1.613   3.208   1.165 -1.2953 -0.0031 -0.6974
 8758TIP3    H226232   1.630   3.121   1.288 -0.2100  0.8761 -0.2029
 8759TIP3   OH226233   5.480   5.706   6.167 -0.0751 -0.2399  0.1641
 8759TIP3    H126234   5.500   5.788   6.212  0.0445  0.3022 -0.8493
 8759TIP3    H226235   5.519   5.638   6.223 -1.5103  0.2414  1.8190
 8760TIP3   OH226236   6.083   6.351   0.115 -0.1636  0.2138 -0.4180
 8760TIP3    H126237   6.052   6.424   0.169 -1.7094 -2.1407  2.1074
 8760TIP3    H226238   6.005   6.320   0.069 -0.0651 -1.3163  0.4169
 8761TIP3   OH226239   1.480   4.285   5.698  0.0121 -0.5249  0.1324
 8761TIP3    H126240   1.439   4.270   5.612 -0.4047 -0.6274  0.3439
 8761TIP3    H226241   1.458   4.376   5.718  1.2303 -0.0853 -0.4584
 8762TIP3   OH226242   2.901   1.865   4.058 -0.0343 -0.2859 -0.1239
 8762TIP3    H126243   2.951   1.784   4.051  0.0739 -0.2273 -0.0134
 8762TIP3    H226244   2.830   1.844   4.120 -2.1963 -1.4390 -2.7501
 8763TIP3   OH226245   6.708   5.667   0.751  0.2402 -0.3522  0.2214
 8763TIP3    H126246   6.631   5.712   0.785  0.4379  0.9876 -1.0316
 8763TIP3    H226247   6.728   5.601   0.817 -0.7576  0.6206  1.5346
 8764TIP3   OH226248   6.350   2.170   4.940  0.0356 -0.3197 -0.0868
 8764TIP3    H126249   6.430   2.223   4.946  0.5111 -1.0806  0.3947
 8764TIP3    H226250   6.330   2.145   5.030  0.2924 -1.6306 -0.3664
 8765TIP3   OH226251   6.995   1.145   1.190 -0.3348  0.2539  0.3709
 8765TIP3    H126252   6.922   1.084   1.194  0.1497 -0.3368  0.4514
 8765TIP3    H226253   7.070   1.091   1.163  0.0287  0.8818  0.0953
 8766TIP3   OH226254   5.650   3.703   1.624  0.2223 -0.3256 -0.0813
 8766TIP3    H126255   5.683   3.618   1.655  1.0689  0.6063  1.7030
 8766TIP3    H226256   5.625   3.749   1.704 -0.0325  1.1879 -1.0063
 8767TIP3   OH226257   7.538   5.188   2.462 -0.6895  0.2096 -0.0227
 8767TIP3    H126258   7.572   5.275   2.440  0.8127 -0.2109  0.4790
 8767TIP3    H226259   7.559   5.177   2.554 -1.3851 -0.4656  0.0636
 8768TIP3   OH226260   6.944   6.442   2.010 -0.6907  0.3432  0.4999
 8768TIP3    H126261   7.038   6.459   2.016 -0.7693  1.5040 -0.9305
 8768TIP3    H226262   6.904   6.513   2.060 -0.8218 -0.6101  1.8080
 8769TIP3   OH226263   6.626   1.984   4.166  0.0959  0.3389 -0.0176
 8769TIP3    H126264   6.667   2.013   4.247 -0.0820 -0.1487  0.2488
 8769TIP3    H226265   6.572   2.058   4.139 -0.4735  0.2083  0.7349
 8770TIP3   OH226266   1.320   0.537   4.462 -0.3286 -0.6774 -0.1062
 8770TIP3    H126267   1.258   0.578   4.401  0.4469 -0.7271 -0.9529
 8770TIP3    H226268   1.342   0.606   4.524  0.6194  0.0996 -1.2495
 8771TIP3   OH226269   1.665   2.682   0.276  0.1056  0.8230  0.3642
 8771TIP3    H126270   1.685   2.588   0.278 -1.1220  0.5464  0.7629
 8771TIP3    H226271   1.725   2.721   0.339 -0.4747  0.0579  1.4291
 8772TIP3   OH226272   7.345   5.648   0.879  0.5178 -0.3605 -0.4134
 8772TIP3    H126273   7.363   5.645   0.785  1.0398  0.3402 -0.3455
 8772TIP3    H226274   7.273   5.710   0.888  1.1755  0.3945 -0.2611
 8773TIP3   OH226275   5.177   5.554   0.430 -0.2384  0.0614  0.5144
 8773TIP3    H126276   5.129   5.636   0.444  2.5061  1.9329 -0.2181
 8773TIP3    H226277   5.195   5.553   0.336  0.2639 -1.1015  0.6102
 8774TIP3   OH226278   3.757   6.174   5.238 -0.4508  0.0238  0.5778
 8774TIP3    H126279   3.829   6.182   5.301  1.1258 -1.8734 -0.8247
 8774TIP3    H226280   3.800   6.145   5.157 -2.8102 -1.2619 -0.3141
 8775TIP3   OH226281   6.665   7.795   2.148  0.3151  0.3401  0.4794
 8775TIP3    H126282   6.702   7.750   2.073  0.1275  0.6561  0.1948
 8775TIP3    H226283   6.570   7.794   2.133  0.3429  1.4514  0.0981
 8776TIP3   OH226284   2.185   6.705   2.868  0.1336 -0.1719 -0.2498
 8776TIP3    H126285   2.235   6.638   2.914 -0.1227 -0.5260 -0.4858
 8776TIP3    H226286   2.103   6.712   2.917  0.6378  0.8498  0.5121
 8777TIP3   OH226287   7.537   3.768   3.902 -0.2261  0.0439  0.2036
 8777TIP3    H126288   7.542   3.716   3.982  0.0830  0.6509  0.5880
 8777TIP3    H226289   7.443   3.771   3.882 -0.5370  1.5468  1.6814
 8778TIP3   OH226290   5.796   1.771   1.629  0.0968 -0.8764  0.5982
 8778TIP3    H126291   5.829   1.860   1.645 -0.8195 -0.5859  0.9670
 8778TIP3    H226292   5.872   1.722   1.598  0.3777  0.3157 -0.6998
 8779TIP3   OH226293   5.384   7.246   4.842 -0.2279  0.1433 -0.0684
 8779TIP3    H126294   5.294   7.213   4.840 -0.6130  1.1603 -0.1185
 8779TIP3    H226295   5.415   7.226   4.930 -0.4299 -0.3969 -0.1174
 8780TIP3   OH226296   7.972   4.177   3.733  0.3307 -0.3283  0.2969
 8780TIP3    H126297   8.028   4.235   3.681  0.7799 -1.3115 -0.3495
 8780TIP3    H226298   7.980   4.092   3.691  0.7609 -1.1830  2.0265
 8781TIP3   OH226299   5.833   3.977   1.023  0.1730 -0.0765 -0.0660
 8781TIP3    H126300   5.809   4.030   1.099  0.2945 -0.4034  0.2046
 8781TIP3    H226301   5.823   3.886   1.053 -0.9379 -0.2187 -0.8006
 8782TIP3   OH226302   5.892   6.293   3.737 -0.5888 -0.1081  0.2956
 8782TIP3    H126303   5.908   6.323   3.827 -1.4758 -0.1825  0.4909
 8782TIP3    H226304   5.823   6.227   3.746 -2.3306  1.5028 -0.6611
 8783TIP3   OH226305   1.002   3.816   5.367 -0.0469 -0.0748  0.3449
 8783TIP3    H126306   1.094   3.800   5.386 -0.2808 -0.7073  0.9891
 8783TIP3    H226307   0.995   3.911   5.361  0.7233 -0.0383 -0.1460
 8784TIP3   OH226308   4.969   1.425   3.888  0.3715  0.4184 -0.1434
 8784TIP3    H126309   4.961   1.351   3.949 -1.1282  0.0669 -0.7162
 8784TIP3    H226310   4.891   1.478   3.904 -0.0412  0.3302 -1.7137
 8785TIP3   OH226311   1.944   7.150   4.031 -0.4456 -0.1479 -0.6092
 8785TIP3    H126312   1.856   7.119   4.012  0.4483 -2.1379 -1.8778
 8785TIP3    H226313   1.961   7.217   3.965 -0.8449 -0.0944 -0.6558
 8786TIP3   OH226314   0.238   0.286   5.131  0.5103 -0.4106  0.0885
 8786TIP3    H126315   0.170   0.220   5.124  0.4133 -0.2553 -0.5904
 8786TIP3    H226316   0.273   0.277   5.220  1.5327 -2.3734 -0.4476
 8787TIP3   OH226317   3.219   6.267   5.573  0.0314  0.3675  0.1637
 8787TIP3    H126318   3.168   6.336   5.615 -0.6143 -0.4295  0.7315
 8787TIP3    H226319   3.288   6.247   5.636 -1.4707 -1.4608  1.3489
 8788TIP3   OH226320   1.395   0.146   4.354 -0.0192 -0.8527  0.0647
 8788TIP3    H126321   1.451   0.222   4.371 -0.5931  0.1039 -2.0586
 8788TIP3    H226322   1.347   0.168   4.275 -2.3155 -2.2757  0.9494
 8789TIP3   OH226323   7.567   6.238   3.533 -0.1541 -0.7993  0.6145
 8789TIP3    H126324   7.596   6.300   3.467 -0.2381  0.2780  1.5514
 8789TIP3    H226325   7.475   6.259   3.548  0.2292 -0.0070  2.1059
 8790TIP3   OH226326   5.071   4.812   4.957 -0.4303 -0.4820  0.6653
 8790TIP3    H126327   5.091   4.750   5.027 -1.5542 -0.1062  1.3404
 8790TIP3    H226328   4.979   4.835   4.971  0.5155  3.2650  1.9905
 8791TIP3   OH226329   4.541   3.322   3.521  0.3747 -0.1994  0.7490
 8791TIP3    H126330   4.450   3.291   3.525  0.3350  0.0099  1.5901
 8791TIP3    H226331   4.593   3.242   3.522  0.1985 -0.3440 -0.2529
 8792TIP3   OH226332   6.147   0.405   2.220  0.2290  0.6117  0.1664
 8792TIP3    H126333   6.132   0.331   2.162  0.1931  0.9854 -0.3045
 8792TIP3    H226334   6.132   0.482   2.166  3.4236  1.0695 -0.3013
 8793TIP3   OH226335   2.331   4.482   5.517  0.1475 -0.0673 -0.7737
 8793TIP3    H126336   2.250   4.438   5.494 -0.3225  0.2305  0.2706
 8793TIP3    H226337   2.335   4.558   5.459 -0.7942  0.4334 -0.1898
 8794TIP3   OH226338   2.746   7.020   3.723  0.8174 -0.1410 -0.5092
 8794TIP3    H126339   2.816   7.027   3.658 -0.6216  1.4133 -1.9540
 8794TIP3    H226340   2.761   7.094   3.782  0.1555  0.4654 -1.0877
 8795TIP3   OH226341   8.133   2.291   3.131 -0.1524 -0.5686 -0.1061
 8795TIP3    H126342   8.103   2.276   3.220  1.2707  0.6209  0.5967
 8795TIP3    H226343   8.207   2.231   3.120 -0.1680 -0.5364 -0.4029
 8796TIP3   OH226344   7.752   7.335   0.408 -0.0328 -0.1136  0.2983
 8796TIP3    H126345   7.822   7.270   0.417  1.4523  0.9646 -2.3014
 8796TIP3    H226346   7.696   7.300   0.339  1.2170  1.5751 -1.7013
 8797TIP3   OH226347   4.872   6.724   3.839  0.0559  1.0370 -0.1029
 8797TIP3    H126348   4.870   6.782   3.763 -1.7319  0.7437 -0.3309
 8797TIP3    H226349   4.923   6.772   3.905 -0.4435  2.3924 -0.6617
 8798TIP3   OH226350   8.306   6.511   1.582 -0.3572 -0.1444 -0.1347
 8798TIP3    H126351   8.265   6.458   1.514  1.3528 -0.3634 -1.0609
 8798TIP3    H226352   8.233   6.557   1.624 -1.5866 -1.0300 -1.2166
 8799TIP3   OH226353   6.185   3.723   3.645 -0.6154 -0.0551 -0.1152
 8799TIP3    H126354   6.191   3.628   3.657 -1.0141 -0.1133 -0.3703
 8799TIP3    H226355   6.091   3.741   3.636 -0.7497  0.6347  2.0996
 8800TIP3   OH226356   6.048   1.717   6.173 -0.1212 -0.0826 -0.4019
 8800TIP3    H126357   5.982   1.756   6.116 -0.2306  0.1495 -0.1190
 8800TIP3    H226358   6.004   1.643   6.215 -0.8000  1.1500  1.1888
 8801TIP3   OH226359   6.863   4.448   4.856 -0.1592 -0.6164 -0.7473
 8801TIP3    H126360   6.875   4.443   4.761  0.1404 -1.0983 -0.6889
 8801TIP3    H226361   6.854   4.357   4.884  1.6484 -0.6202 -0.0813
 8802TIP3   OH226362   4.921   4.051   2.679  0.0064  0.0523 -0.5696
 8802TIP3    H126363   5.006   4.059   2.723 -1.2046 -0.9954  2.1563
 8802TIP3    H226364   4.877   4.134   2.698  0.3936  0.6430 -2.0831
 8803TIP3   OH226365   6.855   0.671   5.174 -0.4028  0.0318  0.4054
 8803TIP3    H126366   6.876   0.764   5.180  1.7218 -0.3599 -0.2586
 8803TIP3    H226367   6.798   0.665   5.096  0.9616  0.5621 -0.6723
 8804TIP3   OH226368   5.869   7.366   1.619  0.3697 -0.7205 -0.0488
 8804TIP3    H126369   5.929   7.402   1.683 -0.5651  0.0446  0.4236
 8804TIP3    H226370   5.793   7.425   1.621 -0.0036 -1.1240 -1.2941
 8805TIP3   OH226371   1.681   5.649   1.185  0.2320  0.4134  0.0544
 8805TIP3    H126372   1.652   5.733   1.221 -2.1223  0.9989 -2.8454
 8805TIP3    H226373   1.731   5.609   1.257 -0.9739  2.9916  2.5599
 8806TIP3   OH226374   7.775   1.704   3.787 -0.2581 -0.8982 -0.0059
 8806TIP3    H126375   7.829   1.627   3.768  2.8295  1.4553 -1.7979
 8806TIP3    H226376   7.721   1.715   3.708 -0.9885 -1.3962  0.4132
 8807TIP3   OH226377   1.892   0.470   3.928 -0.5701  0.1772  0.3658
 8807TIP3    H126378   1.964   0.451   3.988  0.2681  0.7083 -0.4301
 8807TIP3    H226379   1.840   0.537   3.973 -0.7518 -0.4298  1.0766
 8808TIP3   OH226380   3.180   6.102   0.293  0.3623 -0.3243 -0.7281
 8808TIP3    H126381   3.185   6.014   0.331  1.2281  0.1509  0.3196
 8808TIP3    H226382   3.270   6.133   0.294  0.3572 -0.1066 -2.8259
 8809TIP3   OH226383   0.669   5.809   2.250 -0.5662  0.1749  0.2209
 8809TIP3    H126384   0.674   5.806   2.155 -0.0404  2.6582  0.0995
 8809TIP3    H226385   0.688   5.720   2.278  0.7375 -0.2989 -1.9570
 8810TIP3   OH226386   5.712   0.052   6.314 -0.0292  0.6088 -0.0432
 8810TIP3    H126387   5.637   0.110   6.299 -0.1593  0.2701 -0.7624
 8810TIP3    H226388   5.761   0.094   6.384  0.7126  2.4531 -1.5718
 8811TIP3   OH226389   5.842   2.040   1.694  0.1360 -0.0648 -0.0992
 8811TIP3    H126390   5.892   2.078   1.622  1.7186  0.5021  1.2232
 8811TIP3    H226391   5.770   2.101   1.708 -0.3650 -0.3337 -1.3457
 8812TIP3   OH226392   5.052   4.032   6.160  0.4126 -0.4347 -0.3531
 8812TIP3    H126393   5.069   3.971   6.233  1.4093 -0.4448 -0.5799
 8812TIP3    H226394   5.046   4.118   6.202 -0.4494 -0.6098 -0.0971
 8813TIP3   OH226395   5.393   5.317   6.434  0.2901 -0.1568 -0.3249
 8813TIP3    H126396   5.322   5.335   6.372 -1.5907 -0.1203  1.6842
 8813TIP3    H226397   5.406   5.400   6.480 -0.1540 -0.8044  1.0206
 8814TIP3   OH226398   1.753   0.013   3.745  0.1841 -0.5346  0.2898
 8814TIP3    H126399   1.798  -0.046   3.684  2.2670 -0.6398  1.7877
 8814TIP3    H226400   1.802   0.095   3.739 -0.5892 -0.0334  0.6617
 8815TIP3   OH226401   4.332   5.615   2.909  0.3054  0.2604  0.6825
 8815TIP3    H126402   4.347   5.615   2.815  0.6227  3.7564  0.5866
 8815TIP3    H226403   4.237   5.617   2.919  0.2287 -1.3640  0.5442
 8816TIP3   OH226404   6.726   3.138   4.226 -0.2802 -0.4518 -0.6598
 8816TIP3    H126405   6.671   3.106   4.154 -1.0511  1.0689 -0.7792
 8816TIP3    H226406   6.671   3.129   4.304 -0.0374 -0.5668 -0.4990
 8817TIP3   OH226407   6.358   0.135   5.332 -0.8892  0.5885 -0.6660
 8817TIP3    H126408   6.407   0.140   5.415 -1.8912 -1.0607  0.0820
 8817TIP3    H226409   6.422   0.160   5.265 -0.2057  2.5189  0.6213
 8818TIP3   OH226410   8.110   1.552   2.718  0.1721 -0.2000  0.4847
 8818TIP3    H126411   8.035   1.574   2.663 -0.8545  0.2044  2.0049
 8818TIP3    H226412   8.160   1.634   2.723 -0.6546  0.2670  1.5246
 8819TIP3   OH226413   2.466   5.077   4.612 -0.0552 -0.3346 -0.2630
 8819TIP3    H126414   2.388   5.108   4.566 -0.7001 -1.2147  0.2208
 8819TIP3    H226415   2.446   4.987   4.635 -0.7539  0.6421  3.7388
 8820TIP3   OH226416   2.815   7.549   2.816 -0.3097  0.6064 -0.0817
 8820TIP3    H126417   2.854   7.635   2.802 -1.2168  0.6618 -2.6440
 8820TIP3    H226418   2.738   7.548   2.759  0.8940 -2.6848 -1.8886
 8821TIP3   OH226419   3.390   0.159   6.328  0.1494  0.3216 -0.2569
 8821TIP3    H126420   3.312   0.114   6.360  1.5346 -0.1072  2.8587
 8821TIP3    H226421   3.373   0.252   6.344  0.1523  0.2582  0.1077
 8822TIP3   OH226422   4.405   2.181   2.284 -0.4632 -0.4021 -0.4902
 8822TIP3    H126423   4.361   2.150   2.204  0.6329 -0.2812 -1.1560
 8822TIP3    H226424   4.481   2.123   2.293 -1.0598 -1.0089  0.9907
 8823TIP3   OH226425   3.419   4.174   2.442  0.1968 -0.0253 -0.0049
 8823TIP3    H126426   3.472   4.117   2.387 -1.5224 -0.5255 -1.2318
 8823TIP3    H226427   3.445   4.263   2.416 -0.7762 -0.2419 -1.9080
 8824TIP3   OH226428   4.844   5.952   4.409 -0.0793 -0.5949 -0.8852
 8824TIP3    H126429   4.790   6.008   4.465  0.2894 -0.8901 -0.2128
 8824TIP3    H226430   4.825   5.863   4.439  0.9393 -0.6905 -0.4652
 8825TIP3   OH226431   4.902   5.089   2.700 -0.3532  0.4700 -0.1754
 8825TIP3    H126432   4.923   5.014   2.643  0.6522 -0.4630  1.3488
 8825TIP3    H226433   4.961   5.158   2.671 -0.3362  0.2412 -0.7071
 8826TIP3   OH226434   6.228   1.984   3.108 -0.6427 -0.0910  0.3207
 8826TIP3    H126435   6.140   1.967   3.142 -0.8765  1.0602  0.3235
 8826TIP3    H226436   6.243   1.914   3.044 -1.3640 -0.5700  0.6622
 8827TIP3   OH226437   1.245   3.485   3.496 -0.2982 -0.1675  0.6274
 8827TIP3    H126438   1.241   3.581   3.501  1.8654  0.2555 -2.6970
 8827TIP3    H226439   1.167   3.461   3.446 -0.7969 -0.1633  1.3876
 8828TIP3   OH226440   0.486   6.890   4.515 -0.1028  0.1957  0.3165
 8828TIP3    H126441   0.470   6.904   4.422 -1.5741  1.1298  0.6786
 8828TIP3    H226442   0.542   6.962   4.541  2.1327 -1.2393 -0.2463
 8829TIP3   OH226443   0.729   6.579   6.687  0.3554 -0.0403  0.2588
 8829TIP3    H126444   0.685   6.506   6.642  0.1662 -0.6176  1.3609
 8829TIP3    H226445   0.659   6.639   6.709 -0.0383 -1.2378  2.5450
 8830TIP3   OH226446   0.501   7.068   3.604 -0.8385  0.3590  0.0525
 8830TIP3    H126447   0.585   7.028   3.581 -0.5376  0.4994  0.8759
 8830TIP3    H226448   0.449   7.064   3.524 -1.0750 -2.3177  0.2530
 8831TIP3   OH226449   3.287   0.649   1.523  0.3479  0.2950 -0.0107
 8831TIP3    H126450   3.377   0.653   1.490  1.0956 -2.4467  1.3540
 8831TIP3    H226451   3.235   0.619   1.449  1.0201 -0.4267 -0.2027
 8832TIP3   OH226452   2.148   7.385   5.328  0.3379 -0.2130 -0.1122
 8832TIP3    H126453   2.079   7.371   5.393 -0.6059 -0.3989 -1.1273
 8832TIP3    H226454   2.165   7.479   5.331 -0.4511 -0.0601 -0.3409
 8833TIP3   OH226455   5.600   3.382   0.020 -0.2775 -0.1703 -0.1687
 8833TIP3    H126456   5.518   3.425   0.045 -0.1657 -0.2173  0.2933
 8833TIP3    H226457   5.667   3.449   0.034 -0.6055  1.3291 -4.4691
 8834TIP3   OH226458   3.681   2.536   1.320 -0.6187  0.0517  0.5883
 8834TIP3    H126459   3.625   2.467   1.284 -0.9211  0.2130  0.7492
 8834TIP3    H226460   3.769   2.499   1.316 -0.4932  0.5008 -1.3593
 8835TIP3   OH226461   6.778   3.878   4.474 -0.4912 -0.1069 -0.5208
 8835TIP3    H126462   6.718   3.880   4.398 -2.2222 -2.6287  0.6444
 8835TIP3    H226463   6.726   3.914   4.546  0.3305  0.0725 -0.0058
 8836TIP3   OH226464   5.318   3.725   0.453 -0.2098  0.4644 -0.6015
 8836TIP3    H126465   5.301   3.693   0.541  0.5140 -0.7140 -0.8558
 8836TIP3    H226466   5.390   3.669   0.421 -0.7281  0.5944 -2.0707
 8837TIP3   OH226467   7.886   3.837   3.351 -0.2171 -0.1359  0.2847
 8837TIP3    H126468   7.935   3.919   3.353 -1.7093  0.8018 -0.0095
 8837TIP3    H226469   7.885   3.807   3.441  1.1349 -0.3432  0.2500
 8838TIP3   OH226470   4.106   6.949   4.052 -0.2820  0.2580 -0.1713
 8838TIP3    H126471   4.053   7.024   4.080 -1.4670 -0.4552 -0.4180
 8838TIP3    H226472   4.179   6.947   4.114 -0.8624  0.9085  0.5644
 8839TIP3   OH226473   7.951   3.180   6.520 -0.2057  0.9342  0.5967
 8839TIP3    H126474   7.891   3.246   6.557 -0.2528 -0.2238  2.7142
 8839TIP3    H226475   8.025   3.178   6.580  0.4263  0.0007 -0.1837
 8840TIP3   OH226476   2.068   7.309   5.066 -0.0326 -0.1019  0.0221
 8840TIP3    H126477   2.060   7.214   5.063 -1.6061  0.0208 -0.1686
 8840TIP3    H226478   2.063   7.331   5.159 -0.2022 -0.1672  0.0281
 8841TIP3   OH226479   2.172   7.293   6.764 -0.1197  0.4199 -0.0203
 8841TIP3    H126480   2.123   7.212   6.781  1.6610 -1.0981 -1.6390
 8841TIP3    H226481   2.118   7.340   6.700 -1.0116  0.3904  0.6833
 8842TIP3   OH226482   6.198   4.745   1.067 -0.4187 -0.0445  0.1495
 8842TIP3    H126483   6.122   4.745   1.010  0.5090 -1.5758 -1.1461
 8842TIP3    H226484   6.162   4.758   1.155 -1.8713  2.4502 -0.7091
 8843TIP3   OH226485   3.174   4.941   3.794  0.0235 -0.2206  0.2333
 8843TIP3    H126486   3.143   4.861   3.837  0.6086  0.2997  1.7014
 8843TIP3    H226487   3.096   4.997   3.788 -0.2258 -0.5959 -0.1194
 8844TIP3   OH226488   5.945   4.027   0.490  0.2293 -0.4767  0.6444
 8844TIP3    H126489   5.931   4.091   0.420 -0.8096 -1.8703 -0.4920
 8844TIP3    H226490   6.012   3.968   0.455  1.9863  0.5756  2.1251
 8845TIP3   OH226491   4.085   2.214   4.818 -0.0532 -0.1667  0.0531
 8845TIP3    H126492   4.061   2.254   4.734 -2.3454  0.3851  0.9144
 8845TIP3    H226493   4.163   2.261   4.846  0.5597 -0.1358 -1.5878
 8846TIP3   OH226494   4.631   7.289   5.935 -0.2957 -0.0388  0.2946
 8846TIP3    H126495   4.639   7.304   6.029  3.1952  1.0624 -0.0478
 8846TIP3    H226496   4.605   7.375   5.899  0.5182  0.1312  0.0904
 8847TIP3   OH226497   6.076   1.276   4.508 -0.1638  1.2283 -0.5313
 8847TIP3    H126498   6.022   1.208   4.548  0.6377 -0.1039 -1.6411
 8847TIP3    H226499   6.016   1.325   4.452 -0.5397  0.7812 -0.5171
 8848TIP3   OH226500   5.578   7.360   4.272  0.4188 -0.1639  0.5817
 8848TIP3    H126501   5.501   7.383   4.322  0.5590 -1.2177  1.3169
 8848TIP3    H226502   5.549   7.361   4.181 -0.2478  0.2258  0.7973
 8849TIP3   OH226503   7.332   2.290   4.986 -0.1240  0.4677  0.0250
 8849TIP3    H126504   7.417   2.291   4.941 -0.3058 -2.0111 -0.4835
 8849TIP3    H226505   7.352   2.254   5.073 -0.5854  0.2625  0.0474
 8850TIP3   OH226506   4.262   2.837   2.033 -0.1996 -0.2444 -0.1348
 8850TIP3    H126507   4.343   2.813   1.989 -0.5442 -1.9993  0.1123
 8850TIP3    H226508   4.249   2.930   2.011  1.7946  0.0495 -0.2566
 8851TIP3   OH226509   2.925   4.646   1.301 -0.2745 -0.6944 -0.2458
 8851TIP3    H126510   2.883   4.575   1.252 -1.4474  0.2534 -0.6827
 8851TIP3    H226511   2.882   4.726   1.268  1.4723  0.2848 -0.2706
 8852TIP3   OH226512   7.464   5.083   1.219  0.1982 -0.1237  0.0288
 8852TIP3    H126513   7.419   5.164   1.242  1.7471  0.8629 -0.3209
 8852TIP3    H226514   7.520   5.063   1.293  1.3705  0.2799 -0.7197
 8853TIP3   OH226515   6.869   4.981   2.723 -0.1631 -0.2365  0.5213
 8853TIP3    H126516   6.774   4.988   2.716 -0.0280  1.7878  0.3323
 8853TIP3    H226517   6.894   5.050   2.785  1.4536  1.4067 -1.7889
 8854TIP3   OH226518   1.234   1.583   3.643  0.8333  0.3356 -0.4469
 8854TIP3    H126519   1.304   1.596   3.579  0.8967 -0.5236 -0.5596
 8854TIP3    H226520   1.222   1.489   3.646 -0.3528  0.4746 -0.4512
 8855TIP3   OH226521   0.783   6.400   4.721 -0.2127  0.4779  0.8697
 8855TIP3    H126522   0.828   6.435   4.644  0.3453  0.9797  1.4144
 8855TIP3    H226523   0.701   6.449   4.725 -0.3215  0.3352  0.5128
 8856TIP3   OH226524   3.959   5.840   3.619 -0.5625 -0.0885  0.3794
 8856TIP3    H126525   3.895   5.908   3.602 -0.1642  0.0702 -0.5621
 8856TIP3    H226526   4.039   5.872   3.578 -0.1517 -0.7432  0.6586
 8857TIP3   OH226527   1.242   7.080   3.114  0.5023  0.5898  0.0328
 8857TIP3    H126528   1.157   7.043   3.089  1.1396 -0.0037 -1.4214
 8857TIP3    H226529   1.268   7.030   3.191 -0.6468  1.0818  0.7680
 8858TIP3   OH226530   6.470   1.342   0.967  0.2521  0.3216  0.9166
 8858TIP3    H126531   6.394   1.398   0.950 -0.7843 -0.6538  2.1216
 8858TIP3    H226532   6.518   1.388   1.036  1.1716  1.2719 -0.3028
 8859TIP3   OH226533   3.427   5.109   2.203 -0.0919 -0.5678 -0.5021
 8859TIP3    H126534   3.473   5.080   2.124 -1.1313 -2.0886 -0.5898
 8859TIP3    H226535   3.430   5.205   2.199  1.9388 -0.6073 -1.1405
 8860TIP3   OH226536   3.895   7.676   4.732 -0.4471  0.3559  0.1903
 8860TIP3    H126537   3.941   7.749   4.691  0.8064 -1.1159 -1.1995
 8860TIP3    H226538   3.803   7.688   4.707 -0.3294  1.6558  0.3381
 8861TIP3   OH226539   3.625   4.409   3.704 -0.3270 -0.3684 -0.3194
 8861TIP3    H126540   3.577   4.492   3.702  0.1973 -0.0424  0.4213
 8861TIP3    H226541   3.679   4.414   3.783  2.1429 -0.0249 -1.9212
 8862TIP3   OH226542   5.410   2.150   4.675 -0.1348  0.0571 -0.5353
 8862TIP3    H126543   5.355   2.134   4.599 -1.3514 -0.2373  0.3843
 8862TIP3    H226544   5.473   2.078   4.674  0.6275  0.7114 -1.9106
 8863TIP3   OH226545   2.313   2.992   4.144  0.0618  0.1450  0.0021
 8863TIP3    H126546   2.394   3.043   4.139  0.0193  0.1446 -1.0681
 8863TIP3    H226547   2.244   3.055   4.120 -0.0768 -0.2148 -0.5766
 8864TIP3   OH226548   6.950   2.923   6.410 -0.3189  0.2901 -0.4049
 8864TIP3    H126549   6.876   2.929   6.470 -0.2935 -2.8653  0.1606
 8864TIP3    H226550   7.010   2.861   6.454  2.0520  1.7112 -1.4497
 8865TIP3   OH226551   6.152   6.604   2.637 -0.1145 -0.0715 -0.2536
 8865TIP3    H126552   6.212   6.566   2.573  0.2212  1.0591 -0.6426
 8865TIP3    H226553   6.089   6.535   2.655  1.2624 -1.2790  0.1257
 8866TIP3   OH226554   2.971   3.962   3.594 -0.5933  0.5724  0.3062
 8866TIP3    H126555   3.059   3.999   3.587 -0.8510  1.0633 -0.5457
 8866TIP3    H226556   2.981   3.886   3.651  0.0845  1.5353  1.5090
 8867TIP3   OH226557   4.938   5.040   6.708  0.3209 -0.4950 -0.3243
 8867TIP3    H126558   5.026   5.072   6.730  0.1309 -1.0105  1.3487
 8867TIP3    H226559   4.896   5.114   6.665  1.9573 -0.6440 -2.3437
 8868TIP3   OH226560   7.473   3.825   3.134  0.1573 -0.4654  0.0839
 8868TIP3    H126561   7.538   3.880   3.090 -1.3465  1.1205 -0.2568
 8868TIP3    H226562   7.453   3.756   3.071 -0.1654  0.3721 -0.7483
 8869TIP3   OH226563   1.562   5.125   5.694 -0.1698 -0.0773  0.2446
 8869TIP3    H126564   1.481   5.169   5.669 -0.0501  0.7472  1.2936
 8869TIP3    H226565   1.588   5.165   5.776  0.7876 -1.0214  0.4285
 8870TIP3   OH226566   5.800   1.426   5.586 -0.0994 -0.6340 -0.2328
 8870TIP3    H126567   5.724   1.468   5.546  0.1561 -1.8090 -2.0956
 8870TIP3    H226568   5.867   1.495   5.590 -0.7556  0.0005 -0.0395
 8871TIP3   OH226569   3.927   2.971   4.151 -0.1469  0.3598  0.3836
 8871TIP3    H126570   3.932   2.943   4.242 -0.6232  0.5549  0.4749
 8871TIP3    H226571   4.000   3.032   4.139  0.6014 -0.5362  0.3186
 8872TIP3   OH226572   1.848   3.395   0.252 -0.1848 -0.0725  0.1542
 8872TIP3    H126573   1.880   3.375   0.164  0.5495  2.5649 -0.2453
 8872TIP3    H226574   1.776   3.333   0.265  2.0595 -3.1298 -0.7379
 8873TIP3   OH226575   2.160   4.174   1.070  0.0352 -0.3834 -0.8646
 8873TIP3    H126576   2.142   4.231   0.995  1.0129  1.1494  0.0003
 8873TIP3    H226577   2.077   4.173   1.119  0.9707  3.9676  1.3721
 8874TIP3   OH226578   1.397   6.118   3.716  0.8247 -0.7622  0.1866
 8874TIP3    H126579   1.428   6.209   3.724 -0.6284 -0.1952 -0.2276
 8874TIP3    H226580   1.409   6.081   3.804 -0.8968  0.6501  1.1035
 8875TIP3   OH226581   8.200   2.425   0.114  0.7356  0.4803  0.0541
 8875TIP3    H126582   8.108   2.404   0.103  0.7547  0.5923 -0.3231
 8875TIP3    H226583   8.207   2.518   0.092  0.6785  0.8701  1.5698
 8876TIP3   OH226584   6.404   4.010   0.810  0.4962  0.0155  0.4742
 8876TIP3    H126585   6.357   4.092   0.797 -0.4040 -0.6812 -0.9771
 8876TIP3    H226586   6.486   4.020   0.762 -0.8499 -0.9039 -2.1758
 8877TIP3   OH226587   3.510   1.087   4.366 -0.2043  0.0514 -0.1678
 8877TIP3    H126588   3.423   1.124   4.375  0.9636  3.0469 -0.0173
 8877TIP3    H226589   3.563   1.133   4.431  1.8230 -0.4642 -1.3517
 8878TIP3   OH226590   7.991   0.414   1.247 -0.1202  0.0193 -0.1975
 8878TIP3    H126591   8.024   0.453   1.166 -1.4560  1.2293 -0.2039
 8878TIP3    H226592   7.917   0.470   1.272 -0.7758 -1.3011  0.9649
 8879TIP3   OH226593   7.443   6.477   2.319 -0.4252 -0.6983  0.4384
 8879TIP3    H126594   7.430   6.382   2.309  2.2252 -1.0800 -0.3413
 8879TIP3    H226595   7.517   6.485   2.379 -0.0247  0.8303 -0.2098
 8880TIP3   OH226596   1.810   4.567   3.675 -0.4613 -0.1336  1.0741
 8880TIP3    H126597   1.841   4.642   3.625 -0.4568 -0.3026  0.8227
 8880TIP3    H226598   1.824   4.592   3.767  2.5833 -1.0588  0.9993
 8881TIP3   OH226599   3.259   0.992   3.173  0.4105  0.2082 -0.1389
 8881TIP3    H126600   3.282   0.994   3.080 -2.4403  1.8001 -0.9234
 8881TIP3    H226601   3.169   1.023   3.176 -0.3402 -1.8527  2.9929
 8882TIP3   OH226602   5.436   2.003   4.956  0.0253  0.4598 -0.5709
 8882TIP3    H126603   5.502   1.990   4.889  0.6672  0.4703  0.0476
 8882TIP3    H226604   5.425   2.098   4.962 -1.1589  0.4296 -1.7185
 8883TIP3   OH226605   5.288   2.532   5.610  0.0475 -1.0443  0.0750
 8883TIP3    H126606   5.270   2.520   5.703  0.6412 -1.3408  0.1562
 8883TIP3    H226607   5.319   2.623   5.604 -1.5234 -0.4769 -0.0871
 8884TIP3   OH226608   1.549   1.320   3.780  0.0365  0.1254  0.3062
 8884TIP3    H126609   1.607   1.266   3.834  0.2527 -0.1667 -0.2094
 8884TIP3    H226610   1.500   1.373   3.843  0.3332 -0.1596  0.7840
 8885TIP3   OH226611   1.633   2.085   1.258 -0.3390 -0.1418 -0.3822
 8885TIP3    H126612   1.631   2.135   1.340 -0.8529 -2.4378  1.0801
 8885TIP3    H226613   1.721   2.048   1.255 -0.4682 -0.4271 -0.6572
 8886TIP3   OH226614   5.203   3.246   4.003 -0.4988 -0.5475 -0.3846
 8886TIP3    H126615   5.162   3.316   4.054 -1.8481 -1.2760 -0.4348
 8886TIP3    H226616   5.272   3.290   3.954 -0.5151  0.5267  0.5072
 8887TIP3   OH226617   1.557   6.211   0.571 -0.1574 -0.0197  0.5067
 8887TIP3    H126618   1.491   6.145   0.590  0.2673 -0.4611  0.4827
 8887TIP3    H226619   1.640   6.162   0.571 -0.1248 -0.2951 -3.1830
 8888TIP3   OH226620   5.163   3.741   2.544  0.0382  0.0064  0.7314
 8888TIP3    H126621   5.158   3.654   2.504 -0.7957  0.7363 -0.8438
 8888TIP3    H226622   5.095   3.792   2.500 -0.0320  1.2511  2.1885
 8889TIP3   OH226623   1.103   6.786   1.316 -0.0674 -0.0483  0.3371
 8889TIP3    H126624   1.071   6.792   1.226 -1.0977 -1.2369  0.5875
 8889TIP3    H226625   1.142   6.698   1.321  1.6040  0.6696  0.5747
 8890TIP3   OH226626   3.430   5.041   3.241  0.3840  0.5277  0.3272
 8890TIP3    H126627   3.352   5.015   3.289  0.8230  1.2327  1.4680
 8890TIP3    H226628   3.503   5.016   3.298  1.0498 -0.7217 -0.9940
 8891TIP3   OH226629   1.832   7.563   1.885 -0.1925 -0.2285  0.0867
 8891TIP3    H126630   1.775   7.592   1.957  0.0880  0.5174  0.0214
 8891TIP3    H226631   1.887   7.639   1.867 -0.1325 -0.4733 -0.7960
 8892TIP3   OH226632   7.938   1.272   1.212  0.0253  0.0260  0.4580
 8892TIP3    H126633   7.953   1.361   1.245  0.2457 -0.0675  0.6127
 8892TIP3    H226634   8.024   1.231   1.215  0.2546  0.3062 -1.0924
 8893TIP3   OH226635   5.211   6.751   6.523 -0.1927  0.0666 -0.4351
 8893TIP3    H126636   5.159   6.687   6.474 -1.2192 -0.2719  1.0436
 8893TIP3    H226637   5.240   6.814   6.456 -3.3816  0.8667 -1.2084
 8894TIP3   OH226638   7.755   6.028   6.506  0.4441  0.4709 -0.3412
 8894TIP3    H126639   7.771   6.010   6.598  0.1527 -0.3078 -0.4413
 8894TIP3    H226640   7.688   6.097   6.506  0.4710  0.4966  0.0295
 8895TIP3   OH226641   6.547   0.222   3.059  0.1724 -0.4091 -0.6671
 8895TIP3    H126642   6.564   0.162   2.985 -0.3612 -1.4462  0.0206
 8895TIP3    H226643   6.624   0.214   3.114  1.3653  1.6763 -1.9037
 8896TIP3   OH226644   0.688   3.074   6.705 -0.2090 -0.3219  0.2363
 8896TIP3    H126645   0.752   3.135   6.742  1.9797 -2.0012 -0.5991
 8896TIP3    H226646   0.658   3.022   6.779 -2.3493  1.8253  1.0262
 8897TIP3   OH226647   5.084   3.459   0.802  0.1604 -0.2051  0.0958
 8897TIP3    H126648   5.159   3.400   0.797 -0.4059 -0.8252 -2.5671
 8897TIP3    H226649   5.019   3.411   0.853  0.8695 -0.4671  0.7665
 8898TIP3   OH226650   4.209   4.171   3.073  1.0733  0.5498 -0.4361
 8898TIP3    H126651   4.181   4.252   3.031 -1.9767 -0.0500  0.2341
 8898TIP3    H226652   4.174   4.177   3.162  1.2995 -1.2524 -0.1860
 8899TIP3   OH226653   0.923   7.110   3.136  0.3213 -0.3349 -0.0671
 8899TIP3    H126654   0.892   7.115   3.226 -1.4768  1.1225 -0.7058
 8899TIP3    H226655   0.960   7.197   3.119  1.5168 -0.9027 -0.4672
 8900TIP3   OH226656   7.058   6.758   0.545 -0.0431 -0.3230  0.5162
 8900TIP3    H126657   7.096   6.715   0.622  1.5068  1.5011  0.8513
 8900TIP3    H226658   7.119   6.739   0.474  1.1797  1.9219  0.8638
 8901TIP3   OH226659   1.258   1.649   2.680  0.3419  0.1425  0.4004
 8901TIP3    H126660   1.298   1.574   2.636  0.2720  0.4495 -0.1887
 8901TIP3    H226661   1.245   1.619   2.770  0.1444 -0.6258  0.1301
 8902TIP3   OH226662   2.544   5.743   1.752 -0.5335  0.1548 -0.3951
 8902TIP3    H126663   2.482   5.750   1.825 -0.2869  1.7696 -0.2945
 8902TIP3    H226664   2.605   5.674   1.779 -1.7045 -0.7796 -0.0650
 8903TIP3   OH226665   2.760   2.097   2.554  1.4425 -0.0232 -0.3219
 8903TIP3    H126666   2.848   2.087   2.517  1.2033 -2.5446 -0.4150
 8903TIP3    H226667   2.701   2.078   2.481  0.8762 -0.2766  0.1919
 8904TIP3   OH226668   3.823   0.251   2.075  0.5911 -0.0197 -0.6196
 8904TIP3    H126669   3.851   0.194   2.003  0.4113 -0.6342 -0.2103
 8904TIP3    H226670   3.872   0.220   2.151  0.5176  0.3988 -0.3979
 8905TIP3   OH226671   3.184   3.242   5.259  0.3067  0.5086 -0.2721
 8905TIP3    H126672   3.168   3.319   5.314  1.0955 -0.7437  1.8325
 8905TIP3    H226673   3.144   3.264   5.176  1.8075  3.8605 -0.3137
 8906TIP3   OH226674   2.362   2.376   2.271 -0.5385 -0.1485 -0.2974
 8906TIP3    H126675   2.316   2.307   2.224 -1.4177  1.2989 -1.6365
 8906TIP3    H226676   2.309   2.455   2.258  0.8952  1.0018  0.4242
 8907TIP3   OH226677   1.744   0.119   2.453  0.1989 -0.0117 -0.2538
 8907TIP3    H126678   1.796   0.126   2.372 -0.7548 -0.1742 -0.8997
 8907TIP3    H226679   1.684   0.193   2.449  0.0596 -0.0961  0.2535
 8908TIP3   OH226680   4.042   5.708   4.701  0.0181  0.1298 -0.1017
 8908TIP3    H126681   4.054   5.766   4.776  0.0616  0.0212 -0.0249
 8908TIP3    H226682   4.129   5.675   4.681 -0.1276 -0.5651  0.3840
 8909TIP3   OH226683   2.132   4.417   4.497 -0.0627  0.2612 -0.0574
 8909TIP3    H126684   2.101   4.437   4.409  1.5648  3.7863  0.0198
 8909TIP3    H226685   2.052   4.405   4.549 -1.0511 -1.0822 -1.7711
 8910TIP3   OH226686   0.689   7.698   1.081  0.1435 -0.3379 -0.5889
 8910TIP3    H126687   0.618   7.640   1.106  0.5778 -0.8929 -0.6321
 8910TIP3    H226688   0.728   7.657   1.004  0.7831 -0.2726 -0.3071
 8911TIP3   OH226689   1.798   3.215   4.059 -0.3437  0.2308 -0.4471
 8911TIP3    H126690   1.742   3.239   4.133  0.4982  1.9076 -0.3148
 8911TIP3    H226691   1.782   3.283   3.994  1.1240  0.4397 -0.6155
 8912TIP3   OH226692   3.495   4.375   0.351 -0.5797 -0.1843  0.1531
 8912TIP3    H126693   3.444   4.448   0.385  0.2752  1.0995 -1.2352
 8912TIP3    H226694   3.570   4.369   0.410  0.1346  1.0779 -0.5886
 8913TIP3   OH226695   2.688   4.953   3.394  0.1067  0.1147 -0.2896
 8913TIP3    H126696   2.681   4.891   3.322 -2.0087 -0.8709  0.6907
 8913TIP3    H226697   2.659   5.037   3.358 -0.9830 -0.3825 -0.5831
 8914TIP3   OH226698   0.427   6.841   2.660  0.3239 -0.1030 -0.2980
 8914TIP3    H126699   0.357   6.889   2.703  0.5131 -0.7511  0.7743
 8914TIP3    H226700   0.431   6.877   2.571 -1.5390 -0.2564 -0.4676
 8915TIP3   OH226701   2.398   3.283   6.251  0.4025 -0.2030 -0.0167
 8915TIP3    H126702   2.477   3.259   6.202 -0.3790 -1.2143 -0.8324
 8915TIP3    H226703   2.354   3.348   6.195 -0.7058 -1.6677 -0.9512
 8916TIP3   OH226704   1.338   1.216   0.308  0.4446  0.6380  0.1910
 8916TIP3    H126705   1.353   1.137   0.256  0.4693  0.7134  0.0813
 8916TIP3    H226706   1.419   1.266   0.299  1.0406 -0.0540  1.5746
 8917TIP3   OH226707   0.321   0.008   5.380 -0.0565  0.2098 -0.4981
 8917TIP3    H126708   0.332  -0.020   5.289 -1.1756  0.1666 -0.6319
 8917TIP3    H226709   0.337   0.102   5.378 -0.7140  0.3188 -0.8632
 8918TIP3   OH226710   0.833   3.252   0.396 -0.7054  0.3757 -0.3236
 8918TIP3    H126711   0.788   3.168   0.403 -0.0955 -0.1293 -1.9081
 8918TIP3    H226712   0.765   3.314   0.371 -1.0868  0.2770  0.4623
 8919TIP3   OH226713   2.549   7.634   5.809  0.7853 -0.3581 -0.4383
 8919TIP3    H126714   2.491   7.662   5.739 -1.1518 -1.6404  0.5576
 8919TIP3    H226715   2.540   7.702   5.876  1.7108  0.2527 -0.9100
 8920TIP3   OH226716   2.540   1.895   5.804 -0.1485  0.1488 -0.5552
 8920TIP3    H126717   2.609   1.942   5.852  0.8628 -1.0130 -0.8163
 8920TIP3    H226718   2.526   1.947   5.725  0.7020  0.1961 -0.6802
 8921TIP3   OH226719   0.109   1.303   3.808 -0.3112 -0.1923  0.0109
 8921TIP3    H126720   0.070   1.371   3.861  0.4228  1.9774 -2.0539
 8921TIP3    H226721   0.192   1.283   3.851  0.6666  2.1310 -0.6276
 8922TIP3   OH226722   2.846   2.197   4.302 -0.0137  0.5489 -0.2635
 8922TIP3    H126723   2.785   2.198   4.228 -0.0788 -1.2550 -0.2897
 8922TIP3    H226724   2.792   2.175   4.378  0.2317  1.2696  0.1221
 8923TIP3   OH226725   6.386   5.156   4.536  0.4095 -0.0353  0.3632
 8923TIP3    H126726   6.458   5.214   4.560  2.0036 -2.2227  1.1870
 8923TIP3    H226727   6.342   5.201   4.464  1.5387  2.1666  0.9655
 8924TIP3   OH226728   2.083   5.117   6.674 -0.6246 -0.3346 -0.2012
 8924TIP3    H126729   2.149   5.167   6.626 -1.6874 -0.1772 -1.5536
 8924TIP3    H226730   2.120   5.029   6.680 -0.2316 -0.2204 -0.8463
 8925TIP3   OH226731   8.191   0.725   6.662 -0.0523  0.3937 -0.1092
 8925TIP3    H126732   8.216   0.669   6.735 -3.1170  0.3930  1.1200
 8925TIP3    H226733   8.112   0.684   6.627  0.0113  1.6936 -1.9206
 8926TIP3   OH226734   1.303   0.053   3.184  0.5939  0.1421  0.2541
 8926TIP3    H126735   1.265  -0.016   3.239  0.5469  0.3822  0.5286
 8926TIP3    H226736   1.302   0.131   3.240  0.8552  0.3124  0.0241
 8927TIP3   OH226737   2.412   7.612   5.397 -0.1761 -0.3593 -0.0137
 8927TIP3    H126738   2.452   7.550   5.337 -0.7786  0.4229 -1.2520
 8927TIP3    H226739   2.319   7.611   5.375 -0.5287 -0.5759  1.3890
 8928TIP3   OH226740   0.138   4.061   3.149  0.5565  0.3701 -0.3998
 8928TIP3    H126741   0.198   4.010   3.095 -1.7005 -1.8633 -0.9945
 8928TIP3    H226742   0.052   4.047   3.109 -1.0752 -0.3566  2.9622
 8929TIP3   OH226743   0.026   7.154   1.327  0.4031  0.1434  0.0784
 8929TIP3    H126744   0.016   7.169   1.421  0.6040 -0.4048  0.1901
 8929TIP3    H226745   0.120   7.160   1.311  0.2776  1.4301 -0.3046
 8930TIP3   OH226746   1.748   1.269   2.388 -0.4483  0.1804  0.4613
 8930TIP3    H126747   1.773   1.331   2.456 -0.8884  0.9286 -0.0461
 8930TIP3    H226748   1.702   1.199   2.435  0.8655 -0.2651  1.1584
 8931TIP3   OH226749   5.326   6.011   3.208  0.2968 -0.5282 -0.0548
 8931TIP3    H126750   5.402   6.054   3.246 -0.3484  0.4233  0.1995
 8931TIP3    H226751   5.350   5.918   3.204  1.6463 -0.1823 -0.4386
 8932TIP3   OH226752   8.182   4.781   5.470 -0.0343  0.2954  0.1099
 8932TIP3    H126753   8.168   4.866   5.429 -0.0386  0.2592  0.0361
 8932TIP3    H226754   8.131   4.720   5.418 -0.2067  0.2823  0.2953
 8933TIP3   OH226755   1.120   5.222   2.409 -0.4443 -0.2799 -0.6125
 8933TIP3    H126756   1.102   5.267   2.492 -0.3968 -1.4436  0.0473
 8933TIP3    H226757   1.210   5.246   2.388 -0.5239  0.1863 -0.4411
 8934TIP3   OH226758   1.103   2.152   2.472 -0.2599  0.0885  0.1750
 8934TIP3    H126759   1.075   2.068   2.508  0.0647  0.0405  0.3262
 8934TIP3    H226760   1.100   2.212   2.547  0.9475 -0.1375  0.4289
 8935TIP3   OH226761   3.750   6.618   3.555 -0.4891  0.0218 -0.6494
 8935TIP3    H126762   3.697   6.586   3.482 -0.8885 -3.8005  1.1013
 8935TIP3    H226763   3.767   6.541   3.609 -0.6548  2.6251  3.6303
 8936TIP3   OH226764   6.873   6.312   4.035 -0.1599 -0.1005 -0.0336
 8936TIP3    H126765   6.831   6.385   3.989 -2.3957 -0.4680  1.2695
 8936TIP3    H226766   6.950   6.291   3.982 -0.6605  1.7668 -1.6202
 8937TIP3   OH226767   0.494   6.384   2.755 -0.8361  0.1730 -0.2975
 8937TIP3    H126768   0.567   6.369   2.813 -0.1598  1.7690 -0.6723
 8937TIP3    H226769   0.419   6.344   2.799  0.0916 -0.7547  0.4822
 8938TIP3   OH226770   4.902   0.324   1.748  0.1203  0.0256 -0.3493
 8938TIP3    H126771   4.950   0.269   1.685 -2.0772 -2.3533 -0.1174
 8938TIP3    H226772   4.911   0.413   1.714  1.6136 -0.7821 -2.2779
 8939TIP3   OH226773   0.505   5.927   5.714 -0.2795  0.0900  0.1231
 8939TIP3    H126774   0.549   6.010   5.731 -0.0711  0.0957 -0.4331
 8939TIP3    H226775   0.456   5.909   5.794 -0.8069  1.0388  0.0155
 8940TIP3   OH226776   7.811   4.521   1.622  0.2114  0.1831 -0.5099
 8940TIP3    H126777   7.884   4.581   1.636 -1.6955  2.0344  2.4983
 8940TIP3    H226778   7.840   4.438   1.659  0.7818  0.9419  0.8209
 8941TIP3   OH226779   1.193   3.302   3.696  0.4070  0.0473 -0.3743
 8941TIP3    H126780   1.263   3.337   3.751  1.2038  0.2593 -1.4916
 8941TIP3    H226781   1.189   3.362   3.621  0.0102 -0.7782 -1.0267
 8942TIP3   OH226782   3.599   2.265   6.461 -0.5446  0.0173  0.5014
 8942TIP3    H126783   3.659   2.338   6.476 -0.9698  0.6105 -0.5456
 8942TIP3    H226784   3.644   2.210   6.397 -1.0592  0.4346 -0.2456
 8943TIP3   OH226785   7.055   6.858   4.857 -0.2979  0.2434  0.4497
 8943TIP3    H126786   7.087   6.948   4.866 -0.2243  0.1429  1.2459
 8943TIP3    H226787   7.101   6.825   4.779  1.5331  0.1277  1.5170
 8944TIP3   OH226788   1.181   6.103   5.152 -0.0639  0.0635  0.4134
 8944TIP3    H126789   1.172   6.087   5.058 -1.2724  2.6140  0.0237
 8944TIP3    H226790   1.098   6.073   5.190  1.4161 -3.6187  1.2344
 8945TIP3   OH226791   8.145   7.725   6.020  0.5791 -0.3141  0.0352
 8945TIP3    H126792   8.216   7.746   6.081  0.0043  0.1068  0.5762
 8945TIP3    H226793   8.065   7.733   6.072  0.0220  0.7235 -0.9194
 8946TIP3   OH226794   4.166   6.731   6.561  0.0758 -0.6642  0.7847
 8946TIP3    H126795   4.079   6.742   6.597  0.6685 -0.3874  2.1826
 8946TIP3    H226796   4.208   6.665   6.616  1.3789  0.5725  1.3480
 8947TIP3   OH226797   2.515   4.452   3.026 -0.0716  0.0544  0.2134
 8947TIP3    H126798   2.552   4.482   3.108 -1.4447  1.8302  0.2431
 8947TIP3    H226799   2.533   4.523   2.964 -0.8967 -0.3197 -0.4717
 8948TIP3   OH226800   2.666   7.469   6.158  0.2632  0.1382  0.3141
 8948TIP3    H126801   2.653   7.489   6.065  1.1191 -0.6653  0.0009
 8948TIP3    H226802   2.650   7.375   6.164 -1.7631  0.5135  1.3749
 8949TIP3   OH226803   5.228   7.677   2.489 -0.2433  0.2647 -0.4702
 8949TIP3    H126804   5.275   7.702   2.410  0.9194 -0.4469 -0.0353
 8949TIP3    H226805   5.136   7.700   2.472  0.1290  0.8838 -1.6797
 8950TIP3   OH226806   4.937   3.963   4.694 -0.5529  0.0926 -0.0285
 8950TIP3    H126807   4.935   4.007   4.608  0.8533  2.6038  1.1096
 8950TIP3    H226808   4.992   3.886   4.680  1.2208  1.4432 -1.0479
 8951TIP3   OH226809   0.759   4.082   3.279 -0.3042 -0.7635  0.2086
 8951TIP3    H126810   0.846   4.122   3.279 -0.6386 -0.0265 -0.1932
 8951TIP3    H226811   0.702   4.148   3.317 -1.2963  0.1571 -2.6269
 8952TIP3   OH226812   3.104   6.493   1.055 -0.1027  0.4580  0.3528
 8952TIP3    H126813   3.189   6.473   1.014 -0.9804 -0.6214 -1.0515
 8952TIP3    H226814   3.082   6.413   1.103  0.7924  1.6214  2.8550
 8953TIP3   OH226815   1.805   2.853   4.324 -0.3325  0.0320  0.1041
 8953TIP3    H126816   1.895   2.854   4.358  1.0887  2.3726 -3.1965
 8953TIP3    H226817   1.782   2.761   4.318  1.3399 -0.5966  2.1209
 8954TIP3   OH226818   0.855   0.801   1.212  0.6872  0.2171  0.4991
 8954TIP3    H126819   0.851   0.837   1.301  0.8653  0.3326  0.4601
 8954TIP3    H226820   0.890   0.872   1.159 -0.0502  0.3760  0.2162
 8955TIP3   OH226821   3.900   3.411   3.071  0.0355 -0.1048 -0.5491
 8955TIP3    H126822   3.821   3.445   3.029 -0.7920  0.2585  1.2215
 8955TIP3    H226823   3.966   3.412   3.002 -0.3044  3.7074 -1.0513
 8956TIP3   OH226824   4.797   1.430   3.148 -0.2053  0.5096  0.1797
 8956TIP3    H126825   4.747   1.480   3.213  0.4415 -0.8626  1.8228
 8956TIP3    H226826   4.733   1.409   3.080 -1.4472  0.3204  1.3470
 8957TIP3   OH226827   5.081   1.367   2.297 -0.0735 -0.4728 -0.0691
 8957TIP3    H126828   5.088   1.442   2.237 -0.2562  0.1411  0.6525
 8957TIP3    H226829   5.161   1.317   2.282 -0.2162 -0.4405 -0.9688
 8958TIP3   OH226830   3.938   5.067   1.054  0.0637  0.2615 -0.4889
 8958TIP3    H126831   3.880   5.105   1.119  0.4784 -0.4302  0.3038
 8958TIP3    H226832   4.019   5.118   1.061  0.0505  0.2982 -0.5933
 8959TIP3   OH226833   1.738   1.233   1.424 -0.0210 -0.2978 -0.2421
 8959TIP3    H126834   1.817   1.189   1.453  1.2939 -0.0232 -3.0832
 8959TIP3    H226835   1.760   1.326   1.427 -0.1195 -0.2289 -1.2631
 8960TIP3   OH226836   5.026   2.304   4.464  0.2566 -0.1147  0.3140
 8960TIP3    H126837   4.985   2.226   4.502  1.3439 -0.2769  1.2393
 8960TIP3    H226838   5.060   2.274   4.380 -0.7168 -0.2076 -0.0547
 8961TIP3   OH226839   3.755   5.067   1.730  0.2110  0.1019  0.4006
 8961TIP3    H126840   3.840   5.108   1.743 -0.6984  2.4679 -0.5701
 8961TIP3    H226841   3.753   5.044   1.637 -0.3926  0.5265  0.3052
 8962TIP3   OH226842   2.086   7.714   4.152 -0.2464  0.1432  0.3248
 8962TIP3    H126843   2.177   7.705   4.179 -0.5204 -0.1434  1.1995
 8962TIP3    H226844   2.036   7.690   4.230 -1.0658  1.7052  0.3078
 8963TIP3   OH226845   1.786   6.711   4.084 -0.5626  0.0994  0.4070
 8963TIP3    H126846   1.875   6.716   4.049 -1.0534 -1.2839 -1.1454
 8963TIP3    H226847   1.736   6.774   4.032 -1.1749 -1.5657 -1.1293
 8964TIP3   OH226848   0.199   7.388   0.373  0.3302  0.3084  0.5152
 8964TIP3    H126849   0.288   7.423   0.362  0.2502  0.9954  1.8125
 8964TIP3    H226850   0.194   7.315   0.311  1.0405  1.6009 -1.1293
 8965TIP3   OH226851   1.225   6.888   2.157 -0.1186 -0.5628  0.1239
 8965TIP3    H126852   1.318   6.907   2.168 -0.2142 -0.3465  0.5851
 8965TIP3    H226853   1.209   6.813   2.215 -0.2895 -0.4173  0.2676
 8966TIP3   OH226854   5.145   5.108   1.681 -0.3063 -0.0727  0.0292
 8966TIP3    H126855   5.148   5.191   1.633 -0.5272  0.4011  0.8194
 8966TIP3    H226856   5.209   5.118   1.750 -0.6878 -0.3732  0.4319
 8967TIP3   OH226857   7.013   4.815   2.915  0.0188 -0.3169 -0.5630
 8967TIP3    H126858   6.968   4.861   2.844 -0.2572  0.5486  0.1579
 8967TIP3    H226859   7.098   4.858   2.921 -0.9992  1.5590  1.4806
 8968TIP3   OH226860   0.604   0.554   2.523 -0.1425  0.1206  0.1777
 8968TIP3    H126861   0.580   0.562   2.615 -1.2387  1.2031 -0.1677
 8968TIP3    H226862   0.689   0.596   2.516  0.4154 -0.8577  0.8588
 8969TIP3   OH226863   3.797   5.807   5.405 -0.1437  0.3196 -0.1253
 8969TIP3    H126864   3.719   5.771   5.447 -0.9764  1.9417 -0.2077
 8969TIP3    H226865   3.767   5.889   5.364  1.4472  0.6300 -0.7544
 8970TIP3   OH226866   4.357   3.063   1.466  0.4455 -1.4468 -0.5310
 8970TIP3    H126867   4.344   2.992   1.530 -0.7582 -0.8841 -0.1122
 8970TIP3    H226868   4.346   3.143   1.517  1.4202 -0.9505 -1.0788
 8971TIP3   OH226869   2.342   0.225   4.143 -0.0083  0.3734  0.1498
 8971TIP3    H126870   2.287   0.249   4.068 -2.5218  0.8077  2.0216
 8971TIP3    H226871   2.335   0.299   4.203  0.9695 -0.4582  1.3413
 8972TIP3   OH226872   7.373   5.985   2.159 -0.1405 -0.1183 -0.1195
 8972TIP3    H126873   7.444   6.048   2.155 -0.5649  0.3111 -1.7289
 8972TIP3    H226874   7.366   5.950   2.070 -0.1766 -2.1714  0.6269
 8973TIP3   OH226875   5.409   2.997   1.218 -0.1690  0.9777 -0.4245
 8973TIP3    H126876   5.483   2.946   1.251 -0.5980 -0.2885 -1.3369
 8973TIP3    H226877   5.437   3.028   1.132 -0.2956  1.4309 -0.3047
 8974TIP3   OH226878   2.492   1.104   4.712 -0.3377  0.0403  0.1692
 8974TIP3    H126879   2.557   1.147   4.658  1.2067 -3.2626 -0.8809
 8974TIP3    H226880   2.535   1.090   4.796 -0.8262  0.5168  0.5065
 8975TIP3   OH226881   0.254   2.260   1.462 -0.0096  0.0760  0.3856
 8975TIP3    H126882   0.193   2.209   1.408 -1.5642  0.3804  1.7645
 8975TIP3    H226883   0.278   2.201   1.533  3.5371 -1.0128 -1.4669
 8976TIP3   OH226884   3.801   2.388   2.439 -0.4239  0.1410  0.0846
 8976TIP3    H126885   3.794   2.293   2.451 -1.2017 -0.1228 -2.0045
 8976TIP3    H226886   3.791   2.401   2.344 -0.8230  2.3538  0.3753
 8977TIP3   OH226887   1.231   1.085   2.960 -0.1174 -0.2390 -0.6928
 8977TIP3    H126888   1.190   1.064   3.044  0.6630 -1.4863 -0.5938
 8977TIP3    H226889   1.243   1.180   2.963  0.7284 -0.3457  1.0101
 8978TIP3   OH226890   0.402   7.049   0.974 -0.1492 -0.2197 -0.8713
 8978TIP3    H126891   0.367   6.984   0.912 -1.7005 -0.2905  0.0185
 8978TIP3    H226892   0.446   6.996   1.041  1.3012 -0.1552 -1.7209
 8979TIP3   OH226893   7.126   6.476   3.764 -0.1376 -0.2503  0.5619
 8979TIP3    H126894   7.213   6.442   3.745 -0.2278 -0.1166 -0.0987
 8979TIP3    H226895   7.135   6.571   3.754 -0.2020 -0.1788  1.1352
 8980TIP3   OH226896   6.729   7.554   4.008 -0.1959  0.0533  0.7053
 8980TIP3    H126897   6.743   7.640   3.968 -0.9905  0.4399  1.2470
 8980TIP3    H226898   6.815   7.530   4.043  0.0868  0.5085  0.3362
 8981TIP3   OH226899   4.655   6.944   0.121 -0.3731  0.5169 -0.2968
 8981TIP3    H126900   4.657   7.039   0.124 -0.4909  0.5061  0.3783
 8981TIP3    H226901   4.660   6.922   0.028 -1.0436  1.2002 -0.4996
 8982TIP3   OH226902   6.536   1.444   1.459 -0.2552  0.5931  0.6191
 8982TIP3    H126903   6.529   1.387   1.535  1.5382 -0.6145 -0.0566
 8982TIP3    H226904   6.510   1.531   1.491 -2.0568 -0.3702  1.9159
 8983TIP3   OH226905   6.950   1.666   5.796 -0.0795  0.2411  0.4378
 8983TIP3    H126906   7.008   1.596   5.767  1.3370  1.8634 -0.8896
 8983TIP3    H226907   6.880   1.669   5.730  1.5142  1.9543 -1.3342
 8984TIP3   OH226908   6.471   2.821   3.878 -0.2202 -0.1621  0.0460
 8984TIP3    H126909   6.385   2.857   3.901 -0.3938  2.3556 -3.5903
 8984TIP3    H226910   6.452   2.735   3.841 -0.8813 -0.5025  1.1252
 8985TIP3   OH226911   1.918   4.490   1.170  0.1571 -0.0989 -0.0692
 8985TIP3    H126912   2.000   4.482   1.122  2.0190 -0.2642  2.8919
 8985TIP3    H226913   1.858   4.431   1.124  1.8749 -0.5279 -1.9047
 8986TIP3   OH226914   3.499   7.235   2.642 -0.1269  0.1673 -0.7800
 8986TIP3    H126915   3.589   7.262   2.623  0.0311  0.5261  0.4047
 8986TIP3    H226916   3.449   7.317   2.638 -0.5099 -0.0999 -1.9224
 8987TIP3   OH226917   6.445   5.832   3.962 -0.2011  0.4359 -0.3702
 8987TIP3    H126918   6.393   5.899   3.918 -1.0819  0.4149  0.5880
 8987TIP3    H226919   6.481   5.877   4.039 -2.6398 -0.6849  1.5438
 8988TIP3   OH226920   1.291   5.825   5.204 -0.5500  0.2788  0.1020
 8988TIP3    H126921   1.216   5.773   5.232 -0.3920  0.9644  1.9436
 8988TIP3    H226922   1.259   5.876   5.130 -1.2349 -1.0455 -0.5336
 8989TIP3   OH226923   3.840   1.851   4.132  0.5329  0.4073  0.2246
 8989TIP3    H126924   3.746   1.841   4.114  0.6405  0.9322 -0.7029
 8989TIP3    H226925   3.844   1.912   4.206  0.0925 -1.4408  1.8716
 8990TIP3   OH226926   1.325   0.909   1.899  0.8717  0.6140  0.4630
 8990TIP3    H126927   1.385   0.924   1.973  0.7808  0.3746  0.5867
 8990TIP3    H226928   1.383   0.882   1.827  0.8534 -0.2117  0.7555
 8991TIP3   OH226929   1.363   7.660   3.878  0.2810 -0.1078 -0.3283
 8991TIP3    H126930   1.272   7.661   3.847  0.4817 -0.7621 -0.9698
 8991TIP3    H226931   1.377   7.748   3.913 -0.5687  0.0326 -0.3101
 8992TIP3   OH226932   6.747   4.480   2.889 -0.0394 -0.3356  0.1206
 8992TIP3    H126933   6.832   4.471   2.846  0.3352 -0.5341  0.8812
 8992TIP3    H226934   6.750   4.567   2.930 -0.2142 -0.3322  0.1273
 8993TIP3   OH226935   7.371   3.316   0.612 -0.4170 -0.5330  0.5306
 8993TIP3    H126936   7.438   3.374   0.649 -0.7918  0.9338 -0.9865
 8993TIP3    H226937   7.297   3.322   0.673 -0.1856 -0.0144  0.7624
 8994TIP3   OH226938   1.068   2.784   3.969  0.3968  1.0143  0.8822
 8994TIP3    H126939   1.061   2.868   4.015 -0.3034 -0.1340  3.0621
 8994TIP3    H226940   1.154   2.750   3.994  1.0167  1.3873 -0.6384
 8995TIP3   OH226941   4.645   4.793   3.584 -0.1625  0.6496 -0.1979
 8995TIP3    H126942   4.689   4.709   3.573  0.5798  0.9150  0.6054
 8995TIP3    H226943   4.571   4.790   3.524 -0.9825 -1.1373  0.8455
 8996TIP3   OH226944   7.708   4.655   5.209 -0.1466 -0.2319  0.5553
 8996TIP3    H126945   7.795   4.694   5.219  0.2624 -0.6172 -1.0709
 8996TIP3    H226946   7.652   4.727   5.180  0.0297 -0.3182 -0.0141
 8997TIP3   OH226947   3.554   2.343   4.849 -0.4741  0.4316 -0.6448
 8997TIP3    H126948   3.538   2.249   4.855 -1.3449  0.4823 -1.8797
 8997TIP3    H226949   3.571   2.359   4.756  5.1775  0.6725  0.0337
 8998TIP3   OH226950   5.200   4.959   0.221  0.1537 -0.1384 -0.0501
 8998TIP3    H126951   5.117   4.992   0.186  0.4616 -0.5819 -1.2178
 8998TIP3    H226952   5.266   5.017   0.184  0.3880  0.2553  0.9335
 8999TIP3   OH226953   7.846   4.440   6.404 -0.2678  0.4770  0.5070
 8999TIP3    H126954   7.869   4.516   6.351 -0.1243 -1.9322 -3.3284
 8999TIP3    H226955   7.925   4.420   6.453  0.8290  0.9452 -0.9861
 9000TIP3   OH226956   7.450   6.636   2.035 -0.2137  0.4206 -0.0396
 9000TIP3    H126957   7.510   6.569   2.068 -1.7080 -0.9077  0.1058
 9000TIP3    H226958   7.506   6.709   2.010  1.5656 -1.2532 -1.1281
 9001TIP3   OH226959   1.715   2.862   1.165  0.2910 -0.1371  0.6427
 9001TIP3    H126960   1.731   2.887   1.074  0.2079  0.4533  0.7866
 9001TIP3    H226961   1.662   2.933   1.201  2.5914  1.0887  1.9162
 9002TIP3   OH226962   2.368   6.467   0.543 -0.4420  0.0890 -0.1850
 9002TIP3    H126963   2.464   6.472   0.545 -0.4491  0.4008 -0.5169
 9002TIP3    H226964   2.339   6.519   0.618 -0.3642  0.4102 -0.3766
 9003TIP3   OH226965   2.289   2.063   3.128 -0.4589 -0.6585 -0.5613
 9003TIP3    H126966   2.232   2.007   3.075  1.0824 -0.7275 -2.2396
 9003TIP3    H226967   2.364   2.080   3.072  0.3945  0.8284  0.9576
 9004TIP3   OH226968   5.672   3.419   1.703  0.5467  0.4126 -0.1331
 9004TIP3    H126969   5.581   3.443   1.719 -0.0463 -0.7530 -1.5054
 9004TIP3    H226970   5.701   3.380   1.786  0.0924  1.5735  0.5918
 9005TIP3   OH226971   5.764   5.135   1.233  0.0474  0.5584 -0.2853
 9005TIP3    H126972   5.733   5.220   1.262 -0.4507 -0.5005  2.6280
 9005TIP3    H226973   5.797   5.093   1.312  4.0151 -0.5006 -2.2265
 9006TIP3   OH226974   1.633   1.793   0.384  0.4045 -0.4782 -0.3011
 9006TIP3    H126975   1.588   1.863   0.431  2.1391  1.7577 -1.7655
 9006TIP3    H226976   1.569   1.761   0.321 -0.5348 -0.5237  0.6425
 9007TIP3   OH226977   7.944   4.002   5.777  0.0767 -0.0873  0.9015
 9007TIP3    H126978   7.964   3.914   5.809  1.0786  0.0894  0.7905
 9007TIP3    H226979   7.865   3.990   5.724  1.3569 -1.3538 -0.8873
 9008TIP3   OH226980   6.227   2.977   0.895 -0.3850 -0.3811 -0.1187
 9008TIP3    H126981   6.220   3.065   0.931 -0.3803 -0.6055  0.4606
 9008TIP3    H226982   6.303   2.980   0.837  0.1072 -0.1929  0.5142
 9009TIP3   OH226983   3.731   5.833   1.942 -0.0694  0.2661 -0.1961
 9009TIP3    H126984   3.765   5.744   1.956 -3.4031 -0.9798  1.0371
 9009TIP3    H226985   3.677   5.825   1.863 -0.9730  1.0042  0.3313
 9010TIP3   OH226986   1.554   7.279   3.975  0.3173  0.0884  0.0070
 9010TIP3    H126987   1.613   7.286   3.900  0.0549  0.6761 -0.1535
 9010TIP3    H226988   1.469   7.306   3.941 -0.3023 -1.7559 -0.0379
 9011TIP3   OH226989   2.294   1.867   5.645  0.3070  0.0374 -0.3413
 9011TIP3    H126990   2.210   1.911   5.639  0.0043 -0.4051  0.5478
 9011TIP3    H226991   2.325   1.885   5.735  0.0992 -1.6691  0.1098
 9012TIP3   OH226992   2.821   1.625   2.323 -0.0998 -0.4212 -0.1769
 9012TIP3    H126993   2.904   1.579   2.331 -0.6238 -1.0544  2.2691
 9012TIP3    H226994   2.754   1.558   2.338 -1.0177  0.4191 -0.3764
 9013TIP3   OH226995   7.926   6.959   0.487 -0.1601 -0.4937 -0.0333
 9013TIP3    H126996   7.992   6.942   0.554  1.2357 -0.3841 -1.3263
 9013TIP3    H226997   7.959   7.035   0.440 -1.0945 -0.5863 -0.8647
 9014TIP3   OH226998   5.446   1.816   0.606  0.0008  1.1252  0.0173
 9014TIP3    H126999   5.389   1.741   0.591 -0.4530  1.3990  0.3564
 9014TIP3    H227000   5.461   1.816   0.700  0.0090  1.4548  0.0166
 9015TIP3   OH227001   2.998   6.241   5.265 -0.1279 -0.4178 -0.4135
 9015TIP3    H127002   3.076   6.227   5.318 -1.2142 -1.2644  1.0056
 9015TIP3    H227003   3.008   6.179   5.192  0.9973  0.2007 -0.8071
 9016TIP3   OH227004   8.192   6.071   4.110  0.4907  0.1148  0.2896
 9016TIP3    H127005   8.105   6.068   4.149  0.8433 -0.1257  1.0685
 9016TIP3    H227006   8.248   6.023   4.171  1.0052 -0.5180 -0.6466
 9017TIP3   OH227007   6.313   2.741   5.547  0.1885 -0.1861  0.0304
 9017TIP3    H127008   6.276   2.759   5.461  0.0817  2.5882  0.5487
 9017TIP3    H227009   6.348   2.652   5.541 -1.8829 -0.9546 -2.1058
 9018TIP3   OH227010   5.023   2.389   6.035  0.4197  0.3564 -0.1632
 9018TIP3    H127011   4.963   2.332   6.082  0.6436  1.6894  1.8822
 9018TIP3    H227012   4.969   2.433   5.969 -0.2685 -0.3325 -0.0711
 9019TIP3   OH227013   2.383   3.280   3.539  0.2744 -0.6838 -0.2470
 9019TIP3    H127014   2.463   3.260   3.588  0.1019 -0.4689  0.1300
 9019TIP3    H227015   2.335   3.198   3.534  0.2433 -0.6829  0.0399
 9020TIP3   OH227016   0.423   0.188   3.185  0.5056  0.2152 -0.1238
 9020TIP3    H127017   0.345   0.153   3.144 -1.1511  2.7018  0.6898
 9020TIP3    H227018   0.449   0.122   3.250 -2.1404  0.1555  0.9777
 9021TIP3   OH227019   3.088   6.273   3.375 -0.1593  0.2978 -0.1960
 9021TIP3    H127020   3.042   6.292   3.456 -2.4868 -1.8190 -0.9227
 9021TIP3    H227021   3.020   6.274   3.308  1.5114  0.8436 -1.9774
 9022TIP3   OH227022   5.464   2.611   5.980 -0.0773 -0.1415  0.2316
 9022TIP3    H127023   5.474   2.630   6.074 -0.3352  1.2856 -0.0056
 9022TIP3    H227024   5.465   2.697   5.938  1.4493 -0.8330 -1.2394
 9023TIP3   OH227025   7.639   7.477   4.791 -0.0821  0.2764  0.4066
 9023TIP3    H127026   7.689   7.558   4.780 -0.4541  0.5628  0.7859
 9023TIP3    H227027   7.552   7.505   4.817 -0.5349 -0.2135 -0.5436
 9024TIP3   OH227028   7.814   1.130   4.948 -0.2823  0.4515  0.3526
 9024TIP3    H127029   7.775   1.118   5.034 -0.5589  0.8344  0.2833
 9024TIP3    H227030   7.814   1.224   4.935 -0.3954  0.3870 -0.1335
 9025TIP3   OH227031   6.186   6.479   1.586  0.0795  0.1108 -0.2286
 9025TIP3    H127032   6.270   6.434   1.587  0.4091  0.7159  1.1473
 9025TIP3    H227033   6.131   6.429   1.645 -0.1632  0.3852 -0.2189
 9026TIP3   OH227034   0.293   5.310   4.706 -0.0325  0.5788 -0.8686
 9026TIP3    H127035   0.316   5.392   4.750  1.0034  0.0018 -0.3104
 9026TIP3    H227036   0.354   5.245   4.741 -0.5378 -0.3462 -1.6398
 9027TIP3   OH227037   3.209   5.598   2.326 -0.6017  0.0719 -0.0128
 9027TIP3    H127038   3.286   5.542   2.320 -0.3297  0.5166 -0.7235
 9027TIP3    H227039   3.155   5.556   2.393  0.2977 -0.1873  0.5648
 9028TIP3   OH227040   2.967   5.102   3.467  0.1176 -0.2380  0.3286
 9028TIP3    H127041   2.930   5.015   3.454 -0.5445  0.1275 -0.3431
 9028TIP3    H227042   2.963   5.116   3.562 -1.7741 -0.1109  0.2790
 9029TIP3   OH227043   3.461   6.139   3.510  0.2406  0.3349 -0.4398
 9029TIP3    H127044   3.520   6.207   3.480 -0.5633  1.5160  0.5696
 9029TIP3    H227045   3.405   6.120   3.435  0.4640  0.7901 -0.7220
 9030TIP3   OH227046   4.019   3.964   0.359  0.0759 -0.1806 -0.5314
 9030TIP3    H127047   3.989   3.959   0.268  2.2534  1.9378 -1.4686
 9030TIP3    H227048   4.016   3.874   0.390 -0.1062 -1.0687 -2.9276
 9031TIP3   OH227049   1.682   5.669   1.835 -0.0709  0.0180  0.4723
 9031TIP3    H127050   1.678   5.639   1.926 -0.1341  1.1525  0.8571
 9031TIP3    H227051   1.611   5.622   1.792 -0.9148  0.4809  1.3223
 9032TIP3   OH227052   6.436   3.127   4.304  0.3382 -0.2120  0.4534
 9032TIP3    H127053   6.432   3.189   4.231 -0.0231 -1.6365 -0.7832
 9032TIP3    H227054   6.450   3.182   4.381  1.2888  1.3016 -0.7370
 9033TIP3   OH227055   6.372   6.489   2.538 -0.0244 -0.0010 -0.3731
 9033TIP3    H127056   6.397   6.534   2.457 -0.7720 -1.5216 -1.5082
 9033TIP3    H227057   6.451   6.446   2.567  0.3824  0.9835  0.0269
 9034TIP3   OH227058   6.431   3.381   1.575 -0.0461  0.2235 -0.2534
 9034TIP3    H127059   6.362   3.356   1.513 -0.3869  1.2658 -0.3236
 9034TIP3    H227060   6.424   3.477   1.580 -0.7304  0.0936  2.2252
 9035TIP3   OH227061   3.927   2.572   2.927 -0.0530  0.2058  0.0448
 9035TIP3    H127062   3.963   2.487   2.901  1.6592  0.5162  1.2403
 9035TIP3    H227063   3.951   2.631   2.856 -0.2873 -0.0780 -0.2758
 9036TIP3   OH227064   0.738   1.928   6.760  0.3147 -0.4034  0.0716
 9036TIP3    H127065   0.822   1.885   6.739  0.7922  0.6414 -0.1998
 9036TIP3    H227066   0.690   1.928   6.678  0.1715 -0.7247  0.1541
 9037TIP3   OH227067   0.535   3.359   5.182  0.5589  0.5327 -0.0137
 9037TIP3    H127068   0.510   3.339   5.092 -0.8054 -2.7318  0.9584
 9037TIP3    H227069   0.631   3.364   5.179  0.4867  1.9302 -1.8291
 9038TIP3   OH227070   7.531   4.526   2.506 -0.0308  0.2849  0.3467
 9038TIP3    H127071   7.483   4.608   2.512  0.0615  0.3842 -0.1650
 9038TIP3    H227072   7.591   4.539   2.432  0.9639  0.2629  1.1258
 9039TIP3   OH227073   6.367   5.324   1.582  0.4094 -0.0704  0.0023
 9039TIP3    H127074   6.425   5.260   1.542 -0.4627 -0.3418 -0.8688
 9039TIP3    H227075   6.309   5.352   1.511 -0.7742 -0.1042  0.9111
 9040TIP3   OH227076   2.727   0.448   6.429  0.6043 -0.0004 -0.0794
 9040TIP3    H127077   2.696   0.431   6.339  2.1095 -0.4255 -0.5444
 9040TIP3    H227078   2.662   0.404   6.484  1.0436 -2.0307 -1.0672
 9041TIP3   OH227079   3.189   4.828   5.042  0.4229  0.2471 -0.3704
 9041TIP3    H127080   3.264   4.829   4.982  0.4511  0.5818 -0.3291
 9041TIP3    H227081   3.223   4.784   5.120  0.9258  1.4344  0.0968
 9042TIP3   OH227082   7.745   0.387   3.945 -0.2771  0.2229  0.5830
 9042TIP3    H127083   7.652   0.369   3.931  0.3773 -2.1421 -1.2343
 9042TIP3    H227084   7.772   0.324   4.012  0.1612  0.4462  0.6228
 9043TIP3   OH227085   5.238   0.639   0.577  0.1493  0.7603  0.4344
 9043TIP3    H127086   5.175   0.571   0.601 -0.0970  0.2317 -1.5407
 9043TIP3    H227087   5.260   0.681   0.660 -1.8075  0.1081  1.3554
 9044TIP3   OH227088   6.128   6.114   5.558 -0.4789 -0.1059 -0.3026
 9044TIP3    H127089   6.181   6.129   5.480 -0.9069 -0.5557 -0.6861
 9044TIP3    H227090   6.105   6.202   5.589 -1.4323  0.0734 -1.4632
 9045TIP3   OH227091   1.315   6.154   1.638 -0.0760 -0.2443 -0.1330
 9045TIP3    H127092   1.390   6.212   1.631 -0.1116 -0.3445 -1.5060
 9045TIP3    H227093   1.274   6.178   1.721  0.7829  0.6258  0.0548
 9046TIP3   OH227094   4.828   0.837   6.261 -0.0888 -0.5183 -0.1007
 9046TIP3    H127095   4.782   0.769   6.312  0.5652 -0.3297  0.7637
 9046TIP3    H227096   4.916   0.838   6.297  0.0665  0.4180 -0.4813
 9047TIP3   OH227097   4.920   6.301   1.271  0.3133  0.0314 -0.1261
 9047TIP3    H127098   4.903   6.250   1.351 -1.1388  1.4231  0.5157
 9047TIP3    H227099   5.015   6.303   1.264  0.4411 -1.5255  0.6135
 9048TIP3   OH227100   0.856   2.647   3.158  0.0503  0.0421  0.2489
 9048TIP3    H127101   0.939   2.610   3.187  2.1220  3.2412 -1.1173
 9048TIP3    H227102   0.876   2.688   3.074 -2.7782  1.4711  0.1627
 9049TIP3   OH227103   7.774   4.238   0.940  0.9376 -0.1621  0.2601
 9049TIP3    H127104   7.698   4.279   0.900  2.2651  2.7959  0.5393
 9049TIP3    H227105   7.750   4.146   0.950 -2.6774  0.7021  0.6073
 9050TIP3   OH227106   2.815   0.131   2.710 -0.2591 -0.0102  0.3338
 9050TIP3    H127107   2.755   0.182   2.764  0.3502  0.5479  0.5035
 9050TIP3    H227108   2.864   0.077   2.773 -0.1889 -0.0425  0.2516
 9051TIP3   OH227109   2.075   5.362   0.581  0.0207  0.2184 -0.0495
 9051TIP3    H127110   2.005   5.394   0.638 -0.0357  0.6234 -0.3404
 9051TIP3    H227111   2.045   5.382   0.493  0.2270 -0.1659 -0.2102
 9052TIP3   OH227112   6.024   6.405   1.383 -0.0187 -0.1264  0.3317
 9052TIP3    H127113   6.095   6.434   1.439  0.4565  2.7832 -1.5264
 9052TIP3    H227114   5.945   6.433   1.427  0.1487 -0.6384  0.9680
 9053TIP3   OH227115   4.957   7.447   4.487  0.3456  0.5367 -0.5096
 9053TIP3    H127116   4.871   7.474   4.456  1.2576  0.4471 -3.3211
 9053TIP3    H227117   5.016   7.519   4.464  1.2237  0.1278  0.3664
 9054TIP3   OH227118   2.482   0.728   5.647 -0.1742  0.2587  0.3613
 9054TIP3    H127119   2.518   0.666   5.583  1.8413  2.0623 -0.3903
 9054TIP3    H227120   2.400   0.688   5.675  0.2165 -1.9371 -1.2851
 9055TIP3   OH227121   0.449   3.878   2.524 -0.2134 -0.7516  0.2154
 9055TIP3    H127122   0.364   3.836   2.534 -0.4201 -0.4374 -0.2195
 9055TIP3    H227123   0.429   3.968   2.498  0.1701  0.0769  2.4926
 9056TIP3   OH227124   6.922   2.921   1.269 -0.3242  0.2074 -0.7006
 9056TIP3    H127125   6.944   2.835   1.307 -0.6676  0.4389  0.0330
 9056TIP3    H227126   6.843   2.905   1.218 -1.4899  0.4438  0.9445
 9057TIP3   OH227127   5.122   5.699   3.024 -0.0266 -0.3713 -0.4689
 9057TIP3    H127128   5.203   5.661   2.990  0.8117  2.0817 -1.4032
 9057TIP3    H227129   5.093   5.760   2.956 -0.6577  1.4656  1.3291
 9058TIP3   OH227130   2.604   3.404   4.678 -0.3178 -0.3221  0.5543
 9058TIP3    H127131   2.605   3.334   4.744  0.3030  1.3495  2.4242
 9058TIP3    H227132   2.665   3.374   4.611 -0.9103 -2.0582  0.7245
 9059TIP3   OH227133   7.113   3.206   0.715  0.1497  0.1541 -0.1864
 9059TIP3    H127134   7.041   3.157   0.754  1.6196 -1.7237  0.2780
 9059TIP3    H227135   7.160   3.243   0.789  0.5515  0.0776 -0.4015
 9060TIP3   OH227136   5.712   2.984   1.898  0.2955  0.1697 -0.0972
 9060TIP3    H127137   5.665   2.921   1.844 -1.7086  0.3156  1.3318
 9060TIP3    H227138   5.796   2.942   1.917  0.4273 -0.5117 -2.0153
 9061TIP3   OH227139   3.164   7.109   6.217 -0.1887 -0.0819  0.4879
 9061TIP3    H127140   3.225   7.126   6.290 -0.8763  1.3037  0.7889
 9061TIP3    H227141   3.220   7.107   6.139  0.2454  1.7426  0.6855
 9062TIP3   OH227142   3.419   6.216   2.045  0.0780  0.2075  0.0036
 9062TIP3    H127143   3.453   6.211   2.135  0.2171 -1.3292 -0.1123
 9062TIP3    H227144   3.498   6.225   1.991  0.3701 -2.8042 -0.2226
 9063TIP3   OH227145   7.750   0.902   1.625  0.2059  0.6328  0.1670
 9063TIP3    H127146   7.790   0.821   1.658  1.1646  0.3413 -1.5736
 9063TIP3    H227147   7.782   0.969   1.684  1.1638  0.0159  0.3859
 9064TIP3   OH227148   5.969   3.146   2.521 -0.1748 -0.0130  0.3217
 9064TIP3    H127149   6.023   3.208   2.472  0.0416 -0.9005 -0.5973
 9064TIP3    H227150   5.884   3.189   2.527  0.5147  1.2646  1.5157
 9065TIP3   OH227151   6.395   5.194   3.929 -0.8302 -0.0209 -0.4877
 9065TIP3    H127152   6.418   5.151   4.012 -0.2456 -0.1706 -0.7219
 9065TIP3    H227153   6.480   5.213   3.888 -1.0925  0.9681 -0.5861
 9066TIP3   OH227154   0.794   0.373   6.660 -0.0724  0.1026  0.3931
 9066TIP3    H127155   0.814   0.461   6.629  1.9683 -0.3437  0.2807
 9066TIP3    H227156   0.725   0.385   6.724 -1.7108  1.4725 -1.4946
 9067TIP3   OH227157   2.157   6.768   3.536 -0.6221  0.7434  0.2801
 9067TIP3    H127158   2.169   6.674   3.522 -1.0461  0.8760 -1.2171
 9067TIP3    H227159   2.245   6.805   3.530 -0.3450  0.3652  1.7342
 9068TIP3   OH227160   4.233   2.670   2.912 -0.2271 -0.1156  0.3237
 9068TIP3    H127161   4.181   2.695   2.836 -0.1956  0.1659  0.3898
 9068TIP3    H227162   4.181   2.604   2.957  0.3510 -1.2595 -0.6512
 9069TIP3   OH227163   8.249   1.739   2.314  0.0258 -0.2664 -0.3797
 9069TIP3    H127164   8.314   1.669   2.314  1.2490  0.8233  0.0730
 9069TIP3    H227165   8.165   1.694   2.301  0.8283 -1.7336 -0.7229
 9070TIP3   OH227166   6.629   0.577   5.014 -0.5067 -0.0457 -0.1422
 9070TIP3    H127167   6.533   0.583   5.010 -0.3978  2.0119 -2.1692
 9070TIP3    H227168   6.658   0.606   4.928  2.0435  3.4457  1.6357
 9071TIP3   OH227169   8.261   3.070   4.670 -0.4939 -0.0986  0.3951
 9071TIP3    H127170   8.302   3.114   4.596  1.7090 -1.8008  0.5035
 9071TIP3    H227171   8.195   3.012   4.631  0.2434 -0.5464 -0.2056
 9072TIP3   OH227172   0.122   4.791   5.598 -0.1322  0.1273 -0.2566
 9072TIP3    H127173   0.135   4.877   5.559 -0.4649 -0.4443 -1.6911
 9072TIP3    H227174   0.042   4.758   5.559 -0.7376 -0.3139  1.2688
 9073TIP3   OH227175   2.770   5.557   1.340 -0.0030  0.2337 -0.3412
 9073TIP3    H127176   2.796   5.553   1.248 -1.3944  1.4528 -0.8393
 9073TIP3    H227177   2.771   5.650   1.361 -2.3768  0.2556 -0.0036
 9074TIP3   OH227178   7.181   7.575   0.492  0.1057 -0.2742  0.2769
 9074TIP3    H127179   7.201   7.597   0.401 -0.1929 -0.1545  0.2397
 9074TIP3    H227180   7.122   7.645   0.521  1.4038  0.5391  1.0355
 9075TIP3   OH227181   7.115   4.151   5.787 -0.0234 -0.0460 -0.2074
 9075TIP3    H127182   7.168   4.071   5.789 -0.6793 -0.5239  2.3885
 9075TIP3    H227183   7.176   4.221   5.767  1.0209 -0.9247 -0.1556
 9076TIP3   OH227184   5.802   1.884   5.802 -0.9508 -0.2218  0.0363
 9076TIP3    H127185   5.814   1.962   5.856 -0.2591 -0.3718  0.1046
 9076TIP3    H227186   5.836   1.908   5.716  1.3378 -1.1252  0.6235
 9077TIP3   OH227187   8.080   7.578   4.557  0.1912 -0.4209  0.0304
 9077TIP3    H127188   7.987   7.561   4.539 -0.2093 -0.4593  1.9645
 9077TIP3    H227189   8.083   7.602   4.649  2.2499 -1.6455  0.3565
 9078TIP3   OH227190   3.908   1.250   3.435 -0.2198  0.0537  0.2122
 9078TIP3    H127191   3.899   1.167   3.482  0.0386  0.7788  1.5918
 9078TIP3    H227192   3.947   1.226   3.351  1.5607 -1.0460  1.2820
 9079TIP3   OH227193   2.913   2.013   4.569  0.3106  0.4270 -0.1445
 9079TIP3    H127194   2.852   2.083   4.590 -1.2327 -0.8817  0.0132
 9079TIP3    H227195   2.973   2.009   4.643  0.0369  1.1603  0.1187
 9080TIP3   OH227196   2.136   4.415   3.144 -0.2508 -0.4175  0.0962
 9080TIP3    H127197   2.045   4.397   3.166 -0.0785  0.2215  1.4680
 9080TIP3    H227198   2.185   4.344   3.186 -0.0206  0.0768  0.6879
 9081TIP3   OH227199   6.089   4.004   6.634  0.1300 -0.3983  0.2896
 9081TIP3    H127200   6.144   4.077   6.660 -1.1262  0.2820  1.1256
 9081TIP3    H227201   6.072   3.956   6.715  0.5366 -1.3390 -0.1681
 9082TIP3   OH227202   5.141   1.557   6.045 -0.8482  0.1056 -0.0550
 9082TIP3    H127203   5.204   1.616   6.003 -0.9337  0.2624  0.0376
 9082TIP3    H227204   5.148   1.575   6.138  0.1627 -1.0441  0.1159
 9083TIP3   OH227205   7.591   5.867   5.448  0.0727 -0.0341 -0.2168
 9083TIP3    H127206   7.640   5.786   5.434  0.3671  0.1895 -0.5161
 9083TIP3    H227207   7.596   5.912   5.363 -0.6246  0.0058 -0.2409
 9084TIP3   OH227208   5.425   6.214   2.254 -0.3138 -0.3249  0.3560
 9084TIP3    H127209   5.375   6.198   2.334 -0.7537  0.0319  0.1561
 9084TIP3    H227210   5.505   6.162   2.265 -0.3164 -0.1882  1.0758
 9085TIP3   OH227211   7.051   5.772   4.416 -0.2685 -0.1289  0.1392
 9085TIP3    H127212   7.060   5.823   4.336 -0.0578  1.0056  0.8619
 9085TIP3    H227213   7.069   5.682   4.389 -0.2292  0.2252 -1.0837
 9086TIP3   OH227214   1.665   4.027   3.727 -0.0212 -0.1653 -1.1293
 9086TIP3    H127215   1.626   4.023   3.640 -3.4240  3.0613 -0.0040
 9086TIP3    H227216   1.709   4.112   3.729 -2.3434  1.1131  1.0075
 9087TIP3   OH227217   2.277   7.468   1.001 -0.3570  0.5877 -0.0579
 9087TIP3    H127218   2.334   7.486   1.075  0.6811  0.2296 -0.7525
 9087TIP3    H227219   2.214   7.404   1.033  1.2023 -0.9645  0.0347
 9088TIP3   OH227220   2.237   7.296   3.062 -0.3045  0.2484 -0.1189
 9088TIP3    H127221   2.289   7.374   3.084 -0.3822 -0.1479  1.6054
 9088TIP3    H227222   2.157   7.306   3.112 -0.6428 -0.5946 -0.4705
 9089TIP3   OH227223   4.504   2.223   3.174 -0.0568 -0.3968  0.0151
 9089TIP3    H127224   4.568   2.267   3.117  0.5858 -0.5301  0.6225
 9089TIP3    H227225   4.537   2.134   3.181 -0.3748 -0.4944  0.2510
 9090TIP3   OH227226   5.944   2.165   4.751  0.2235  0.5327  0.5099
 9090TIP3    H127227   5.908   2.158   4.663 -0.1709 -0.6637  0.7424
 9090TIP3    H227228   6.034   2.132   4.742  0.0632  0.0590  0.6191
 9091TIP3   OH227229   1.690   5.942   2.723  0.4626 -0.3306  0.0256
 9091TIP3    H127230   1.728   5.854   2.714  3.4010  0.9040 -0.8725
 9091TIP3    H227231   1.753   5.990   2.776 -0.3466  1.6316 -0.7047
 9092TIP3   OH227232   3.531   3.762   4.501  0.3487  0.0191 -0.0111
 9092TIP3    H127233   3.590   3.689   4.482  1.7702  1.0840  0.1484
 9092TIP3    H227234   3.524   3.810   4.418 -0.9788 -0.5458 -0.2521
 9093TIP3   OH227235   4.415   1.120   5.645 -0.1581  0.1242 -0.1533
 9093TIP3    H127236   4.326   1.084   5.651 -0.0197 -0.0138  2.2638
 9093TIP3    H227237   4.418   1.186   5.715  1.4662  0.5327 -0.5742
 9094TIP3   OH227238   6.216   0.346   1.673  0.4469  0.1322 -0.2011
 9094TIP3    H127239   6.157   0.401   1.622 -0.1658 -0.9233 -0.6843
 9094TIP3    H227240   6.164   0.268   1.692  1.6592 -0.8036 -0.5842
 9095TIP3   OH227241   2.236   2.705   3.201 -0.3569 -0.4408  0.0590
 9095TIP3    H127242   2.217   2.611   3.206  0.2482 -0.5994 -0.4639
 9095TIP3    H227243   2.267   2.718   3.112 -0.5035  0.2717  0.1103
 9096TIP3   OH227244   0.519   0.383   5.183 -0.4294 -0.3409  0.3619
 9096TIP3    H127245   0.453   0.324   5.148  0.1620 -1.8479  1.6722
 9096TIP3    H227246   0.570   0.329   5.243  1.6782  0.9164 -0.2206
 9097TIP3   OH227247   4.652   7.225   0.341 -0.1760 -0.0705 -0.3257
 9097TIP3    H127248   4.645   7.317   0.315 -1.6964 -0.3916 -1.1963
 9097TIP3    H227249   4.744   7.214   0.367  0.0489  1.6603 -0.2798
 9098TIP3   OH227250   4.896   0.410   4.761 -0.2667  0.1980 -0.1824
 9098TIP3    H127251   4.875   0.328   4.716  1.6070 -1.0866  1.1415
 9098TIP3    H227252   4.881   0.478   4.695 -0.5925 -1.3217 -1.7430
 9099TIP3   OH227253   7.214   4.053   4.439  0.2699  0.1656 -0.2078
 9099TIP3    H127254   7.214   4.147   4.422 -0.5806  0.2313  0.1076
 9099TIP3    H227255   7.282   4.018   4.381  0.2305  0.9026 -0.7118
 9100TIP3   OH227256   4.574   1.151   3.256 -0.6282 -0.1053  0.3151
 9100TIP3    H127257   4.550   1.132   3.347  0.2090  2.3870  1.1350
 9100TIP3    H227258   4.620   1.073   3.227 -1.4103 -1.1915  1.8364
 9101TIP3   OH227259   3.590   1.630   1.245  0.0682  0.0511  0.3312
 9101TIP3    H127260   3.626   1.701   1.191 -0.0179  0.1693  0.4294
 9101TIP3    H227261   3.650   1.624   1.320 -0.6490  0.8976  0.9920
 9102TIP3   OH227262   3.508   6.410   6.001 -0.0014 -0.2686  0.6312
 9102TIP3    H127263   3.588   6.377   6.041  1.6741  0.9726 -1.4819
 9102TIP3    H227264   3.538   6.466   5.930 -2.7365  1.9805  1.0769
 9103TIP3   OH227265   3.015   2.935   6.780 -0.9056 -0.3319 -0.1396
 9103TIP3    H127266   3.049   2.883   6.707  0.7501 -0.2593  0.5573
 9103TIP3    H227267   2.928   2.897   6.797  0.2111 -2.9109  0.3345
 9104TIP3   OH227268   0.160   0.268   2.188  0.3772  1.1883  0.2792
 9104TIP3    H127269   0.111   0.312   2.119 -1.3181 -0.3349  0.4374
 9104TIP3    H227270   0.252   0.287   2.168 -0.1747  2.8005 -0.9609
 9105TIP3   OH227271   5.231   2.404   3.547  0.3007 -0.2239  0.1597
 9105TIP3    H127272   5.194   2.479   3.501 -0.5520  0.3769  1.7491
 9105TIP3    H227273   5.165   2.336   3.539  0.8948 -0.6948 -0.9262
 9106TIP3   OH227274   5.744   2.942   1.582  0.4588  0.4080  0.6156
 9106TIP3    H127275   5.772   2.851   1.592  0.6934  0.4625  0.4478
 9106TIP3    H227276   5.811   2.994   1.626  0.9219  0.5740 -0.2561
 9107TIP3   OH227277   6.579   3.445   0.717 -0.2592 -0.1961 -0.3385
 9107TIP3    H127278   6.498   3.412   0.755  0.5243 -1.3470  0.4231
 9107TIP3    H227279   6.587   3.534   0.751  0.2679 -1.0786  2.0634
 9108TIP3   OH227280   3.055   6.688   2.937 -0.1758 -0.1927 -0.6989
 9108TIP3    H127281   3.098   6.746   3.000  0.3286 -0.1380 -1.0835
 9108TIP3    H227282   3.092   6.602   2.955  1.7377  0.1938 -2.4055
 9109TIP3   OH227283   4.230   4.099   2.410 -0.4514  0.4820 -0.2770
 9109TIP3    H127284   4.224   4.171   2.347  0.4185 -0.1638 -1.1170
 9109TIP3    H227285   4.242   4.021   2.356 -0.9234 -0.2475  0.6448
 9110TIP3   OH227286   5.641   0.336   6.512  0.2113  0.0764 -0.0701
 9110TIP3    H127287   5.547   0.343   6.528  0.4066  0.5202  1.0332
 9110TIP3    H227288   5.674   0.282   6.584  1.0788  1.7086  0.8407
 9111TIP3   OH227289   3.583   3.961   4.684  0.4652  0.7116 -0.5734
 9111TIP3    H127290   3.560   3.898   4.616 -1.1742  0.8540 -0.1841
 9111TIP3    H227291   3.549   3.923   4.765  1.5693  0.9893  0.0460
 9112TIP3   OH227292   3.152   5.876   0.049  0.1891  0.0107  0.5087
 9112TIP3    H127293   3.203   5.927  -0.014  1.0983 -0.7935  0.5744
 9112TIP3    H227294   3.153   5.787   0.014 -1.4071  0.0101  0.3785
 9113TIP3   OH227295   1.389   6.984   1.912  0.0831  0.6038 -0.7297
 9113TIP3    H127296   1.314   7.026   1.955 -0.3719  0.0937 -1.0135
 9113TIP3    H227297   1.366   6.985   1.819  0.6681  0.9087 -0.8727
 9114TIP3   OH227298   7.600   6.412   2.560  0.2999 -0.0450  0.0834
 9114TIP3    H127299   7.684   6.368   2.574  0.1672 -0.9499 -1.5909
 9114TIP3    H227300   7.618   6.504   2.574  1.3178 -0.3294  0.7648
 9115TIP3   OH227301   5.724   1.742   4.568  0.4724 -0.0277 -0.2812
 9115TIP3    H127302   5.716   1.697   4.652 -1.1969  0.1750 -0.3127
 9115TIP3    H227303   5.641   1.725   4.523 -0.9274  4.1853  0.2619
 9116TIP3   OH227304   2.552   4.737   0.772  0.2642  0.0804  0.2261
 9116TIP3    H127305   2.468   4.773   0.801 -0.2874 -0.0669 -1.0890
 9116TIP3    H227306   2.533   4.644   0.755  1.7070 -1.0149  3.7600
 9117TIP3   OH227307   3.461   6.369   1.642 -0.0191 -0.2279 -0.4274
 9117TIP3    H127308   3.509   6.331   1.716 -0.5280  0.0454  0.0446
 9117TIP3    H227309   3.399   6.301   1.616 -0.8134  0.2030  0.3094
 9118TIP3   OH227310   6.612   4.881   1.589 -0.2005  0.2364  0.1990
 9118TIP3    H127311   6.662   4.917   1.662 -0.4463  0.5428  0.2152
 9118TIP3    H227312   6.556   4.814   1.628  1.1901 -1.1181 -0.0084
 9119TIP3   OH227313   7.825   3.252   2.648 -0.2480 -0.4722  0.5568
 9119TIP3    H127314   7.847   3.255   2.741  2.0459 -2.4783  0.1999
 9119TIP3    H227315   7.860   3.335   2.613  0.4825 -0.4838  1.2200
 9120TIP3   OH227316   2.370   6.994   3.530 -0.0146  0.4461 -0.1165
 9120TIP3    H127317   2.420   7.075   3.521  0.5366  0.2452  1.0685
 9120TIP3    H227318   2.285   7.021   3.566 -0.3689  0.6496 -1.0696
 9121TIP3   OH227319   0.877   3.342   6.497  0.0185  0.0566  0.0978
 9121TIP3    H127320   0.970   3.332   6.475 -0.4444  0.7544 -2.5316
 9121TIP3    H227321   0.834   3.266   6.457 -0.5280 -0.4495  1.6046
 9122TIP3   OH227322   2.484   1.180   3.377  0.6269 -0.7018 -0.1530
 9122TIP3    H127323   2.503   1.248   3.313  2.1847 -1.5260 -0.6246
 9122TIP3    H227324   2.504   1.221   3.462  2.7471 -0.8701 -0.5002
 9123TIP3   OH227325   6.677   7.706   0.854 -0.5704 -0.0762 -0.3161
 9123TIP3    H127326   6.637   7.789   0.826 -0.2646  0.1232 -0.1591
 9123TIP3    H227327   6.690   7.657   0.773  2.5365  1.4603 -0.8622
 9124TIP3   OH227328   4.737   7.330   1.103 -0.3108 -0.1022 -0.7543
 9124TIP3    H127329   4.757   7.359   1.192 -1.5280 -0.6829 -0.2711
 9124TIP3    H227330   4.672   7.261   1.114  0.7423 -1.3718 -2.0171
 9125TIP3   OH227331   0.540   0.368   1.206  0.1407  0.1697 -0.1424
 9125TIP3    H127332   0.586   0.419   1.139 -0.2795 -0.4606 -0.9349
 9125TIP3    H227333   0.447   0.379   1.184 -0.0156  0.1842  0.5158
 9126TIP3   OH227334   7.154   2.935   3.669 -0.0329 -0.4537 -0.2690
 9126TIP3    H127335   7.216   2.932   3.597 -0.8306  0.3316 -1.0185
 9126TIP3    H227336   7.190   3.000   3.729  0.0025 -0.1771 -0.5865
 9127TIP3   OH227337   0.688   4.816   0.061  0.5382  0.1985  0.0152
 9127TIP3    H127338   0.686   4.907   0.032  1.3549  0.2034 -0.0267
 9127TIP3    H227339   0.774   4.804   0.101 -0.0024 -0.2285  1.0930
 9128TIP3   OH227340   4.268   3.434   4.449 -0.4272  0.0363 -0.1122
 9128TIP3    H127341   4.340   3.495   4.466  0.1445 -0.4524 -0.7283
 9128TIP3    H227342   4.310   3.358   4.410 -1.1516 -0.7053  0.5285
 9129TIP3   OH227343   1.152   7.747   2.838 -0.1413 -0.0132  0.5569
 9129TIP3    H127344   1.125   7.709   2.754 -0.4640  0.6263  0.3634
 9129TIP3    H227345   1.154   7.673   2.898 -0.9522 -0.3072  0.2397
 9130TIP3   OH227346   7.892   5.003   5.769  0.4320 -0.2324  0.5363
 9130TIP3    H127347   7.984   5.003   5.742  0.4000  0.5189  0.4175
 9130TIP3    H227348   7.895   4.978   5.861  0.7347 -0.4029  0.4851
 9131TIP3   OH227349   6.332   5.403   0.284  0.3047  0.5227 -0.2378
 9131TIP3    H127350   6.334   5.440   0.372  1.1226  1.0415 -0.4579
 9131TIP3    H227351   6.400   5.451   0.236 -0.7564  0.9257 -1.4183
 9132TIP3   OH227352   8.073   2.937   0.934  0.4406  0.3222  0.0601
 9132TIP3    H127353   8.020   2.897   0.866  0.0046  1.2561 -0.1665
 9132TIP3    H227354   8.069   2.875   1.007  1.5236 -1.0498 -0.9888
 9133TIP3   OH227355   1.747   5.894   0.180 -0.5466 -0.5215  0.2373
 9133TIP3    H127356   1.668   5.870   0.229 -2.3249 -0.1540 -2.2310
 9133TIP3    H227357   1.770   5.981   0.213 -0.3393 -1.1975  1.9334
 9134TIP3   OH227358   4.333   5.173   2.758 -0.6866 -0.0357 -0.3436
 9134TIP3    H127359   4.348   5.199   2.667 -2.0982 -0.5932 -0.7563
 9134TIP3    H227360   4.242   5.197   2.775 -0.8899 -1.2991  0.4426
 9135TIP3   OH227361   7.601   7.696   0.607  0.0241  0.2464  0.1107
 9135TIP3    H127362   7.667   7.706   0.538  0.2984  1.2318  0.4836
 9135TIP3    H227363   7.562   7.611   0.592 -0.5265  0.7970 -1.7842
 9136TIP3   OH227364   5.462   6.728   6.099  0.5948  0.0598  0.5324
 9136TIP3    H127365   5.499   6.648   6.062  0.8483  0.5948 -0.3913
 9136TIP3    H227366   5.499   6.799   6.046 -0.1228  0.7507  0.9323
 9137TIP3   OH227367   7.429   2.805   0.905  0.0664  0.4380  0.2725
 9137TIP3    H127368   7.375   2.790   0.982 -0.7615 -0.6801 -0.4910
 9137TIP3    H227369   7.386   2.755   0.835 -0.3617  2.9617 -1.4362
 9138TIP3   OH227370   3.281   3.265   3.134  0.4191 -0.3190 -0.8051
 9138TIP3    H127371   3.316   3.181   3.103 -0.2906 -1.3435  1.0025
 9138TIP3    H227372   3.192   3.244   3.163  0.9369  0.5371  1.6433
 9139TIP3   OH227373   4.609   3.834   5.000 -0.0294  0.3548  0.2746
 9139TIP3    H127374   4.697   3.802   5.018 -0.2358 -0.9007 -0.7955
 9139TIP3    H227375   4.616   3.878   4.916 -0.5978 -0.6204 -0.3031
 9140TIP3   OH227376   3.400   5.388   0.031  0.3388 -0.2767 -0.1308
 9140TIP3    H127377   3.390   5.378   0.126 -0.3226  0.1359 -0.1543
 9140TIP3    H227378   3.488   5.356   0.013  0.4942 -0.2967  0.6363
 9141TIP3   OH227379   1.889   5.485   0.756 -0.4738  0.1188  0.0784
 9141TIP3    H127380   1.794   5.482   0.744 -0.4215  2.1439 -1.2187
 9141TIP3    H227381   1.901   5.482   0.851 -1.8550  0.4126  0.2822
 9142TIP3   OH227382   1.452   3.575   6.718 -0.1974  0.3761 -0.2860
 9142TIP3    H127383   1.369   3.557   6.763 -0.4377  0.7959 -0.5603
 9142TIP3    H227384   1.519   3.560   6.785 -0.4309 -0.8817 -0.3156
 9143TIP3   OH227385   7.968   5.043   0.802  0.1250  0.0553 -0.3074
 9143TIP3    H127386   8.038   4.989   0.837  0.0875  0.4977  0.4824
 9143TIP3    H227387   7.976   5.126   0.849 -0.0931  0.5855 -1.1771
 9144TIP3   OH227388   5.716   4.714   1.915 -0.2829 -0.6397  0.4102
 9144TIP3    H127389   5.703   4.679   1.828 -0.9566 -0.2769  0.3558
 9144TIP3    H227390   5.752   4.802   1.901 -0.2144 -0.6533  0.4983
 9145TIP3   OH227391   3.251   0.720   3.180  0.4957  0.0893  0.4339
 9145TIP3    H127392   3.268   0.686   3.091 -0.8844  1.1644 -0.2702
 9145TIP3    H227393   3.226   0.811   3.167 -0.6351  0.0133  1.8495
 9146TIP3   OH227394   6.073   1.433   4.798  0.2971 -0.5003 -0.5342
 9146TIP3    H127395   6.029   1.511   4.766  0.0701 -0.5213 -0.2798
 9146TIP3    H227396   6.124   1.402   4.724 -1.9526 -1.8348 -1.6375
 9147TIP3   OH227397   4.835   4.122   3.947 -0.6549 -0.3339  0.0740
 9147TIP3    H127398   4.779   4.102   4.021  0.5934 -0.8279  0.9109
 9147TIP3    H227399   4.908   4.172   3.984 -0.7579  0.7178 -1.0626
 9148TIP3   OH227400   5.672   0.192   1.267  0.9241 -0.3047  0.0477
 9148TIP3    H127401   5.716   0.151   1.341 -0.1702  0.5983  1.2435
 9148TIP3    H227402   5.689   0.133   1.193  4.9711  0.4980  0.1365
 9149TIP3   OH227403   0.236   3.706   2.505  0.3671  0.0077 -0.2472
 9149TIP3    H127404   0.264   3.690   2.415  2.0815  2.2912 -0.2128
 9149TIP3    H227405   0.273   3.634   2.555  1.1799 -0.1606 -1.0699
 9150TIP3   OH227406   4.618   6.607   5.861 -0.1845 -0.1046 -0.0816
 9150TIP3    H127407   4.706   6.631   5.889 -0.5555 -0.0525  1.1093
 9150TIP3    H227408   4.592   6.678   5.802  0.5353 -0.0805 -0.3799
 9151TIP3   OH227409   5.569   1.580   5.451 -0.0177  0.1239 -0.5105
 9151TIP3    H127410   5.574   1.669   5.486  0.2924 -0.1917  0.3023
 9151TIP3    H227411   5.495   1.581   5.391  1.7500  1.6984 -2.8247
 9152TIP3   OH227412   5.704   7.413   5.872  0.1051 -0.2760  0.4516
 9152TIP3    H127413   5.710   7.504   5.841 -0.1957 -0.9336 -1.7112
 9152TIP3    H227414   5.751   7.413   5.955  0.8714  1.6743  0.0743
 9153TIP3   OH227415   2.650   7.088   5.106  0.7250 -0.0512  0.1299
 9153TIP3    H127416   2.725   7.030   5.092 -0.1101 -0.8461 -1.2362
 9153TIP3    H227417   2.596   7.042   5.170 -0.1429 -1.0288 -1.2607
 9154TIP3   OH227418   1.791   1.394   1.872  0.3887 -0.1313 -1.0856
 9154TIP3    H127419   1.823   1.342   1.798  2.1480  0.1346 -0.5598
 9154TIP3    H227420   1.854   1.377   1.942  0.7580  2.3360 -0.7404
 9155TIP3   OH227421   6.863   1.723   1.451 -0.0782 -0.6283  0.3071
 9155TIP3    H127422   6.857   1.680   1.536 -0.3610 -1.1177  0.0476
 9155TIP3    H227423   6.812   1.804   1.461  0.3101 -0.4346  0.7466
 9156TIP3   OH227424   4.068   1.970   5.131  0.0647  0.2250  0.3822
 9156TIP3    H127425   4.068   1.948   5.225  0.4289 -0.4999  0.2216
 9156TIP3    H227426   4.067   2.066   5.129  0.0484  0.2507  1.1285
 9157TIP3   OH227427   6.516   1.556   4.404  0.1237 -0.4690 -0.1430
 9157TIP3    H127428   6.486   1.628   4.348 -0.7928 -0.2753  0.5727
 9157TIP3    H227429   6.452   1.552   4.474  2.2510  0.6248  2.0432
 9158TIP3   OH227430   5.299   2.101   0.830 -0.0016 -0.3397 -0.4633
 9158TIP3    H127431   5.331   2.112   0.741  0.0005 -2.4246 -0.7663
 9158TIP3    H227432   5.377   2.086   0.882 -0.1670 -1.5330 -0.5394
 9159TIP3   OH227433   8.053   6.348   4.967  0.5004  0.0485 -0.5789
 9159TIP3    H127434   8.070   6.254   4.971 -0.2001 -0.0373  0.4775
 9159TIP3    H227435   7.963   6.355   4.935  0.1749  0.3233  0.3765
 9160TIP3   OH227436   4.248   0.158   1.385 -0.1823 -0.3343  0.2115
 9160TIP3    H127437   4.206   0.243   1.373 -2.5341 -1.3041  0.8467
 9160TIP3    H227438   4.247   0.118   1.298 -1.4360 -0.6770  0.3649
 9161TIP3   OH227439   3.836   1.892   0.274  0.1283  0.2874 -0.2530
 9161TIP3    H127440   3.837   1.971   0.221 -0.6548  0.4161 -0.0975
 9161TIP3    H227441   3.743   1.876   0.292  0.2454 -0.8601 -0.5678
 9162TIP3   OH227442   6.725   3.263   5.360  0.1411 -0.3432  0.0002
 9162TIP3    H127443   6.753   3.263   5.268 -0.3418 -0.8355 -0.1551
 9162TIP3    H227444   6.798   3.224   5.407  1.8072  2.8229  0.3137
 9163TIP3   OH227445   7.469   1.373   1.211 -0.3506  0.2788  0.2500
 9163TIP3    H127446   7.478   1.280   1.193 -1.5974  0.0178  0.8230
 9163TIP3    H227447   7.511   1.416   1.137 -1.1062 -0.7452 -0.8195
 9164TIP3   OH227448   3.971   5.708   5.602  0.5432  0.4238 -0.2290
 9164TIP3    H127449   4.012   5.632   5.560 -0.0696 -0.1777  0.2408
 9164TIP3    H227450   3.918   5.748   5.532 -1.3927 -1.2342  0.1775
 9165TIP3   OH227451   2.272   0.577   1.716  0.4006  0.2341  0.3829
 9165TIP3    H127452   2.343   0.534   1.670 -0.2290 -1.6719  1.1023
 9165TIP3    H227453   2.202   0.512   1.719 -1.0397  1.7156  0.5301
 9166TIP3   OH227454   6.321   2.631   1.993 -0.6488  0.5027  0.1864
 9166TIP3    H127455   6.256   2.676   1.939 -0.7986 -1.0057 -0.9895
 9166TIP3    H227456   6.368   2.575   1.931  0.5536  0.1992  1.3198
 9167TIP3   OH227457   2.122   2.980   6.382 -0.1976 -0.5364  0.2379
 9167TIP3    H127458   2.138   3.014   6.470  0.3947  1.4331 -0.5784
 9167TIP3    H227459   2.063   3.044   6.342  0.6562 -0.6414 -1.2499
 9168TIP3   OH227460   3.257   3.170   1.860  1.3907  0.0340  0.6620
 9168TIP3    H127461   3.165   3.185   1.840  1.8690  0.6339 -1.3184
 9168TIP3    H227462   3.267   3.197   1.951 -0.5802 -1.0271  1.2436
 9169TIP3   OH227463   6.832   4.039   1.675 -0.2964  0.1737  0.2061
 9169TIP3    H127464   6.784   4.059   1.756  0.2114  0.8218  0.3567
 9169TIP3    H227465   6.905   3.983   1.703 -1.6080 -1.8378 -0.1899
 9170TIP3   OH227466   1.963   4.079   3.088  1.1254 -0.1304 -0.0743
 9170TIP3    H127467   1.971   4.106   2.997 -1.3047  2.1743  0.2572
 9170TIP3    H227468   2.012   4.145   3.137  1.4113 -0.6635  0.3676
 9171TIP3   OH227469   3.939   2.736   6.651  0.5717  0.1913 -0.0386
 9171TIP3    H127470   3.863   2.697   6.608  0.3613  0.5068  0.0514
 9171TIP3    H227471   3.980   2.790   6.583 -0.4506  1.6721  0.4885
 9172TIP3   OH227472   3.935   5.653   1.713  0.5524 -0.3932 -0.2278
 9172TIP3    H127473   4.008   5.606   1.674  1.9037  2.0147 -0.8514
 9172TIP3    H227474   3.971   5.692   1.792 -1.2068 -2.3493  1.6372
 9173TIP3   OH227475   5.972   3.442   3.152  0.1002 -0.4509  0.1027
 9173TIP3    H127476   5.884   3.437   3.190  0.7088 -0.3594  1.5660
 9173TIP3    H227477   5.956   3.466   3.060 -1.4044 -0.5796  0.2967
 9174TIP3   OH227478   3.247   2.314   0.749  0.5109 -0.6492  0.7149
 9174TIP3    H127479   3.203   2.232   0.771  1.3314 -0.5829  2.8277
 9174TIP3    H227480   3.177   2.379   0.747 -0.0568 -1.2655 -0.3479
 9175TIP3   OH227481   1.025   6.322   0.834 -0.1974  0.5000 -0.0594
 9175TIP3    H127482   0.958   6.256   0.814 -1.0138  1.2486  0.1604
 9175TIP3    H227483   1.020   6.332   0.929  2.8052 -2.1289  0.5684
 9176TIP3   OH227484   2.778   7.309   5.243  0.3499  0.1553 -0.7371
 9176TIP3    H127485   2.758   7.220   5.212  0.9022 -0.2363 -0.0086
 9176TIP3    H227486   2.798   7.298   5.336 -0.8773  1.2467 -0.3166
 9177TIP3   OH227487   1.915   6.255   2.243 -0.0606 -0.2723 -0.0216
 9177TIP3    H127488   1.966   6.175   2.256 -1.3165 -1.6616 -2.8107
 9177TIP3    H227489   1.825   6.229   2.260 -0.3933  0.7979 -0.0783
 9178TIP3   OH227490   5.672   0.921   4.401  0.3448 -0.4362  0.5256
 9178TIP3    H127491   5.626   0.909   4.485  0.2670  0.5837  0.6348
 9178TIP3    H227492   5.764   0.910   4.423  0.5132  1.7677  1.1640
 9179TIP3   OH227493   5.416   2.540   1.945  0.2449  0.3571 -0.3969
 9179TIP3    H127494   5.464   2.605   1.996  1.8711 -0.3010 -1.0261
 9179TIP3    H227495   5.354   2.502   2.008 -0.9371  2.6575 -0.1001
 9180TIP3   OH227496   3.244   3.721   3.259 -0.7262 -0.0447 -0.2437
 9180TIP3    H127497   3.178   3.774   3.213 -0.9190  0.4550  0.5918
 9180TIP3    H227498   3.197   3.645   3.292 -0.6271 -0.3033 -0.6822
 9181TIP3   OH227499   6.729   6.626   0.490 -0.1937 -0.1284  0.3791
 9181TIP3    H127500   6.812   6.643   0.446 -0.3332 -1.1966 -0.3386
 9181TIP3    H227501   6.746   6.644   0.582  0.0541  2.3336 -0.0823
 9182TIP3   OH227502   8.288   5.846   5.270 -1.2619 -0.3530 -0.6028
 9182TIP3    H127503   8.263   5.922   5.217 -1.2182  0.5488  0.6379
 9182TIP3    H227504   8.256   5.771   5.220 -1.9612  0.5100 -1.5004
 9183TIP3   OH227505   0.499   1.750   0.972  0.1329  1.0680 -0.3672
 9183TIP3    H127506   0.465   1.754   1.061 -2.1618  1.2497 -1.1655
 9183TIP3    H227507   0.500   1.841   0.943 -1.9866  0.8280 -1.4269
 9184TIP3   OH227508   4.194   3.184   0.778  0.1018  0.1760  0.5821
 9184TIP3    H127509   4.149   3.159   0.858  0.4680  1.5062  1.2372
 9184TIP3    H227510   4.127   3.225   0.724 -0.2319 -1.0680  0.0136
 9185TIP3   OH227511   6.645   5.997   6.525 -0.3632 -0.0485 -0.2568
 9185TIP3    H127512   6.579   6.013   6.592  0.5766  2.3053  0.1884
 9185TIP3    H227513   6.725   5.980   6.575  0.2819  1.4393 -0.7550
 9186TIP3   OH227514   1.613   7.768   1.514 -0.1049 -0.6642 -0.3627
 9186TIP3    H127515   1.565   7.834   1.464  1.0613  1.4006  1.1058
 9186TIP3    H227516   1.678   7.734   1.453  1.2361  1.7384 -0.3919
 9187TIP3   OH227517   2.800   4.853   1.154 -0.3825  0.5699  0.0395
 9187TIP3    H127518   2.770   4.879   1.067  1.0942  1.8151 -0.1446
 9187TIP3    H227519   2.747   4.905   1.214 -1.6389 -0.5374 -0.0733
 9188TIP3   OH227520   3.815   0.428   4.404 -0.0967 -0.1494 -0.0847
 9188TIP3    H127521   3.801   0.386   4.489  0.7474 -0.3939 -0.0605
 9188TIP3    H227522   3.896   0.478   4.415  0.0482 -0.2288 -0.7638
 9189TIP3   OH227523   3.276   4.781   1.181  0.5021  0.0930  0.0079
 9189TIP3    H127524   3.192   4.813   1.213  1.1553  0.5822  1.3095
 9189TIP3    H227525   3.254   4.724   1.108 -0.9370  0.4658  0.1274
 9190TIP3   OH227526   7.174   7.293   5.834  0.1843  0.5517 -0.1118
 9190TIP3    H127527   7.203   7.259   5.919  0.5384  0.4713 -0.2610
 9190TIP3    H227528   7.138   7.216   5.789 -0.4361  0.6877  0.1440
 9191TIP3   OH227529   3.433   2.550   0.699  0.4638 -0.0360  0.1082
 9191TIP3    H127530   3.419   2.557   0.793 -0.9453 -0.6704 -0.0275
 9191TIP3    H227531   3.509   2.493   0.690 -0.1817 -1.0476  0.8669
 9192TIP3   OH227532   3.053   5.290   1.055 -0.1373 -0.0051  0.1682
 9192TIP3    H127533   3.003   5.372   1.053  1.6405  1.1363  0.8462
 9192TIP3    H227534   3.144   5.317   1.049  0.4325 -2.0785 -1.5468
 9193TIP3   OH227535   3.297   5.554   4.506  0.1644  0.1228  0.2705
 9193TIP3    H127536   3.272   5.510   4.425  1.2386  1.7040 -0.9874
 9193TIP3    H227537   3.223   5.611   4.526  1.3012  2.4835 -1.7261
 9194TIP3   OH227538   2.811   3.779   1.060 -0.2734  0.4369 -0.4264
 9194TIP3    H127539   2.782   3.698   1.018  1.7021  0.9162 -3.0038
 9194TIP3    H227540   2.748   3.845   1.030 -0.0251  0.4076 -1.0364
 9195TIP3   OH227541   2.522   4.352   0.245 -0.3989  0.4122 -0.0173
 9195TIP3    H127542   2.590   4.398   0.195 -0.3728 -1.0718 -1.4574
 9195TIP3    H227543   2.446   4.351   0.186 -0.9661  0.1767  0.7067
 9196TIP3   OH227544   6.814   1.591   5.568 -0.2526 -0.5229 -0.1227
 9196TIP3    H127545   6.735   1.587   5.513 -0.6167  2.6417 -0.0391
 9196TIP3    H227546   6.886   1.572   5.508 -0.9404 -2.7547 -0.3549
 9197TIP3   OH227547   2.845   0.070   0.485 -0.2053  0.1225  0.5007
 9197TIP3    H127548   2.756   0.089   0.516 -0.9294 -2.6049  0.3928
 9197TIP3    H227549   2.831   0.016   0.407  1.4745 -1.8870  1.5012
 9198TIP3   OH227550   6.784   5.343   3.571  0.0792 -0.6322 -0.0062
 9198TIP3    H127551   6.761   5.317   3.482 -1.5900  2.6213 -0.7023
 9198TIP3    H227552   6.757   5.435   3.576  1.5360 -0.2529  3.3988
 9199TIP3   OH227553   2.564   7.219   6.202 -0.5206 -0.1807  0.3081
 9199TIP3    H127554   2.548   7.197   6.110 -0.8845 -3.7029  1.0496
 9199TIP3    H227555   2.480   7.201   6.246 -0.0222  0.2649  1.4919
 9200TIP3   OH227556   1.318   5.110   0.841  0.2843 -0.3290 -0.2578
 9200TIP3    H127557   1.343   5.025   0.879  4.0187  1.1609  1.1237
 9200TIP3    H227558   1.306   5.167   0.916 -1.0037  0.6767 -1.1967
 9201TIP3   OH227559   3.153   4.951   5.767 -0.8612  0.2205  0.2110
 9201TIP3    H127560   3.138   4.900   5.846  0.1379  1.1061  0.9910
 9201TIP3    H227561   3.159   4.885   5.697 -1.3348 -0.5927  0.9269
 9202TIP3   OH227562   6.145   1.145   1.671  0.4736 -0.1328 -0.0520
 9202TIP3    H127563   6.089   1.073   1.642  0.5911  0.3627 -1.5786
 9202TIP3    H227564   6.115   1.164   1.760 -1.5673 -0.1234 -0.6790
 9203TIP3   OH227565   0.511   4.610   6.437 -0.2834 -0.1197 -0.5620
 9203TIP3    H127566   0.539   4.557   6.361  1.7052  0.8762 -0.5785
 9203TIP3    H227567   0.490   4.696   6.400 -4.5394 -1.0068 -0.7004
 9204TIP3   OH227568   6.048   7.784   6.080 -0.6629  0.6625  0.4776
 9204TIP3    H127569   6.073   7.837   6.156 -1.3146  0.6091  0.7275
 9204TIP3    H227570   6.037   7.695   6.115  2.2321 -0.0882 -0.2406
 9205TIP3   OH227571   3.677   6.642   1.918  0.5230  0.5223  0.5370
 9205TIP3    H127572   3.607   6.670   1.859 -1.2693 -0.5395  2.0506
 9205TIP3    H227573   3.656   6.684   2.001  1.1083 -0.5890  1.2743
 9206TIP3   OH227574   1.163   2.036   4.401 -0.2792  0.1606 -0.0863
 9206TIP3    H127575   1.204   2.069   4.481  0.1666 -1.1561  0.2493
 9206TIP3    H227576   1.191   2.098   4.333 -1.9882  2.2772  0.9846
 9207TIP3   OH227577   7.636   6.433   3.349 -0.0418 -0.5094  0.7857
 9207TIP3    H127578   7.683   6.400   3.272  0.5640 -0.3406  1.0766
 9207TIP3    H227579   7.550   6.459   3.315  0.0042 -0.9905  0.2776
 9208TIP3   OH227580   4.520   0.691   1.086 -0.3074  0.2167  0.4909
 9208TIP3    H127581   4.569   0.716   1.163  0.9788 -0.8031  0.0344
 9208TIP3    H227582   4.434   0.732   1.098  0.4475  1.5465  1.5784
 9209TIP3   OH227583   7.886   4.997   4.243  0.0028 -0.4502  0.5505
 9209TIP3    H127584   7.981   4.997   4.244  0.0410 -2.4373  0.6025
 9209TIP3    H227585   7.861   4.909   4.270 -1.8800  0.2308  1.2543
 9210TIP3   OH227586   2.305   1.250   2.777 -0.0679 -0.1794  0.4768
 9210TIP3    H127587   2.271   1.193   2.846 -2.1335  0.2159 -0.1649
 9210TIP3    H227588   2.263   1.218   2.697  1.1136  0.3447 -0.3815
 9211TIP3   OH227589   3.988   5.475   3.719  0.0219 -0.1359  0.1410
 9211TIP3    H127590   4.074   5.487   3.759  0.9937 -0.3396 -1.7841
 9211TIP3    H227591   3.988   5.384   3.688 -0.4346  0.1907 -0.8568
 9212TIP3   OH227592   4.929   1.852   0.422 -0.6793  0.7894  0.0377
 9212TIP3    H127593   4.966   1.779   0.471  0.7514  0.8939 -0.8130
 9212TIP3    H227594   4.989   1.925   0.439 -0.2360  0.8710 -1.6743
 9213TIP3   OH227595   2.314   1.016   4.225  0.6423  0.2643  0.3372
 9213TIP3    H127596   2.403   0.982   4.235  0.1101 -1.2737  0.0431
 9213TIP3    H227597   2.313   1.053   4.137  0.2519 -2.1461 -0.7299
 9214TIP3   OH227598   1.411   5.729   6.287  0.3631 -0.0091  0.1971
 9214TIP3    H127599   1.358   5.802   6.257 -0.1801 -0.8308 -0.9234
 9214TIP3    H227600   1.492   5.768   6.317 -0.4702  1.1772  0.9681
 9215TIP3   OH227601   7.471   6.874   6.661 -0.4845  0.4441  0.2702
 9215TIP3    H127602   7.377   6.867   6.642 -0.5872  1.4597  0.3323
 9215TIP3    H227603   7.488   6.968   6.658  0.6006  0.2430 -0.0634
 9216TIP3   OH227604   6.517   3.064   1.163  0.2997 -0.5519  0.3770
 9216TIP3    H127605   6.438   3.092   1.208  0.0807 -0.8321  0.1701
 9216TIP3    H227606   6.530   3.130   1.095 -1.8884 -2.4324 -2.0701
 9217TIP3   OH227607   4.551   4.313   6.475 -0.1314 -0.2285 -0.5148
 9217TIP3    H127608   4.633   4.348   6.442 -1.1470  4.3931  1.0222
 9217TIP3    H227609   4.559   4.318   6.570 -2.0337  0.1455 -0.3159
 9218TIP3   OH227610   4.362   3.481   0.438  1.0416  0.3933 -0.0111
 9218TIP3    H127611   4.369   3.466   0.532 -0.0160  0.7342  0.1315
 9218TIP3    H227612   4.312   3.406   0.405  0.8550  0.5974 -0.1985
 9219TIP3   OH227613   2.967   3.347   3.118  0.0856 -0.3379  0.1200
 9219TIP3    H127614   2.887   3.342   3.170  0.2596  0.2975  0.4562
 9219TIP3    H227615   2.961   3.431   3.072  0.2315 -0.6056 -0.3989
 9220TIP3   OH227616   2.077   0.184   1.351 -0.3295 -0.3964  0.4741
 9220TIP3    H127617   2.014   0.180   1.422 -0.6198 -0.7974  0.1995
 9220TIP3    H227618   2.126   0.102   1.357  0.8778  0.3531  1.3178
 9221TIP3   OH227619   6.637   2.140   4.821 -0.1222 -0.5812 -0.6339
 9221TIP3    H127620   6.726   2.112   4.800  0.6723  1.9322 -0.8394
 9221TIP3    H227621   6.581   2.072   4.782  1.6453 -2.0078 -0.8195
 9222TIP3   OH227622   2.231   5.480   0.773  0.7816 -0.1480 -0.8908
 9222TIP3    H127623   2.151   5.466   0.722  0.2415 -1.8055  0.3088
 9222TIP3    H227624   2.236   5.403   0.830  1.4668  1.4644  1.3873
 9223TIP3   OH227625   5.132   3.362   6.129 -0.2437  0.5136  0.0250
 9223TIP3    H127626   5.089   3.322   6.205 -0.0427 -1.0808 -0.6507
 9223TIP3    H227627   5.060   3.402   6.080 -0.3120  1.9923  1.2705
 9224TIP3   OH227628   2.585   6.682   2.764 -0.0377 -0.4668  0.0727
 9224TIP3    H127629   2.529   6.758   2.748 -0.0371  0.0790  2.3220
 9224TIP3    H227630   2.662   6.717   2.809 -0.5705 -1.8814  2.2340
 9225TIP3   OH227631   7.165   7.592   1.988 -0.1278  0.3187  0.1512
 9225TIP3    H127632   7.146   7.568   2.079  1.6582  2.2773  1.1408
 9225TIP3    H227633   7.118   7.675   1.976  1.7927  1.4937  0.2805
 9226TIP3   OH227634   5.362   5.794   1.923  0.4623  0.3166 -0.2812
 9226TIP3    H127635   5.310   5.750   1.991  0.1856 -1.0137 -1.3022
 9226TIP3    H227636   5.452   5.789   1.955  0.1129  1.6809  0.9999
 9227TIP3   OH227637   5.557   7.765   6.539  0.0047 -0.1676 -0.0564
 9227TIP3    H127638   5.635   7.746   6.486  0.3041  1.2597 -0.1779
 9227TIP3    H227639   5.485   7.723   6.492  0.6210 -1.0908 -0.2048
 9228TIP3   OH227640   1.151   0.728   4.881  0.2864  0.2252  0.2643
 9228TIP3    H127641   1.240   0.721   4.914  0.4195  0.9384  0.0645
 9228TIP3    H227642   1.129   0.821   4.889 -0.2956  0.1205 -0.0494
 9229TIP3   OH227643   1.687   4.385   1.065 -0.1729  0.2404  0.4789
 9229TIP3    H127644   1.608   4.428   1.096  0.5520  0.4235  2.1695
 9229TIP3    H227645   1.669   4.292   1.073  0.1611  0.2791  1.9831
 9230TIP3   OH227646   2.241   0.824   1.591 -0.2745  0.0538 -0.6013
 9230TIP3    H127647   2.330   0.857   1.604 -0.9543  1.5471  0.5734
 9230TIP3    H227648   2.241   0.739   1.635  0.1439  0.7876  0.9174
 9231TIP3   OH227649   5.506   5.614   2.149 -0.3617  0.3269 -0.3931
 9231TIP3    H127650   5.548   5.601   2.064  1.6532 -2.5858  0.8796
 9231TIP3    H227651   5.419   5.576   2.140  0.1094 -0.6407 -0.9876
 9232TIP3   OH227652   3.930   2.366   0.407 -0.1184  0.2395  0.1707
 9232TIP3    H127653   3.920   2.389   0.315  0.6914  0.2979  0.0900
 9232TIP3    H227654   4.021   2.387   0.427 -0.3830  0.5692  1.0783
 9233TIP3   OH227655   0.197   0.164   1.179  0.7007  0.3024  0.3290
 9233TIP3    H127656   0.232   0.251   1.161 -0.8503  0.6108 -1.6325
 9233TIP3    H227657   0.181   0.126   1.092 -1.6526 -0.6285  1.0770
 9234TIP3   OH227658   3.984   4.551   3.972  0.0062  0.3024 -0.5294
 9234TIP3    H127659   4.065   4.510   3.940  0.2854 -0.9879  1.6407
 9234TIP3    H227660   3.930   4.478   4.002  0.2162  1.3431  2.8070
 9235TIP3   OH227661   1.554   0.121   1.276 -0.7566 -0.0302  0.1504
 9235TIP3    H127662   1.493   0.181   1.234 -0.1106  0.3427 -0.2687
 9235TIP3    H227663   1.630   0.118   1.217 -0.0324  0.1382  1.0572
 9236TIP3   OH227664   0.787   0.299   2.621 -0.4668 -0.1111  0.3474
 9236TIP3    H127665   0.706   0.273   2.577 -1.3975  0.8994  1.4004
 9236TIP3    H227666   0.760   0.369   2.681  1.0391 -0.3411  1.3362
 9237TIP3   OH227667   1.985   1.846   6.330 -0.4152  0.4240  0.3082
 9237TIP3    H127668   1.965   1.889   6.413  0.2205 -0.0397  0.7023
 9237TIP3    H227669   1.942   1.760   6.336 -0.3192  0.3663  0.1769
 9238TIP3   OH227670   4.944   0.545   3.575 -0.2526 -0.8116 -0.2283
 9238TIP3    H127671   4.968   0.504   3.658 -1.0666  2.0892  1.6167
 9238TIP3    H227672   4.852   0.523   3.563 -0.4053 -0.4364  0.2020
 9239TIP3   OH227673   0.424   6.059   0.351  0.3027 -0.8413  0.3040
 9239TIP3    H127674   0.465   6.099   0.427  0.3347  1.1011 -0.6766
 9239TIP3    H227675   0.383   5.979   0.385  1.1761 -0.5607  2.1270
 9240TIP3   OH227676   6.700   7.398   3.393 -0.4833 -0.5420 -0.2227
 9240TIP3    H127677   6.728   7.346   3.468  0.0455 -1.7474 -1.2078
 9240TIP3    H227678   6.605   7.402   3.401 -0.3039  1.8835  2.0773
 9241TIP3   OH227679   6.569   5.114   5.980 -0.4590 -0.3421 -0.0574
 9241TIP3    H127680   6.553   5.042   6.042  0.4644 -0.1958  0.3731
 9241TIP3    H227681   6.654   5.093   5.941 -0.6702 -0.0179 -0.6944
 9242TIP3   OH227682   4.582   4.983   2.758  0.2699 -0.1655 -0.4072
 9242TIP3    H127683   4.577   4.989   2.663  2.3474  1.7977 -0.4532
 9242TIP3    H227684   4.491   4.993   2.787 -0.4691 -1.3252 -2.1652
 9243TIP3   OH227685   1.489   1.622   4.220  0.1466  0.7129 -0.3155
 9243TIP3    H127686   1.502   1.563   4.294 -0.8138 -0.3192 -0.9296
 9243TIP3    H227687   1.414   1.676   4.246 -0.7127 -0.1901 -0.8103
 9244TIP3   OH227688   2.075   7.689   2.104  0.1778  0.3702 -0.1360
 9244TIP3    H127689   2.160   7.720   2.135  0.4461 -1.5343  1.2273
 9244TIP3    H227690   2.046   7.626   2.171 -2.3272  0.9575 -0.5423
 9245TIP3   OH227691   4.899   7.452   1.712  0.1342  0.0231  0.3592
 9245TIP3    H127692   4.811   7.413   1.707 -0.1047  0.6171 -0.2622
 9245TIP3    H227693   4.883   7.545   1.728  0.4493  0.8779 -3.3728
 9246TIP3   OH227694   7.734   5.111   6.625  0.0628 -0.4020 -0.2974
 9246TIP3    H127695   7.647   5.092   6.591  0.1527  1.1460 -1.4985
 9246TIP3    H227696   7.792   5.097   6.550  0.7569 -0.5919  0.2616
 9247TIP3   OH227697   8.047   3.580   3.677  0.4072 -0.0283  0.6608
 9247TIP3    H127698   8.091   3.556   3.596  1.8790 -0.2413  1.4882
 9247TIP3    H227699   8.102   3.544   3.746  0.5837  2.3096  1.8508
 9248TIP3   OH227700   2.621   4.143   3.874  0.2531 -0.6722 -0.0405
 9248TIP3    H127701   2.547   4.085   3.853  0.7022 -0.5125 -2.2650
 9248TIP3    H227702   2.586   4.202   3.941 -1.4996 -0.8892 -0.7021
 9249TIP3   OH227703   5.601   0.847   6.007 -0.0279  0.0611  0.1739
 9249TIP3    H127704   5.576   0.755   6.015 -1.0426  0.3829  0.9299
 9249TIP3    H227705   5.528   0.895   6.047 -0.5544  1.3228 -2.1505
 9250TIP3   OH227706   4.974   3.699   5.621  0.1807 -0.5948  0.7335
 9250TIP3    H127707   4.950   3.700   5.528  1.3281 -1.6547  0.4000
 9250TIP3    H227708   5.034   3.772   5.632  0.4864 -0.8114  0.5093
 9251TIP3   OH227709   6.684   1.894   3.923 -0.0856 -0.5443  0.0365
 9251TIP3    H127710   6.601   1.862   3.888  0.2896 -1.8995  0.3313
 9251TIP3    H227711   6.664   1.921   4.012 -0.5897  0.9112 -0.4889
 9252TIP3   OH227712   1.767   1.426   5.916  0.1956  0.2779  0.3584
 9252TIP3    H127713   1.695   1.489   5.918  0.9111  1.1144  0.5733
 9252TIP3    H227714   1.798   1.424   6.007  0.7803  0.3355  0.1632
 9253TIP3   OH227715   2.670   7.287   2.155  0.0941  0.0951 -0.4878
 9253TIP3    H127716   2.653   7.381   2.156  1.5256  0.3794 -0.8734
 9253TIP3    H227717   2.753   7.278   2.108  0.0586 -1.3490 -0.3177
 9254TIP3   OH227718   1.602   3.640   1.021  0.1932  0.1357 -0.4280
 9254TIP3    H127719   1.524   3.636   1.076 -0.5624 -0.3381 -1.4958
 9254TIP3    H227720   1.649   3.717   1.051 -0.1817 -0.1280  0.8866
 9255TIP3   OH227721   5.578   6.689   0.751 -0.2151  0.2373 -0.1945
 9255TIP3    H127722   5.561   6.610   0.700 -0.8000  0.7567 -0.8258
 9255TIP3    H227723   5.611   6.657   0.835  3.2667 -0.6585 -1.6791
 9256TIP3   OH227724   5.419   5.001   1.309  0.5399 -0.0091 -0.3970
 9256TIP3    H127725   5.431   4.959   1.224  1.0153 -1.1391  0.2007
 9256TIP3    H227726   5.342   4.960   1.346  0.1035  0.7599 -0.4300
 9257TIP3   OH227727   7.080   1.868   2.248  0.0490 -0.2278  0.2675
 9257TIP3    H127728   6.987   1.847   2.235  0.1265 -0.9629  0.8724
 9257TIP3    H227729   7.114   1.879   2.159 -0.5607 -0.1939  0.0331
 9258TIP3   OH227730   4.957   4.261   5.848  0.3287 -0.2415 -0.1752
 9258TIP3    H127731   4.881   4.212   5.879  0.2352 -1.5720 -2.3086
 9258TIP3    H227732   4.974   4.325   5.917 -0.8712 -1.8696  1.7306
 9259TIP3   OH227733   6.672   1.652   0.740  0.3721  0.1659  0.1154
 9259TIP3    H127734   6.737   1.596   0.699  0.4624 -0.1232  0.6379
 9259TIP3    H227735   6.721   1.728   0.772  0.2553  0.5303 -0.5609
 9260TIP3   OH227736   7.265   1.593   1.976  0.0501 -0.2809 -0.5592
 9260TIP3    H127737   7.279   1.512   1.926 -1.3961 -0.9305  0.0136
 9260TIP3    H227738   7.238   1.563   2.063  1.1447  0.8352  0.1928
 9261TIP3   OH227739   2.348   2.289   0.154 -0.0944  0.3071  0.2715
 9261TIP3    H127740   2.439   2.293   0.184 -0.2895  0.5963  0.8465
 9261TIP3    H227741   2.304   2.358   0.204 -0.4196  0.8610 -0.7442
 9262TIP3   OH227742   7.550   4.160   0.525 -0.4642 -0.0930  0.0093
 9262TIP3    H127743   7.556   4.234   0.465 -0.5281  0.0529  0.1818
 9262TIP3    H227744   7.507   4.091   0.474  1.4316 -0.7227 -0.8336
 9263TIP3   OH227745   6.632   7.354   1.802  0.3998 -0.5266  0.2104
 9263TIP3    H127746   6.634   7.431   1.745 -0.1417 -0.6370  0.0387
 9263TIP3    H227747   6.544   7.354   1.839  0.3531 -1.1306  0.1090
 9264TIP3   OH227748   4.971   3.335   1.573 -0.0831 -0.0947 -0.2411
 9264TIP3    H127749   4.895   3.277   1.568 -0.6824  0.6650 -0.2134
 9264TIP3    H227750   5.046   3.276   1.577 -0.7934 -0.9828  3.0940
 9265TIP3   OH227751   2.434   6.568   3.483 -0.1936  0.5021  0.5884
 9265TIP3    H127752   2.521   6.529   3.483 -0.6214 -0.5484 -0.5774
 9265TIP3    H227753   2.434   6.629   3.557  2.1456  1.9812 -0.5247
 9266TIP3   OH227754   4.343   3.168   0.057 -0.2616  0.3460  0.3456
 9266TIP3    H127755   4.358   3.160   0.151  0.2493  0.0699  0.2435
 9266TIP3    H227756   4.253   3.136   0.044 -0.4499  0.6905  0.7777
 9267TIP3   OH227757   1.497   0.588   0.321 -0.3250  0.4417 -0.0273
 9267TIP3    H127758   1.518   0.680   0.304 -0.2859  0.5775  0.7241
 9267TIP3    H227759   1.570   0.557   0.375  0.2914 -0.3761 -1.3012
 9268TIP3   OH227760   5.704   4.433   0.706  0.1730 -0.3414 -0.1000
 9268TIP3    H127761   5.787   4.395   0.737  0.1988 -0.9271 -0.8676
 9268TIP3    H227762   5.645   4.358   0.698  0.0596 -0.1490 -1.0977
 9269TIP3   OH227763   6.867   7.697   5.636  0.1494  0.0402 -0.2763
 9269TIP3    H127764   6.833   7.744   5.712  3.8427  0.6560  1.1914
 9269TIP3    H227765   6.862   7.605   5.661 -1.5667  0.0005 -0.6680
 9270TIP3   OH227766   3.551   0.762   3.696 -0.4172  0.1920 -0.0360
 9270TIP3    H127767   3.554   0.840   3.751  1.4674  0.7299 -0.8122
 9270TIP3    H227768   3.596   0.695   3.746 -0.3165  0.1603 -0.1687
 9271TIP3   OH227769   0.834   7.307   4.116  0.3809  0.1806  0.2427
 9271TIP3    H127770   0.781   7.373   4.161 -0.9860 -0.1551 -0.8145
 9271TIP3    H227771   0.770   7.251   4.072  1.5654 -1.1377  0.1328
 9272TIP3   OH227772   1.151   1.689   3.924 -0.5491  0.2301  0.1064
 9272TIP3    H127773   1.196   1.663   3.844  0.2746 -0.6992  0.8397
 9272TIP3    H227774   1.179   1.779   3.939  1.3936 -0.4199  0.7101
 9273TIP3   OH227775   5.880   5.447   3.934 -0.1954  0.6731 -0.3397
 9273TIP3    H127776   5.933   5.407   4.003 -1.1126  0.4884  0.2779
 9273TIP3    H227777   5.876   5.381   3.866  0.2033  0.6159 -0.3129
 9274TIP3   OH227778   5.572   2.214   6.366 -0.1893 -0.7898  0.1005
 9274TIP3    H127779   5.627   2.222   6.288  0.8299 -1.3325  0.7321
 9274TIP3    H227780   5.590   2.293   6.416 -2.0891  0.3572 -0.9444
 9275TIP3   OH227781   5.750   6.054   3.768  0.4380 -0.3516  0.1305
 9275TIP3    H127782   5.664   6.035   3.806  0.6863  1.6025  1.8590
 9275TIP3    H227783   5.809   5.993   3.812  0.1928 -0.4535  0.3219
 9276TIP3   OH227784   6.039   2.391   1.438 -0.0108  0.0788  0.0960
 9276TIP3    H127785   6.113   2.379   1.379  0.8601 -0.1219  1.2145
 9276TIP3    H227786   6.027   2.306   1.480 -0.9988  0.0555 -0.1843
 9277TIP3   OH227787   1.142   6.667   2.927 -0.4402 -0.2903  0.0010
 9277TIP3    H127788   1.088   6.746   2.918 -0.9106 -0.5338  0.5688
 9277TIP3    H227789   1.185   6.657   2.843 -0.6292  0.3932 -0.1833
 9278TIP3   OH227790   0.593   5.456   5.674  0.3110 -0.3287  0.7848
 9278TIP3    H127791   0.640   5.535   5.647  0.3566 -0.8757 -0.8498
 9278TIP3    H227792   0.505   5.487   5.697 -0.1065  0.0699 -1.1613
 9279TIP3   OH227793   7.444   2.303   2.717 -0.7702 -0.1441 -0.3037
 9279TIP3    H127794   7.422   2.324   2.626 -0.2311 -0.1965 -0.4533
 9279TIP3    H227795   7.460   2.388   2.758 -0.1995 -0.1607 -0.4797
 9280TIP3   OH227796   3.916   3.767   3.213 -1.0410  0.1203  0.1680
 9280TIP3    H127797   3.912   3.672   3.218 -1.7872 -0.0387 -2.0473
 9280TIP3    H227798   3.824   3.794   3.199 -0.5897  0.8929 -1.7126
 9281TIP3   OH227799   4.989   3.353   3.238 -0.4658 -0.2359  0.5134
 9281TIP3    H127800   5.016   3.263   3.258  0.5896  0.1143  0.7361
 9281TIP3    H227801   4.894   3.348   3.227 -0.2696 -1.6437 -0.9248
 9282TIP3   OH227802   2.316   2.492   5.754  0.1124 -0.1645  0.2705
 9282TIP3    H127803   2.323   2.469   5.847  3.3253  1.6135  0.6306
 9282TIP3    H227804   2.299   2.587   5.754  1.7021  0.1640 -0.8707
 9283TIP3   OH227805   7.840   1.860   5.292 -0.3818  0.5835  0.2559
 9283TIP3    H127806   7.921   1.885   5.247  0.6770  0.3294  1.9146
 9283TIP3    H227807   7.808   1.941   5.330  1.2896  0.1489  2.8871
 9284TIP3   OH227808   3.573   0.662   4.889  0.0869  0.4111 -1.0224
 9284TIP3    H127809   3.614   0.582   4.858  0.0070  0.6446 -1.7463
 9284TIP3    H227810   3.645   0.713   4.928  0.5148  0.8579 -2.3614
 9285TIP3   OH227811   4.021   0.453   0.358 -0.0736 -1.2266  0.5954
 9285TIP3    H127812   4.007   0.358   0.351 -2.2625 -0.9154 -0.2385
 9285TIP3    H227813   4.078   0.474   0.284  1.0694 -1.9661  1.2327
 9286TIP3   OH227814   1.414   5.478   6.113 -0.3283  0.6303 -0.3317
 9286TIP3    H127815   1.434   5.553   6.168 -1.0261  2.6226 -2.5887
 9286TIP3    H227816   1.319   5.472   6.113 -0.3174  0.3427 -0.8917
 9287TIP3   OH227817   4.766   2.470   0.721 -0.1071 -0.1626  0.2419
 9287TIP3    H127818   4.857   2.474   0.691 -0.1891  0.8644  0.1219
 9287TIP3    H227819   4.771   2.427   0.806  0.3594 -1.1300 -0.2482
 9288TIP3   OH227820   3.562   6.910   4.639 -0.5480 -0.4821  0.1945
 9288TIP3    H127821   3.560   6.833   4.696  2.0033 -2.1847 -1.8017
 9288TIP3    H227822   3.555   6.984   4.699 -3.0523 -2.1779  2.2035
 9289TIP3   OH227823   1.330   1.810   2.275  0.5220 -0.1229  0.2643
 9289TIP3    H127824   1.418   1.820   2.311  0.9525  0.7683 -0.9854
 9289TIP3    H227825   1.290   1.741   2.329  2.6335 -1.9252 -0.3451
 9290TIP3   OH227826   4.688   5.447   5.410  0.3706  0.1194  0.3320
 9290TIP3    H127827   4.693   5.441   5.505  2.6085 -1.5887  0.1843
 9290TIP3    H227828   4.762   5.396   5.379  1.1313  2.5675 -2.3111
 9291TIP3   OH227829   0.433   1.207   3.659  0.0348 -0.2238  0.4431
 9291TIP3    H127830   0.434   1.262   3.737 -0.9359 -1.4547  1.3730
 9291TIP3    H227831   0.420   1.118   3.693 -0.0759 -0.8258 -1.1057
 9292TIP3   OH227832   0.328   7.756   0.486  0.1632  0.1071 -0.2645
 9292TIP3    H127833   0.256   7.816   0.506  0.8773  0.9643 -0.1977
 9292TIP3    H227834   0.386   7.807   0.429  0.4135 -0.7819 -0.8130
 9293TIP3   OH227835   3.406   5.089   5.009 -0.0631  0.1918  0.7650
 9293TIP3    H127836   3.381   5.116   4.921 -1.4852  0.3383  1.1926
 9293TIP3    H227837   3.341   5.129   5.066  1.4837  1.0427  2.0101
 9294TIP3   OH227838   5.144   4.541   1.749 -0.2761 -0.5703  0.4179
 9294TIP3    H127839   5.109   4.511   1.665 -0.6500 -3.8581  1.5888
 9294TIP3    H227840   5.238   4.524   1.743  0.1129  1.4511 -0.1000
 9295TIP3   OH227841   6.509   7.194   4.721  0.3127 -0.1172 -0.0018
 9295TIP3    H127842   6.514   7.288   4.739  1.2842 -0.5719  2.4686
 9295TIP3    H227843   6.596   7.171   4.690  0.7322 -0.5418  1.4365
 9296TIP3   OH227844   1.742   1.168   3.960 -0.1351  0.3912 -0.2146
 9296TIP3    H127845   1.670   1.138   4.015  1.1106  1.0666  1.8991
 9296TIP3    H227846   1.801   1.094   3.954 -0.2731  0.3169 -0.6458
 9297TIP3   OH227847   6.419   7.381   2.009 -0.0948 -0.1246 -0.3190
 9297TIP3    H127848   6.354   7.315   1.984 -0.7635 -0.2965  1.7185
 9297TIP3    H227849   6.393   7.409   2.096  0.0072  3.1161 -1.2132
 9298TIP3   OH227850   3.689   2.116   6.236 -0.2846 -0.2631 -0.1784
 9298TIP3    H127851   3.603   2.096   6.197  0.3139  0.9103 -2.2799
 9298TIP3    H227852   3.751   2.064   6.185  0.5234  1.2007 -0.7554
 9299TIP3   OH227853   6.264   2.689   0.212 -0.2166 -0.0899  0.7759
 9299TIP3    H127854   6.266   2.644   0.127 -0.7559 -0.3815  0.9116
 9299TIP3    H227855   6.210   2.767   0.197  0.3834  0.3029  0.6425
 9300TIP3   OH227856   5.630   0.636   1.792  0.6765  0.1609  0.2999
 9300TIP3    H127857   5.651   0.606   1.704  1.5676 -0.6718  0.7766
 9300TIP3    H227858   5.604   0.556   1.839  1.6324  0.3511  1.1834
 9301TIP3   OH227859   6.941   4.753   0.645  0.1299 -0.0793 -0.0095
 9301TIP3    H127860   6.876   4.822   0.635 -0.1396 -0.3389 -0.0798
 9301TIP3    H227861   7.025   4.798   0.644  0.0069  0.1476 -0.9945
 9302TIP3   OH227862   2.313   1.457   5.189 -0.3003 -1.2268 -0.0008
 9302TIP3    H127863   2.338   1.495   5.274 -0.6958 -1.6231  0.2949
 9302TIP3    H227864   2.394   1.460   5.138  0.4453 -2.6641  1.0106
 9303TIP3   OH227865   2.398   3.578   2.187  0.6283 -0.3971  0.2785
 9303TIP3    H127866   2.479   3.529   2.179 -0.7640 -2.7416 -0.7052
 9303TIP3    H227867   2.366   3.586   2.097 -1.0407 -1.1370  0.7451
 9304TIP3   OH227868   5.696   7.133   3.575 -0.1975 -0.1195  1.0806
 9304TIP3    H127869   5.604   7.149   3.554  0.3449  0.8663 -0.7623
 9304TIP3    H227870   5.712   7.184   3.655 -1.0701  0.2333  1.0345
 9305TIP3   OH227871   5.927   6.087   1.445  0.0485 -0.0195 -0.5204
 9305TIP3    H127872   5.923   6.178   1.415  0.4972 -0.9611 -3.8473
 9305TIP3    H227873   6.009   6.082   1.493  0.6943  1.0650 -1.4401
 9306TIP3   OH227874   0.272   6.408   5.774  0.0877 -0.4851  0.2840
 9306TIP3    H127875   0.177   6.409   5.785 -0.0371  2.9517  0.0781
 9306TIP3    H227876   0.286   6.430   5.682  1.0202  1.0832  0.7594
 9307TIP3   OH227877   5.492   0.177   2.119  0.0627  0.7244 -0.2031
 9307TIP3    H127878   5.517   0.252   2.173 -1.7016  0.8293  0.5344
 9307TIP3    H227879   5.439   0.122   2.176 -1.1969  0.4270 -1.5889
 9308TIP3   OH227880   3.795   2.750   3.456  0.0047  0.2539 -0.2910
 9308TIP3    H127881   3.873   2.695   3.447  0.2628 -0.3795  3.8471
 9308TIP3    H227882   3.723   2.694   3.426  0.6599 -1.0231  0.4355
 9309TIP3   OH227883   3.640   1.935   4.356 -0.8420  0.6572 -0.1346
 9309TIP3    H127884   3.734   1.924   4.374 -1.1439 -1.8632  0.3387
 9309TIP3    H227885   3.605   1.976   4.434 -0.4671 -0.5414  0.6862
 9310TIP3   OH227886   0.303   0.722   6.696  0.2673  0.0818  0.5955
 9310TIP3    H127887   0.298   0.817   6.704  2.1304  0.2132  0.6221
 9310TIP3    H227888   0.268   0.702   6.610  1.6912  1.0216 -0.2333
 9311TIP3   OH227889   3.061   6.988   5.671  0.0933 -0.3716  0.5412
 9311TIP3    H127890   3.149   6.951   5.681  0.4583  0.0492 -0.9484
 9311TIP3    H227891   3.005   6.928   5.720  1.2040 -0.6017  1.5938
 9312TIP3   OH227892   3.599   7.546   4.424  0.0333  0.0816  0.2051
 9312TIP3    H127893   3.684   7.504   4.438  1.2592  2.5769  0.8207
 9312TIP3    H227894   3.588   7.548   4.329  1.8709  1.8276 -0.0304
 9313TIP3   OH227895   4.515   0.526   6.207 -0.0207 -0.2482  0.1116
 9313TIP3    H127896   4.464   0.607   6.203 -1.7334 -1.2788  0.1694
 9313TIP3    H227897   4.575   0.532   6.132  0.1767  1.2488  0.3669
 9314TIP3   OH227898   1.062   2.513   3.810 -0.0237 -0.4262 -0.1760
 9314TIP3    H127899   1.004   2.449   3.851 -1.6656  0.9826 -0.1460
 9314TIP3    H227900   1.092   2.471   3.729 -0.5010 -1.4688  0.1737
 9315TIP3   OH227901   4.420   4.529   4.089  0.2392  0.1516 -0.6231
 9315TIP3    H127902   4.440   4.610   4.042 -0.3908  1.2284  0.8556
 9315TIP3    H227903   4.374   4.475   4.026 -0.3126  1.4144 -1.3516
 9316TIP3   OH227904   5.502   3.020   2.536  1.0759 -0.2917  0.4588
 9316TIP3    H127905   5.581   2.998   2.486 -0.1543 -2.9500 -0.5355
 9316TIP3    H227906   5.445   3.062   2.472  0.1923 -2.0830 -0.0126
 9317TIP3   OH227907   0.732   7.097   4.849  0.2354 -0.5692 -0.0940
 9317TIP3    H127908   0.767   7.136   4.930  1.7017 -1.9555 -0.0136
 9317TIP3    H227909   0.641   7.074   4.871 -0.5519  2.2537 -0.0020
 9318TIP3   OH227910   0.081   0.347   5.995 -0.3883  0.1180 -0.0825
 9318TIP3    H127911   0.175   0.361   6.003 -0.3225 -0.1312 -0.4117
 9318TIP3    H227912   0.051   0.332   6.085 -0.3046  1.3391  0.1628
 9319TIP3   OH227913   0.339   3.789   1.408 -0.1786  0.1828 -0.0423
 9319TIP3    H127914   0.381   3.851   1.467  0.9644  0.8529 -1.5123
 9319TIP3    H227915   0.248   3.818   1.403 -0.2696  0.1719  1.2822
 9320TIP3   OH227916   4.959   1.767   2.486  0.1638 -1.1665  0.1282
 9320TIP3    H127917   5.031   1.796   2.430 -0.2506 -3.4739 -1.7686
 9320TIP3    H227918   5.001   1.719   2.557  0.5861  0.0721  0.7533
 9321TIP3   OH227919   6.155   0.558   0.626  0.1552 -0.0798  0.0269
 9321TIP3    H127920   6.148   0.501   0.702  0.1348  1.9378  1.6445
 9321TIP3    H227921   6.075   0.542   0.575 -0.6415 -0.2760  1.3172
 9322TIP3   OH227922   4.088   4.967   4.434  0.0719 -0.0496 -0.1386
 9322TIP3    H127923   4.080   4.883   4.388  1.8972  0.2990 -1.1694
 9322TIP3    H227924   4.182   4.983   4.439 -0.2514  2.2042 -0.4502
 9323TIP3   OH227925   7.775   2.254   6.213 -0.1435  0.0034  0.0276
 9323TIP3    H127926   7.819   2.323   6.263  1.8673 -1.3274  0.2462
 9323TIP3    H227927   7.774   2.286   6.123 -2.0200  1.5781  0.5615
 9324TIP3   OH227928   6.080   6.532   5.506 -0.1921 -0.8677  0.6275
 9324TIP3    H127929   6.068   6.623   5.479  1.1233 -0.8088  0.1466
 9324TIP3    H227930   6.020   6.520   5.579 -1.4313 -0.0400 -0.2069
 9325TIP3   OH227931   2.918   6.545   1.271 -0.3704 -0.3870 -0.3969
 9325TIP3    H127932   2.961   6.550   1.186 -1.2721 -1.9484 -0.9957
 9325TIP3    H227933   2.989   6.552   1.335  0.8291 -2.7302 -1.3467
 9326TIP3   OH227934   4.525   2.315   1.974 -0.1494 -0.1342 -0.6415
 9326TIP3    H127935   4.493   2.405   1.969 -1.2680 -0.5029 -0.3370
 9326TIP3    H227936   4.613   2.324   2.012 -1.8260  0.5775  3.6535
 9327TIP3   OH227937   5.774   6.947   3.874  0.2271 -0.2819  0.1408
 9327TIP3    H127938   5.724   6.888   3.931  0.1561 -1.8732 -1.4762
 9327TIP3    H227939   5.710   7.011   3.844 -0.2131 -0.6900  0.1960
 9328TIP3   OH227940   3.748   3.015   1.825 -0.4166  0.1167  0.3569
 9328TIP3    H127941   3.800   3.095   1.834 -0.6732  0.2541  0.6597
 9328TIP3    H227942   3.773   2.961   1.900 -0.9635  0.3343  0.7027
 9329TIP3   OH227943   5.667   3.700   5.470  0.5127  0.1268 -0.0655
 9329TIP3    H127944   5.748   3.746   5.448  0.5970 -0.0540 -0.1352
 9329TIP3    H227945   5.598   3.759   5.440  0.5613  1.2374  1.8564
 9330TIP3   OH227946   3.080   2.034   1.685  0.5432  0.1343  0.2141
 9330TIP3    H127947   3.033   1.950   1.685 -0.1579  0.5211  0.7302
 9330TIP3    H227948   3.137   2.029   1.608 -1.3654  0.2111 -1.2927
 9331TIP3   OH227949   1.585   5.625   3.158  0.0550  0.2804 -0.7500
 9331TIP3    H127950   1.650   5.672   3.105 -0.6667  0.1939 -1.7400
 9331TIP3    H227951   1.565   5.685   3.230  2.3256 -0.2952  0.4653
 9332TIP3   OH227952   5.143   0.561   3.394  0.7319  0.3415 -0.3813
 9332TIP3    H127953   5.074   0.537   3.456  1.8877  0.6464  1.0659
 9332TIP3    H227954   5.223   0.566   3.447  1.9183 -0.1751 -2.0446
 9333TIP3   OH227955   1.598   4.341   2.207 -0.4309  0.4877  0.3750
 9333TIP3    H127956   1.573   4.306   2.122  0.7019 -0.0835  0.2640
 9333TIP3    H227957   1.571   4.273   2.270  4.7790 -2.5429 -0.0520
 9334TIP3   OH227958   5.441   4.899   2.261 -0.0466  0.3102  0.3969
 9334TIP3    H127959   5.445   4.815   2.307  2.2914 -0.7083 -1.4417
 9334TIP3    H227960   5.532   4.927   2.254 -0.5670  1.8098 -1.1043
 9335TIP3   OH227961   4.117   7.356   6.063 -0.0857 -0.1366 -0.2138
 9335TIP3    H127962   4.157   7.269   6.065 -0.1703 -0.2052 -1.0661
 9335TIP3    H227963   4.142   7.392   5.978 -1.3292  0.0544 -0.5199
 9336TIP3   OH227964   1.449   2.229   0.460 -0.2004 -0.1899  0.2056
 9336TIP3    H127965   1.416   2.202   0.374 -1.0372 -1.1636  0.8208
 9336TIP3    H227966   1.405   2.172   0.522  1.6357 -0.6164  1.1775
 9337TIP3   OH227967   6.891   5.630   4.126  0.5338  0.1641  0.3420
 9337TIP3    H127968   6.958   5.697   4.120  1.7500 -1.1019 -1.4496
 9337TIP3    H227969   6.939   5.550   4.149 -0.3396 -0.7249 -0.7708
 9338TIP3   OH227970   1.400   0.705   5.026  0.4622 -0.3415 -0.5840
 9338TIP3    H127971   1.467   0.647   5.062 -0.9438 -1.2100  0.8204
 9338TIP3    H227972   1.441   0.748   4.951  2.6429 -0.6186  0.3892
 9339TIP3   OH227973   4.308   3.562   4.144  0.1332  0.2932 -0.3138
 9339TIP3    H127974   4.314   3.479   4.098 -0.8697  0.1359 -0.1970
 9339TIP3    H227975   4.392   3.571   4.189  0.4706 -0.3686 -0.7942
 9340TIP3   OH227976   3.130   1.519   3.536 -0.0972 -0.1878  0.4125
 9340TIP3    H127977   3.111   1.608   3.564 -0.0671 -0.3273  0.8850
 9340TIP3    H227978   3.161   1.528   3.446 -1.5656  0.1323 -0.0928
 9341TIP3   OH227979   1.991   3.912   6.136 -0.1708  0.1362 -0.0019
 9341TIP3    H127980   1.903   3.925   6.103 -1.0123 -0.9155  1.6975
 9341TIP3    H227981   1.999   3.973   6.209  0.9209  0.9950 -0.8042
 9342TIP3   OH227982   4.719   6.398   5.557 -0.4695 -0.0512 -0.3776
 9342TIP3    H127983   4.630   6.418   5.586 -0.8933 -0.9506 -1.0092
 9342TIP3    H227984   4.707   6.346   5.477  0.5968 -1.3614  0.2679
 9343TIP3   OH227985   0.490   7.331   0.921 -0.3576  0.0403 -0.1636
 9343TIP3    H127986   0.582   7.306   0.924 -0.4885 -0.3148  1.3729
 9343TIP3    H227987   0.442   7.249   0.929 -0.7836  0.4197  1.5392
 9344TIP3   OH227988   7.354   4.596   0.643  0.7450  0.1952 -0.1918
 9344TIP3    H127989   7.321   4.548   0.719 -1.4149  2.7990  0.6761
 9344TIP3    H227990   7.298   4.568   0.571  0.3708  0.4073  0.0128
 9345TIP3   OH227991   5.078   0.735   1.978  0.0052  0.2379  0.1468
 9345TIP3    H127992   5.012   0.681   1.934  1.1594 -0.1991 -1.0724
 9345TIP3    H227993   5.063   0.823   1.944  0.7207 -0.0503 -0.9594
 9346TIP3   OH227994   8.164   2.734   5.042  0.0559  0.5048 -0.2479
 9346TIP3    H127995   8.180   2.738   4.948  0.8616 -2.2522 -0.3345
 9346TIP3    H227996   8.073   2.705   5.050  0.4444 -0.7746 -0.2603
 9347TIP3   OH227997   2.780   5.009   6.149  0.2788 -0.1887  0.5423
 9347TIP3    H127998   2.773   5.096   6.189  1.4462  0.5628 -0.8050
 9347TIP3    H227999   2.802   5.027   6.057 -2.3053 -1.8364 -0.5167
 9348TIP3   OH228000   6.813   6.817   4.065  0.3149  0.2857  0.4202
 9348TIP3    H128001   6.831   6.726   4.088 -0.0154  0.1425  0.1148
 9348TIP3    H228002   6.865   6.868   4.128  0.0022 -0.1011  0.9998
 9349TIP3   OH228003   7.966   5.524   3.609 -0.0310 -0.2349 -0.3085
 9349TIP3    H128004   8.042   5.476   3.640  1.1926  1.6758 -0.2047
 9349TIP3    H228005   7.894   5.493   3.663  1.1372 -0.4162  1.1877
 9350TIP3   OH228006   3.435   4.446   0.731  0.4843 -0.3031 -0.4779
 9350TIP3    H128007   3.490   4.473   0.657  1.7085  0.9086  0.8104
 9350TIP3    H228008   3.494   4.397   0.789 -0.3210 -0.7873 -0.0407
 9351TIP3   OH228009   5.023   0.859   6.627  0.1324  0.1877 -0.3030
 9351TIP3    H128010   5.045   0.858   6.720 -0.0823 -0.7439 -0.2596
 9351TIP3    H228011   4.964   0.785   6.615 -1.4440  1.4825 -0.8064
 9352TIP3   OH228012   5.919   3.126   4.805  0.0354 -0.1356 -0.4893
 9352TIP3    H128013   5.830   3.099   4.828  0.2739 -0.5214  0.0043
 9352TIP3    H228014   5.962   3.044   4.779 -0.1508  0.2424 -2.0906
 9353TIP3   OH228015   3.412   1.912   4.717 -0.3277  0.0378 -0.0032
 9353TIP3    H128016   3.419   1.975   4.789  0.6664 -1.3065  1.1440
 9353TIP3    H228017   3.453   1.956   4.642 -0.0304  0.9096  0.6479
 9354TIP3   OH228018   1.523   6.766   0.035 -0.1007 -0.4591  0.0888
 9354TIP3    H128019   1.533   6.698   0.102  1.3972  1.0992  1.5347
 9354TIP3    H228020   1.613   6.790   0.012 -0.6053  0.0800 -1.4355
 9355TIP3   OH228021   0.903   3.799   3.239 -0.2008 -0.1178  0.0774
 9355TIP3    H128022   0.833   3.751   3.195  1.7783 -1.2997 -1.9924
 9355TIP3    H228023   0.858   3.874   3.280 -2.3529  1.0450 -3.8183
 9356TIP3   OH228024   2.092   6.733   0.527  0.0211 -0.2015  0.2460
 9356TIP3    H128025   2.169   6.746   0.472 -0.4674  0.0172 -0.4028
 9356TIP3    H228026   2.061   6.822   0.545  1.6575 -0.1094  3.0664
 9357TIP3   OH228027   2.501   3.361   2.554 -0.5836 -0.5757  0.1071
 9357TIP3    H128028   2.558   3.438   2.555 -0.7308 -0.4469 -0.6660
 9357TIP3    H228029   2.557   3.289   2.583 -0.3514 -0.2399  0.4990
 9358TIP3   OH228030   6.700   6.758   3.431  0.2906  0.3230 -0.7650
 9358TIP3    H128031   6.626   6.726   3.482  0.5813  0.7879 -0.0357
 9358TIP3    H228032   6.777   6.721   3.475  0.5322  0.5626 -0.9846
 9359TIP3   OH228033   0.633   1.880   3.550 -0.2503 -0.0215 -0.2704
 9359TIP3    H128034   0.563   1.815   3.552  1.8347 -2.4454  0.9447
 9359TIP3    H228035   0.683   1.863   3.631  2.2310  0.9052 -1.5070
 9360TIP3   OH228036   4.416   7.745   6.776  0.0378 -0.1779  0.2731
 9360TIP3    H128037   4.344   7.798   6.743 -0.1056 -0.2250  0.5103
 9360TIP3    H228038   4.480   7.744   6.704  0.6391  1.3928  0.7346
 9361TIP3   OH228039   4.289   7.247   4.888 -0.3239 -0.6858  0.0148
 9361TIP3    H128040   4.344   7.323   4.908 -1.4120  0.2483 -0.4207
 9361TIP3    H228041   4.295   7.237   4.793 -0.7881 -0.6655 -0.0184
 9362TIP3   OH228042   4.825   2.659   1.522  0.1699  0.4321 -0.3789
 9362TIP3    H128043   4.775   2.579   1.537 -0.3137  0.6460 -0.7800
 9362TIP3    H228044   4.916   2.632   1.527  0.0133 -0.0617 -0.1002
 9363TIP3   OH228045   3.841   2.124   2.113  0.4029 -0.8133  0.4449
 9363TIP3    H128046   3.902   2.197   2.118 -0.1037 -0.1537 -1.7322
 9363TIP3    H228047   3.860   2.082   2.029  0.7241 -3.2943  1.6546
 9364TIP3   OH228048   0.327   5.528   6.641 -0.2844 -0.2241 -0.2960
 9364TIP3    H128049   0.258   5.589   6.665  1.1249  1.6788 -0.8483
 9364TIP3    H228050   0.306   5.501   6.552 -1.2674 -1.1313  0.1808
 9365TIP3   OH228051   6.681   1.990   6.532 -0.2772  0.1826  0.3001
 9365TIP3    H128052   6.596   1.978   6.491 -0.0410  0.0440 -0.1542
 9365TIP3    H228053   6.681   2.082   6.559 -0.3692  0.3280 -0.1744
 9366TIP3   OH228054   4.426   7.778   2.559 -0.0476  0.7435  0.0985
 9366TIP3    H128055   4.411   7.683   2.561  2.4529  0.2446 -1.2419
 9366TIP3    H228056   4.376   7.808   2.483 -1.6134  0.7024  1.0749
 9367TIP3   OH228057   4.441   4.387   0.494 -0.1419 -0.5630  0.1219
 9367TIP3    H128058   4.486   4.412   0.575  1.1687 -2.0119 -0.1070
 9367TIP3    H228059   4.463   4.456   0.432  1.3698 -0.9531  0.1830
 9368TIP3   OH228060   6.032   4.319   2.774  0.1430 -0.2207 -0.2927
 9368TIP3    H128061   6.126   4.306   2.787  0.2518 -0.3269 -1.1890
 9368TIP3    H228062   6.025   4.408   2.741 -0.1973  0.2787  1.0434
 9369TIP3   OH228063   3.035   1.419   5.132 -0.0662  0.4522  0.4507
 9369TIP3    H128064   2.953   1.440   5.177 -0.3540  2.3973 -0.8618
 9369TIP3    H228065   3.098   1.405   5.203 -1.5567 -1.4942  1.5014
 9370TIP3   OH228066   7.553   6.218   2.221 -0.1445  0.2060  0.0964
 9370TIP3    H128067   7.602   6.148   2.178 -2.0103 -0.9036 -0.3640
 9370TIP3    H228068   7.561   6.293   2.161  0.1324 -0.2616 -0.4681
 9371TIP3   OH228069   6.151   3.414   4.804 -0.2521  0.1522  0.4465
 9371TIP3    H128070   6.056   3.425   4.803 -0.7014 -2.9031  1.0878
 9371TIP3    H228071   6.174   3.408   4.897  0.5462  0.5131  0.2867
 9372TIP3   OH228072   8.191   1.031   2.660  0.3297  0.2154 -0.5404
 9372TIP3    H128073   8.207   1.125   2.664  0.7351  0.1170  0.2716
 9372TIP3    H228074   8.203   1.000   2.749  3.1836 -1.0936 -1.2543
 9373TIP3   OH228075   1.365   3.225   3.323  0.1438  0.3846 -0.0929
 9373TIP3    H128076   1.269   3.236   3.323 -0.0594 -1.0610 -0.9001
 9373TIP3    H228077   1.381   3.157   3.388  0.6936  1.0054  0.4278
 9374TIP3   OH228078   7.083   0.958   5.505  0.7994  0.1842  0.7314
 9374TIP3    H128079   7.109   0.961   5.597 -0.2229  0.7708  1.0233
 9374TIP3    H228080   6.996   1.000   5.504  1.8062  2.4162 -0.8478
 9375TIP3   OH228081   3.445   6.195   5.792  0.0716  0.0760 -0.1754
 9375TIP3    H128082   3.408   6.253   5.858 -0.5963 -2.1380  1.5138
 9375TIP3    H228083   3.540   6.199   5.806  0.1386  1.5094 -0.8153
 9376TIP3   OH228084   3.392   3.290   3.692  0.0369 -0.7681  0.2169
 9376TIP3    H128085   3.423   3.357   3.753 -1.4490  0.0600  0.1054
 9376TIP3    H228086   3.472   3.249   3.659  1.0151  1.1308  0.0739
 9377TIP3   OH228087   0.454   7.284   1.906  0.3356 -0.5933  0.0044
 9377TIP3    H128088   0.373   7.331   1.890  0.5729 -0.5791 -1.2288
 9377TIP3    H228089   0.427   7.195   1.927 -0.0113 -0.4793  0.0397
 9378TIP3   OH228090   1.427   6.088   4.690  0.1479  0.1400 -0.9448
 9378TIP3    H128091   1.487   6.150   4.733  0.4632  1.0150 -2.5593
 9378TIP3    H228092   1.446   6.097   4.597 -1.4383 -0.7022 -1.3898
 9379TIP3   OH228093   6.926   7.513   3.117  0.0490  0.2197 -0.0686
 9379TIP3    H128094   6.863   7.556   3.059  0.1438 -0.4141 -0.6549
 9379TIP3    H228095   6.953   7.581   3.178  0.4362  1.0830 -1.1677
 9380TIP3   OH228096   1.797   1.665   4.567 -0.0583 -0.4123 -0.0563
 9380TIP3    H128097   1.883   1.661   4.611 -1.0161  1.7898  2.3051
 9380TIP3    H228098   1.816   1.703   4.481  1.2032  2.4588  1.3374
 9381TIP3   OH228099   0.652   6.031   1.967  0.3052  0.1763  0.0987
 9381TIP3    H128100   0.607   6.060   2.046  0.6648  1.6720 -0.2116
 9381TIP3    H228101   0.738   6.072   1.972  0.4457  0.0386 -0.9151
 9382TIP3   OH228102   4.563   1.983   5.742 -0.1219  0.0611  0.6390
 9382TIP3    H128103   4.548   2.061   5.796  0.3235  0.7388 -0.2087
 9382TIP3    H228104   4.658   1.973   5.741 -0.0940  0.3508 -0.4275
 9383TIP3   OH228105   2.905   7.536   4.282  0.2426 -0.3770  0.0182
 9383TIP3    H128106   2.887   7.492   4.198  1.1190 -0.4863 -0.1266
 9383TIP3    H228107   2.858   7.619   4.276  0.9976  0.0181 -0.9765
 9384TIP3   OH228108   3.463   4.618   3.785  0.1285 -0.1868 -0.0389
 9384TIP3    H128109   3.443   4.699   3.738 -0.2862 -0.0609  0.3508
 9384TIP3    H228110   3.454   4.641   3.877 -1.3992 -1.0353  0.0449
 9385TIP3   OH228111   6.263   4.850   6.569 -0.3313 -0.3480 -0.5771
 9385TIP3    H128112   6.227   4.781   6.624 -0.6766  1.0489  1.0306
 9385TIP3    H228113   6.226   4.833   6.482 -0.6327 -1.9912 -0.1514
 9386TIP3   OH228114   6.854   5.816   1.009 -0.0656  0.2001  0.2045
 9386TIP3    H128115   6.768   5.824   0.967  0.0219 -0.4987 -0.1160
 9386TIP3    H228116   6.835   5.803   1.102 -0.2521  2.9414  0.6429
 9387TIP3   OH228117   4.501   0.843   4.547 -0.4595 -0.3138 -0.1434
 9387TIP3    H128118   4.408   0.841   4.568 -0.5741 -0.3663 -0.6545
 9387TIP3    H228119   4.505   0.877   4.458 -0.0876 -1.6422 -0.6666
 9388TIP3   OH228120   3.939   3.509   2.682 -0.3995 -0.0125  0.1410
 9388TIP3    H128121   3.993   3.557   2.745 -2.3618  0.2593  1.7522
 9388TIP3    H228122   3.933   3.420   2.719 -0.7325 -0.1341 -0.1966
 9389TIP3   OH228123   5.266   1.611   0.559 -0.1698  0.1439 -0.0023
 9389TIP3    H128124   5.275   1.535   0.502 -0.7599 -0.8004  1.1322
 9389TIP3    H228125   5.184   1.596   0.607  0.2424  0.9735  0.9982
 9390TIP3   OH228126   6.928   1.534   2.186  0.9139  0.2255 -0.5500
 9390TIP3    H128127   6.912   1.511   2.094  0.8348  0.2396 -0.5393
 9390TIP3    H228128   6.870   1.477   2.236  1.0781  0.0990 -0.4994
 9391TIP3   OH228129   6.568   2.321   1.176  0.1729  0.0197  0.2205
 9391TIP3    H128130   6.532   2.382   1.112  1.9810 -0.0975 -1.0009
 9391TIP3    H228131   6.586   2.374   1.253 -1.6235  0.2573  0.5198
 9392TIP3   OH228132   6.354   3.542   0.459  0.5413  0.5722 -0.4126
 9392TIP3    H128133   6.325   3.550   0.368  0.3878  0.8000 -0.3440
 9392TIP3    H228134   6.398   3.457   0.462  2.5902  1.5428 -1.2497
 9393TIP3   OH228135   4.000   4.926   0.672  0.4650  0.2581 -0.2682
 9393TIP3    H128136   3.908   4.936   0.647  0.6004  2.9535 -0.0431
 9393TIP3    H228137   4.043   4.896   0.592 -0.1266  2.4135 -1.4901
 9394TIP3   OH228138   4.196   7.072   1.756  0.8623  0.4282 -0.3549
 9394TIP3    H128139   4.190   7.071   1.852  0.8256 -0.6493 -0.3479
 9394TIP3    H228140   4.123   7.017   1.727  0.3458  1.4452 -1.0545
 9395TIP3   OH228141   6.873   2.091   3.917  0.2270 -0.2079  0.4040
 9395TIP3    H128142   6.795   2.036   3.912  0.4968 -0.6536  0.9411
 9395TIP3    H228143   6.842   2.175   3.950 -0.1280 -0.1549 -0.0495
 9396TIP3   OH228144   6.287   6.433   5.336  0.1901 -0.1581  0.3420
 9396TIP3    H128145   6.208   6.457   5.384 -0.9247 -2.7039 -0.0373
 9396TIP3    H228146   6.254   6.401   5.251  1.8595  1.0768 -0.8402
 9397TIP3   OH228147   4.045   5.185   0.786 -0.1590 -0.1047  0.4428
 9397TIP3    H128148   4.114   5.167   0.850 -2.8142 -1.1754  3.2412
 9397TIP3    H228149   4.005   5.100   0.770  0.4409  0.1142 -2.8597
 9398TIP3   OH228150   3.025   2.406   6.290 -0.5303 -0.1706  0.5508
 9398TIP3    H128151   2.930   2.398   6.298 -0.7882  1.7185 -0.1878
 9398TIP3    H228152   3.056   2.315   6.287 -2.2809 -0.8288  0.9217
 9399TIP3   OH228153   7.882   5.522   5.597  0.1217 -0.3094 -0.5597
 9399TIP3    H128154   7.919   5.571   5.669 -0.3297 -0.5705 -0.1435
 9399TIP3    H228155   7.799   5.488   5.631  0.4873 -1.4772 -0.7885
 9400TIP3   OH228156   5.886   1.693   2.986 -0.3686  0.1493  0.0072
 9400TIP3    H128157   5.914   1.664   2.899  1.2353  1.3315  0.1013
 9400TIP3    H228158   5.890   1.614   3.040  0.7783 -0.1460 -0.4907
 9401TIP3   OH228159   3.827   1.642   4.552  0.2634 -0.6163 -0.0672
 9401TIP3    H128160   3.798   1.723   4.595 -0.9057 -0.7682 -0.5428
 9401TIP3    H228161   3.889   1.603   4.615 -0.0266  0.0722  0.6682
 9402TIP3   OH228162   4.048   2.699   2.715  0.3932  0.4533  0.4025
 9402TIP3    H128163   3.990   2.772   2.736  1.0359  1.1502 -0.1928
 9402TIP3    H228164   4.001   2.649   2.648 -0.7554 -0.6156  1.9539
 9403TIP3   OH228165   4.200   5.138   0.531  0.3700 -0.9143 -0.3750
 9403TIP3    H128166   4.165   5.172   0.613  2.2235 -0.3628  0.2366
 9403TIP3    H228167   4.184   5.208   0.468 -1.9586 -1.7401 -0.7740
 9404TIP3   OH228168   1.596   6.915   6.015 -0.6223  0.2297 -0.2982
 9404TIP3    H128169   1.691   6.918   6.004 -0.6354  0.0802 -0.4626
 9404TIP3    H228170   1.569   6.838   5.964 -0.8593  0.4133 -0.4507
 9405TIP3   OH228171   5.665   1.400   6.349  0.1655  0.3935 -0.3234
 9405TIP3    H128172   5.626   1.472   6.299 -1.3112 -0.1983 -0.0801
 9405TIP3    H228173   5.592   1.340   6.365  1.0180 -0.3717  0.8673
 9406TIP3   OH228174   6.988   3.703   1.928 -0.7153 -0.0467  0.1589
 9406TIP3    H128175   6.972   3.619   1.970  0.2641  0.2032  1.0982
 9406TIP3    H228176   7.029   3.756   1.997  0.1011  0.6802 -0.8614
 9407TIP3   OH228177   2.747   1.472   1.593 -0.6921  0.1537  0.3375
 9407TIP3    H128178   2.771   1.495   1.682 -1.2844  0.1310  0.5090
 9407TIP3    H228179   2.826   1.488   1.541 -0.6517  1.1400  0.6963
 9408TIP3   OH228180   7.038   6.993   2.811  0.3575 -0.0481 -0.4816
 9408TIP3    H128181   7.085   7.021   2.890  0.4085  0.4618 -0.6919
 9408TIP3    H228182   6.953   7.035   2.818  0.6979  0.7962 -1.1713
 9409TIP3   OH228183   4.960   6.801   4.278 -0.4392 -0.4235  0.1457
 9409TIP3    H128184   4.971   6.784   4.372 -3.3189 -2.5763  0.2407
 9409TIP3    H228185   5.038   6.762   4.238  1.1400  1.0603  1.6083
 9410TIP3   OH228186   7.667   1.844   5.085 -0.4230  0.9082  0.4153
 9410TIP3    H128187   7.732   1.834   5.154 -1.0752  0.9756  1.0466
 9410TIP3    H228188   7.617   1.762   5.086 -0.1060  0.6953 -0.3304
 9411TIP3   OH228189   0.933   1.453   6.468  0.7646  0.0496  0.2427
 9411TIP3    H128190   0.901   1.542   6.455  0.7346 -0.1509 -1.3077
 9411TIP3    H228191   0.948   1.445   6.562  1.0882  1.7938  0.3606
 9412TIP3   OH228192   3.905   4.125   3.543  0.2288  0.1430  0.0694
 9412TIP3    H128193   3.967   4.054   3.529 -2.4081 -2.2861 -0.1006
 9412TIP3    H228194   3.942   4.175   3.616  1.9115 -1.7483  0.5785
 9413TIP3   OH228195   1.838   7.160   3.075  0.0187  0.5426 -0.3830
 9413TIP3    H128196   1.915   7.119   3.035  0.0202  0.3477 -0.1861
 9413TIP3    H228197   1.791   7.198   3.001  0.2259  0.5324 -0.5238
 9414TIP3   OH228198   4.003   2.801   2.380  0.3087  0.4404 -0.0010
 9414TIP3    H128199   4.048   2.761   2.454  0.5801 -0.2194 -0.5126
 9414TIP3    H228200   3.917   2.760   2.380 -0.1058  1.2748  0.6240
 9415TIP3   OH228201   5.126   7.224   5.575  0.2642  0.3692  0.3667
 9415TIP3    H128202   5.215   7.190   5.580 -0.5037 -1.6511  1.5139
 9415TIP3    H228203   5.137   7.316   5.553  2.5567 -0.1625 -1.0488
 9416TIP3   OH228204   3.451   2.246   0.897 -0.2924 -0.5304 -0.2827
 9416TIP3    H128205   3.390   2.299   0.845 -1.9887 -0.3316  1.7987
 9416TIP3    H228206   3.453   2.288   0.983  3.1444 -0.3111 -0.3276
 9417TIP3   OH228207   2.870   0.469   2.891  0.4818  0.1772  0.5840
 9417TIP3    H128208   2.805   0.411   2.929  0.1174  0.4492  0.3859
 9417TIP3    H228209   2.945   0.413   2.873 -0.2083 -0.4365 -0.4854
 9418TIP3   OH228210   0.690   5.042   2.687 -0.2857  0.6676  0.3332
 9418TIP3    H128211   0.606   5.010   2.718  0.3641  0.2609  1.7754
 9418TIP3    H228212   0.720   4.975   2.626 -1.5011  1.3865 -1.1188
 9419TIP3   OH228213   3.506   6.481   6.444  0.2102 -0.3677  0.2323
 9419TIP3    H128214   3.565   6.550   6.474 -0.0278  0.5589 -1.3307
 9419TIP3    H228215   3.440   6.527   6.392 -2.6024 -1.1744  2.7454
 9420TIP3   OH228216   3.576   7.029   1.344 -0.4269  0.2767 -0.6590
 9420TIP3    H128217   3.532   7.108   1.313  0.4913  0.5738 -1.2506
 9420TIP3    H228218   3.539   6.959   1.290 -0.8977  0.3690 -0.4603
 9421TIP3   OH228219   2.804   2.334   5.601 -0.2184 -0.0451  0.0018
 9421TIP3    H128220   2.787   2.386   5.522 -0.2775  1.9511  1.2427
 9421TIP3    H228221   2.841   2.398   5.663 -1.7547 -1.1424  2.1553
 9422TIP3   OH228222   6.829   3.315   1.190 -0.2569  0.7440 -0.1229
 9422TIP3    H128223   6.916   3.278   1.182 -0.8223 -0.5183 -0.7749
 9422TIP3    H228224   6.818   3.331   1.284  0.7095  1.0493 -0.0510
 9423TIP3   OH228225   4.980   6.567   3.311 -0.2284  0.7544  0.5105
 9423TIP3    H128226   4.974   6.498   3.245 -0.9054  1.1744  0.1184
 9423TIP3    H228227   5.061   6.614   3.291  0.3606 -0.0656  0.9288
 9424TIP3   OH228228   2.951   3.680   6.231  1.0160  0.5080 -0.1356
 9424TIP3    H128229   2.962   3.623   6.308 -0.2921  1.0415  0.4693
 9424TIP3    H228230   2.916   3.622   6.164  1.9753  0.0809 -0.2837
 9425TIP3   OH228231   0.337   6.243   1.874 -0.2725  0.0758 -0.5299
 9425TIP3    H128232   0.421   6.265   1.835  0.7145 -2.2476  0.0834
 9425TIP3    H228233   0.332   6.296   1.954  1.4844 -0.9831  0.3507
 9426TIP3   OH228234   7.080   6.830   2.308  0.3545  0.4441 -0.2423
 9426TIP3    H128235   7.162   6.784   2.325 -0.3143 -0.4083  0.7716
 9426TIP3    H228236   7.045   6.851   2.394 -0.9824 -0.0881 -0.6266
 9427TIP3   OH228237   2.012   3.513   4.175  0.0525 -0.2172 -0.2085
 9427TIP3    H128238   2.078   3.466   4.226 -0.4543 -0.5385  0.1537
 9427TIP3    H228239   2.016   3.473   4.088  1.7913  1.1602 -0.8203
 9428TIP3   OH228240   0.112   5.036   6.398  0.3458 -0.4338  0.1377
 9428TIP3    H128241   0.149   5.018   6.312  0.7795 -0.8333  0.3970
 9428TIP3    H228242   0.039   4.975   6.405 -0.5736  0.5744 -0.5011
 9429TIP3   OH228243   3.614   6.496   4.617  0.1240  0.3996  0.1020
 9429TIP3    H128244   3.703   6.497   4.583  0.6608 -1.2685  1.3152
 9429TIP3    H228245   3.573   6.421   4.573  0.2320 -0.5764  1.5867
 9430TIP3   OH228246   2.448   5.809   2.856 -0.3248 -0.0627  0.2920
 9430TIP3    H128247   2.483   5.898   2.859 -1.3654  0.4531 -1.3607
 9430TIP3    H228248   2.365   5.817   2.809 -1.4773 -1.6103  1.9373
 9431TIP3   OH228249   7.109   4.024   2.393  0.1786 -0.5119 -0.7479
 9431TIP3    H128250   7.040   4.069   2.345 -1.5021 -1.7252  0.4247
 9431TIP3    H228251   7.081   4.027   2.484  0.7777 -2.5211 -0.4479
 9432TIP3   OH228252   0.046   5.121   3.542  0.5523  0.6173 -0.2442
 9432TIP3    H128253   0.114   5.121   3.474  2.8195  0.6620  1.8852
 9432TIP3    H228254   0.093   5.141   3.623 -1.9303  0.0126  1.4639
 9433TIP3   OH228255   6.581   4.922   4.389  0.6388 -0.7474  0.2194
 9433TIP3    H128256   6.519   4.896   4.456  0.0995  1.5250  0.7014
 9433TIP3    H228257   6.548   4.883   4.308 -0.0166 -1.5926  0.8835
 9434TIP3   OH228258   1.031   4.818   1.605  0.1462 -0.4271 -0.1420
 9434TIP3    H128259   0.982   4.836   1.685  1.3841  2.2864  0.0941
 9434TIP3    H228260   0.978   4.855   1.534 -0.0296 -1.1218 -0.3897
 9435TIP3   OH228261   7.187   5.975   3.060  0.0748  0.1985  0.3834
 9435TIP3    H128262   7.128   6.050   3.054 -1.0102 -0.7253 -4.2274
 9435TIP3    H228263   7.224   5.966   2.973  2.0595 -3.1834  1.3800
 9436TIP3   OH228264   5.235   4.204   0.936  0.0927  0.4149 -0.5355
 9436TIP3    H128265   5.146   4.171   0.941  0.1059  0.3004 -1.0035
 9436TIP3    H228266   5.227   4.289   0.892  0.3106 -0.0229 -1.4573
 9437TIP3   OH228267   0.475   1.224   6.700  0.1287 -0.1425 -0.1438
 9437TIP3    H128268   0.551   1.282   6.695 -0.1161  0.1900 -0.0563
 9437TIP3    H228269   0.407   1.270   6.650 -0.6907  0.6334  1.5857
 9438TIP3   OH228270   1.676   4.874   6.105  0.0315 -0.2626  0.2597
 9438TIP3    H128271   1.741   4.944   6.102  1.5369 -1.6143  0.3388
 9438TIP3    H228272   1.594   4.916   6.079  0.7741  1.6456  0.8620
 9439TIP3   OH228273   7.545   0.236   6.570  0.1148 -0.4435  0.0991
 9439TIP3    H128274   7.619   0.176   6.558 -0.4490 -1.4173  1.2417
 9439TIP3    H228275   7.539   0.248   6.664 -0.9120 -0.0360 -0.0028
 9440TIP3   OH228276   6.059   1.096   3.686  0.3597 -0.2939 -0.0307
 9440TIP3    H128277   6.020   1.009   3.687 -1.1660  0.2637 -2.1658
 9440TIP3    H228278   6.122   1.094   3.615  1.0558  0.0611  0.5682
 9441TIP3   OH228279   2.564   0.558   4.189 -0.1503 -0.0485 -0.9073
 9441TIP3    H128280   2.472   0.584   4.184 -0.5649 -0.9582  1.1814
 9441TIP3    H228281   2.576   0.497   4.116 -1.3435 -0.3353 -0.8774
 9442TIP3   OH228282   1.612   3.427   0.857 -0.1932  0.0364 -0.2408
 9442TIP3    H128283   1.594   3.516   0.888 -2.4942 -0.3466 -0.2736
 9442TIP3    H228284   1.679   3.437   0.790 -0.7917  1.8280 -0.6228
 9443TIP3   OH228285   4.976   5.749   2.386 -0.1180  0.3755  0.2476
 9443TIP3    H128286   4.893   5.752   2.434 -0.0358 -1.0864  0.5292
 9443TIP3    H228287   4.950   5.753   2.293 -0.4415  0.7067  0.3502
 9444TIP3   OH228288   3.822   5.538   6.006  0.5543 -0.1812 -0.5032
 9444TIP3    H128289   3.909   5.535   5.966  1.5186 -1.0473  1.5019
 9444TIP3    H228290   3.808   5.631   6.025  0.8864  0.0019 -1.1151
 9445TIP3   OH228291   3.617   2.182   3.218  0.0862 -0.0737 -0.2256
 9445TIP3    H128292   3.637   2.243   3.147 -0.3498  0.6286  0.2390
 9445TIP3    H228293   3.663   2.102   3.194  2.2476  0.9931  0.0632
 9446TIP3   OH228294   0.448   3.389   5.844 -0.0923  0.0385 -0.0347
 9446TIP3    H128295   0.426   3.303   5.808 -0.8389  1.1532 -2.4784
 9446TIP3    H228296   0.531   3.412   5.803 -0.3999  0.8893 -0.2060
 9447TIP3   OH228297   0.173   2.902   3.491  0.3392 -0.1489  0.1557
 9447TIP3    H128298   0.111   2.860   3.432 -1.0365  3.3790 -1.2082
 9447TIP3    H228299   0.258   2.895   3.447 -0.1537 -0.1097 -0.8079
 9448TIP3   OH228300   0.405   0.231   4.810 -0.1871 -0.0767 -0.6308
 9448TIP3    H128301   0.464   0.185   4.870 -1.8688 -2.2986 -0.5895
 9448TIP3    H228302   0.320   0.190   4.823 -1.1266  1.0163 -2.8300
 9449TIP3   OH228303   4.494   2.985   4.602 -0.2024  0.0519 -0.2056
 9449TIP3    H128304   4.403   2.991   4.572 -1.2921  0.7800  2.9474
 9449TIP3    H228305   4.509   2.891   4.614 -1.2886  0.0417  1.2643
 9450TIP3   OH228306   6.932   6.217   4.977  0.3783 -0.0907  0.2830
 9450TIP3    H128307   6.997   6.259   4.922  0.1472 -0.4163 -0.2452
 9450TIP3    H228308   6.973   6.135   5.006  0.1393 -0.3833 -0.1982
 9451TIP3   OH228309   1.454   6.939   3.919 -0.4601  0.1508  0.5816
 9451TIP3    H128310   1.543   6.962   3.890 -0.5280 -0.8590 -0.5367
 9451TIP3    H228311   1.429   7.008   3.980  0.9972  0.5940  0.7130
 9452TIP3   OH228312   8.322   7.497   4.354 -0.0297 -0.0537  0.0987
 9452TIP3    H128313   8.238   7.518   4.394  0.1556 -0.2514  0.6012
 9452TIP3    H228314   8.305   7.500   4.259 -0.5287  0.1852  0.1913
 9453TIP3   OH228315   7.256   3.878   5.889  0.1389 -0.6346  0.8334
 9453TIP3    H128316   7.207   3.802   5.920 -0.0654 -1.0039 -0.3326
 9453TIP3    H228317   7.296   3.849   5.807  0.1077  0.4951  0.3940
 9454TIP3   OH228318   0.057   2.678   5.287  0.0825  0.4856  0.4457
 9454TIP3    H128319   0.084   2.739   5.218 -0.5142  0.4363  0.1673
 9454TIP3    H228320   0.010   2.608   5.241 -2.7158  1.7983  1.1339
 9455TIP3   OH228321   1.002   6.843   3.256  0.0973  0.0373  0.6923
 9455TIP3    H128322   0.989   6.842   3.161  1.0526 -1.3501  0.5385
 9455TIP3    H228323   0.934   6.901   3.289 -0.0882  0.7693 -0.8576
 9456TIP3   OH228324   1.657   3.205   1.449 -0.0372 -0.4127 -0.0819
 9456TIP3    H128325   1.622   3.147   1.517  0.7458 -1.3503 -0.4510
 9456TIP3    H228326   1.750   3.182   1.444  0.4252  1.2521  0.1248
 9457TIP3   OH228327   8.015   7.249   0.484 -0.2764  0.2783  0.3668
 9457TIP3    H128328   8.051   7.274   0.399  0.0915  2.3652  1.0747
 9457TIP3    H228329   8.059   7.307   0.546 -1.4120 -0.3803  1.8396
 9458TIP3   OH228330   4.302   6.869   5.540  0.4777  0.0642  0.1128
 9458TIP3    H128331   4.325   6.866   5.447 -2.4185  1.8989 -0.7920
 9458TIP3    H228332   4.287   6.777   5.564 -0.8202 -0.3170 -1.8924
 9459TIP3   OH228333   1.773   2.651   5.238  0.0066 -0.2044  0.1631
 9459TIP3    H128334   1.724   2.584   5.190 -0.9186  0.6041 -0.0429
 9459TIP3    H228335   1.709   2.718   5.259  0.7272  0.1988  1.1784
 9460TIP3   OH228336   4.319   3.170   5.059  0.4040 -0.5492  0.4115
 9460TIP3    H128337   4.383   3.154   5.128  0.9814 -0.9124 -0.1979
 9460TIP3    H228338   4.307   3.085   5.017 -1.0273 -0.6505  0.9751
 9461TIP3   OH228339   5.184   0.443   0.973  0.0941 -0.5048 -0.1093
 9461TIP3    H128340   5.264   0.495   0.964  0.8917 -1.4940  1.0156
 9461TIP3    H228341   5.181   0.391   0.892 -0.7778  1.3036 -1.3063
 9462TIP3   OH228342   5.406   3.333   3.872  0.2639 -0.0048 -0.4392
 9462TIP3    H128343   5.453   3.318   3.789 -0.4508 -0.8044 -0.7153
 9462TIP3    H228344   5.463   3.392   3.921  0.3486  1.1184 -1.8075
 9463TIP3   OH228345   4.653   4.484   0.047 -0.6150  0.4184  0.6282
 9463TIP3    H128346   4.733   4.536   0.038 -0.5472 -0.0268 -2.6150
 9463TIP3    H228347   4.599   4.511  -0.027 -0.5936 -3.9853 -1.3258
 9464TIP3   OH228348   6.203   1.677   0.092 -0.2465  0.5249 -0.1726
 9464TIP3    H128349   6.117   1.657   0.129 -0.4395  2.0103  0.2396
 9464TIP3    H228350   6.189   1.754   0.038  0.9226  1.1169  0.3387
 9465TIP3   OH228351   7.571   6.803   4.994 -0.3680 -0.4040 -0.2784
 9465TIP3    H128352   7.560   6.724   4.942  0.7833 -1.5031  1.0405
 9465TIP3    H228353   7.638   6.779   5.059 -0.5351  1.4160  0.6231
 9466TIP3   OH228354   6.532   0.423  -0.019 -0.0868 -0.4044 -0.0278
 9466TIP3    H128355   6.533   0.424   0.077  1.5318  2.3563  0.0288
 9466TIP3    H228356   6.607   0.368  -0.042  1.3104  1.2052  0.4270
 9467TIP3   OH228357   1.937   6.329   6.314  0.2947 -0.2263  0.1258
 9467TIP3    H128358   1.932   6.421   6.286  0.2148  0.6828  2.8117
 9467TIP3    H228359   2.031   6.311   6.318  0.3357  0.0565  0.4879
 9468TIP3   OH228360   3.626   3.528   0.393  0.5386 -0.2137 -0.2551
 9468TIP3    H128361   3.539   3.501   0.423  0.7080  0.3987  0.8730
 9468TIP3    H228362   3.666   3.448   0.358  0.4651 -1.1130  1.5930
 9469TIP3   OH228363   6.734   1.927   5.455  0.7416  0.0461 -0.7202
 9469TIP3    H128364   6.754   1.871   5.530  0.8298 -1.5388 -1.8832
 9469TIP3    H228365   6.819   1.942   5.414  0.6824  0.8534 -0.5697
 9470TIP3   OH228366   3.537   7.191   1.767  0.8167 -0.3858  0.2853
 9470TIP3    H128367   3.521   7.221   1.678 -0.4423 -1.6697  0.0422
 9470TIP3    H228368   3.570   7.268   1.813 -1.2079  1.0848 -0.5760
 9471TIP3   OH228369   7.952   4.420   4.509  0.0011 -0.1127 -0.9077
 9471TIP3    H128370   7.895   4.481   4.462 -1.5363 -1.0012 -0.2867
 9471TIP3    H228371   7.936   4.335   4.468  0.4359 -0.4820 -0.3305
 9472TIP3   OH228372   0.625   1.473   3.320  0.1954  0.6520  0.0731
 9472TIP3    H128373   0.659   1.469   3.410 -0.3936  0.4486  0.2928
 9472TIP3    H228374   0.581   1.389   3.308  1.2457  0.2185 -0.8060
 9473TIP3   OH228375   2.565   7.531   3.329 -0.1536 -0.2508 -0.3883
 9473TIP3    H128376   2.500   7.511   3.396 -1.1110  0.6564 -1.0039
 9473TIP3    H228377   2.624   7.593   3.370 -0.3101 -0.2478 -0.1666
 9474TIP3   OH228378   2.981   1.874   5.018  0.2129  0.1491 -0.3820
 9474TIP3    H128379   3.010   1.925   4.942 -0.7192  0.8346 -0.3041
 9474TIP3    H228380   2.977   1.938   5.089 -0.8510 -0.0549 -0.2473
 9475TIP3   OH228381   3.782   4.205   2.725  0.0609  0.0441 -0.2522
 9475TIP3    H128382   3.833   4.247   2.656 -0.2431  1.2240  0.2150
 9475TIP3    H228383   3.832   4.127   2.747  3.8789  2.8661  2.6906
 9476TIP3   OH228384   0.276   2.857   4.700  0.2077 -0.2857  0.0003
 9476TIP3    H128385   0.350   2.812   4.661 -0.5484 -2.6133  1.0814
 9476TIP3    H228386   0.202   2.836   4.644  0.0658  0.8386 -0.2698
 9477TIP3   OH228387   7.807   6.913   3.058  0.4405 -0.2383  0.3320
 9477TIP3    H128388   7.877   6.865   3.014  1.0402 -0.0516  1.0634
 9477TIP3    H228389   7.825   7.005   3.039  0.3837 -0.1895  0.5124
 9478TIP3   OH228390   5.505   1.482   0.733 -0.2549 -0.1523  0.0543
 9478TIP3    H128391   5.539   1.402   0.694  1.5930  0.9566 -0.7839
 9478TIP3    H228392   5.410   1.477   0.722 -0.3574 -2.8709  1.4041
 9479TIP3   OH228393   1.988   6.244   3.457 -0.0750  0.5900  0.4199
 9479TIP3    H128394   2.021   6.301   3.388  0.6977 -0.5527 -0.2004
 9479TIP3    H228395   1.893   6.243   3.445 -0.2309  2.5700  1.1361
 9480TIP3   OH228396   5.848   0.309   2.882  0.2962  0.6728  0.4737
 9480TIP3    H128397   5.858   0.339   2.972  0.7207  1.2458  0.2491
 9480TIP3    H228398   5.899   0.372   2.830  1.1463 -0.3851 -0.0358
 9481TIP3   OH228399   5.047   1.095   0.589  0.0192  0.3573 -0.2251
 9481TIP3    H128400   5.000   1.178   0.591  2.3179  1.7585 -0.5483
 9481TIP3    H228401   5.006   1.045   0.519 -1.3319  1.2578 -0.1074
 9482TIP3   OH228402   1.093   6.755   1.037  0.4684  0.1757 -0.0602
 9482TIP3    H128403   1.014   6.716   1.073  0.5138  0.3563  0.2375
 9482TIP3    H228404   1.063   6.829   0.985  0.2876 -0.9477 -1.6003
 9483TIP3   OH228405   6.072   6.303   1.029  0.5549 -0.0050  0.3784
 9483TIP3    H128406   5.994   6.263   0.989  0.6407  0.0906  0.1159
 9483TIP3    H228407   6.037   6.372   1.086  0.3886 -0.6256  1.0455
 9484TIP3   OH228408   7.724   4.623   1.197 -0.6177  0.8932 -0.1356
 9484TIP3    H128409   7.755   4.633   1.108 -1.1816  0.3382 -0.4054
 9484TIP3    H228410   7.799   4.647   1.252 -0.2035  1.0300 -0.7547
 9485TIP3   OH228411   4.998   5.832   1.493  0.2096  0.3968 -0.3774
 9485TIP3    H128412   5.057   5.907   1.493 -0.9993  1.3719  0.2256
 9485TIP3    H228413   5.053   5.758   1.520  1.4260  1.0307 -1.0594
 9486TIP3   OH228414   7.381   0.782   5.558 -0.0976 -0.3602  0.1463
 9486TIP3    H128415   7.401   0.762   5.649  0.2863  0.0183  0.1485
 9486TIP3    H228416   7.389   0.878   5.552 -0.4784 -0.3469 -0.1989
 9487TIP3   OH228417   7.968   3.611   1.440 -0.1544 -0.3463 -0.4185
 9487TIP3    H128418   8.019   3.691   1.446 -0.1586 -0.3133 -0.8284
 9487TIP3    H228419   8.021   3.545   1.486  0.7099 -0.5418 -1.6684
 9488TIP3   OH228420   7.762   2.220   3.113  0.3042 -0.7525  0.3328
 9488TIP3    H128421   7.812   2.216   3.032 -0.4175 -1.2454 -0.0999
 9488TIP3    H228422   7.671   2.220   3.085  0.0424  0.8295  1.0754
 9489TIP3   OH228423   4.563   3.353   1.653 -0.0188  0.1437  0.6055
 9489TIP3    H128424   4.478   3.313   1.669 -0.2672  0.1599 -0.6048
 9489TIP3    H228425   4.625   3.281   1.663 -0.3925 -0.3974 -0.7703
 9490TIP3   OH228426   1.887   3.297   3.299 -0.0301 -0.2453  0.2741
 9490TIP3    H128427   1.824   3.358   3.338 -1.2716  0.2068 -2.2642
 9490TIP3    H228428   1.845   3.211   3.307  1.4725 -0.8476  3.3339
 9491TIP3   OH228429   5.167   0.400   1.246 -0.4523  0.1189  0.0916
 9491TIP3    H128430   5.244   0.345   1.263 -0.8837 -0.5926 -0.2351
 9491TIP3    H228431   5.158   0.400   1.151 -1.6697 -0.9453  0.1848
 9492TIP3   OH228432   0.424   5.985   5.463 -0.3652 -0.1941  0.4550
 9492TIP3    H128433   0.466   5.968   5.547  3.2225  1.5476 -0.7261
 9492TIP3    H228434   0.461   6.069   5.435 -0.6741 -1.1019 -3.2288
 9493TIP3   OH228435   5.772   3.648   2.067 -0.2951  0.1630 -0.3084
 9493TIP3    H128436   5.731   3.611   2.145  0.1257 -2.2308 -1.1315
 9493TIP3    H228437   5.700   3.665   2.007 -0.3361 -1.5472 -0.7721
 9494TIP3   OH228438   5.729   3.566   5.886  0.2206 -0.0470  0.1908
 9494TIP3    H128439   5.740   3.485   5.935 -0.2765 -0.5036 -0.4331
 9494TIP3    H228440   5.683   3.625   5.946 -0.9772 -0.8251  0.0773
 9495TIP3   OH228441   1.365   2.938   5.451 -0.4521  0.2493  0.3701
 9495TIP3    H128442   1.346   3.029   5.473 -2.3453  0.5198 -1.8694
 9495TIP3    H228443   1.303   2.887   5.504  0.0050  0.3320  0.9841
 9496TIP3   OH228444   7.613   4.018   5.092  0.5881  0.2848 -0.1621
 9496TIP3    H128445   7.544   3.970   5.046 -0.2020  0.4860  0.7770
 9496TIP3    H228446   7.566   4.070   5.158  1.7386 -0.9309  1.6997
 9497TIP3   OH228447   2.245   4.626   5.297  0.0474 -0.5223 -0.0621
 9497TIP3    H128448   2.225   4.718   5.316 -1.7013 -1.3379  2.7541
 9497TIP3    H228449   2.172   4.596   5.243  0.1518 -0.4640 -0.2346
 9498TIP3   OH228450   2.603   4.861   3.642  0.0490 -0.2648 -0.6293
 9498TIP3    H128451   2.638   4.888   3.557 -0.4253 -0.0071 -0.7426
 9498TIP3    H228452   2.665   4.897   3.705  0.9865 -1.3275 -0.8872
 9499TIP3   OH228453   8.080   6.724   4.460 -0.1278  0.4135 -0.2384
 9499TIP3    H128454   8.173   6.746   4.453  0.2095 -0.8205  0.1543
 9499TIP3    H228455   8.047   6.732   4.370  0.2918  1.0998 -0.3380
 9500TIP3   OH228456   6.552   6.085   1.067 -1.1072  0.3915 -0.5377
 9500TIP3    H128457   6.484   6.060   1.006 -0.1764 -0.2892 -1.3293
 9500TIP3    H228458   6.585   6.169   1.033 -1.8157  0.9368  0.0864
 9501TIP3   OH228459   5.785   5.025   1.612  0.7467  0.4337  0.2309
 9501TIP3    H128460   5.868   5.066   1.586  0.4251  0.9439 -0.0027
 9501TIP3    H228461   5.765   4.965   1.541  1.0485  0.1047  0.4164
 9502TIP3   OH228462   4.432   1.679   6.426 -0.2047 -0.3325 -0.4614
 9502TIP3    H128463   4.448   1.600   6.478  0.8651  0.3082  0.2214
 9502TIP3    H228464   4.403   1.646   6.342  1.1470 -1.5186 -0.5141
 9503TIP3   OH228465   7.776   7.764   4.838  0.7788 -0.8162  0.2765
 9503TIP3    H128466   7.777   7.765   4.934  4.1450  2.8657  0.4226
 9503TIP3    H228467   7.704   7.822   4.814  0.3834 -1.1860  0.5397
 9504TIP3   OH228468   6.550   2.735   5.009  0.1728 -0.4048  0.2949
 9504TIP3    H128469   6.636   2.709   4.976  0.2127 -1.0564  0.9003
 9504TIP3    H228470   6.546   2.698   5.097 -0.2072  0.7374  0.7698
 9505TIP3   OH228471   5.933   2.537   6.346  0.4145  0.5026  0.4466
 9505TIP3    H128472   5.962   2.553   6.435 -1.2705 -0.2322  1.1713
 9505TIP3    H228473   5.905   2.445   6.345  0.1553  0.5697 -0.7562
 9506TIP3   OH228474   2.417   1.324   4.346 -0.4998  0.2659  0.1196
 9506TIP3    H128475   2.467   1.336   4.266  1.9150  1.2520  1.6629
 9506TIP3    H228476   2.462   1.253   4.392 -0.3409  1.3420  1.6756
 9507TIP3   OH228477   4.651   0.576   3.911  0.1313  0.3528 -0.2963
 9507TIP3    H128478   4.601   0.577   3.830 -0.3269  1.2161 -0.0148
 9507TIP3    H228479   4.588   0.601   3.979  0.8855  1.2425  0.0944
 9508TIP3   OH228480   7.899   2.626   6.060 -0.5779 -0.5792  0.6334
 9508TIP3    H128481   7.924   2.708   6.018 -3.3809  1.3504  2.3902
 9508TIP3    H228482   7.976   2.570   6.051  0.9837  1.7114 -1.8315
 9509TIP3   OH228483   4.453   3.807   3.855 -0.1702  0.2913  0.1479
 9509TIP3    H128484   4.522   3.761   3.902 -0.5363 -0.1166  0.2963
 9509TIP3    H228485   4.477   3.900   3.860 -0.1608  0.2440  1.0660
 9510TIP3   OH228486   4.333   5.081   4.262 -0.7989  0.5462 -0.3900
 9510TIP3    H128487   4.391   5.075   4.186 -0.8549  0.9042 -0.4634
 9510TIP3    H228488   4.353   5.003   4.313 -0.9107  0.1986 -0.8739
 9511TIP3   OH228489   6.378   0.481   5.277  0.2333  0.0385 -0.3453
 9511TIP3    H128490   6.471   0.457   5.274  0.2696 -0.0598  0.9720
 9511TIP3    H228491   6.344   0.435   5.353 -1.4963 -1.8546 -2.1477
 9512TIP3   OH228492   1.094   6.440   2.693 -0.5252 -0.0429  0.4813
 9512TIP3    H128493   1.119   6.404   2.608 -2.5505 -0.4472  0.0062
 9512TIP3    H228494   1.147   6.519   2.702  0.9764 -0.9034 -0.3495
 9513TIP3   OH228495   7.185   0.572   0.896 -0.3151  0.3079 -0.4718
 9513TIP3    H128496   7.105   0.622   0.885 -0.4437  0.3189  0.4390
 9513TIP3    H228497   7.156   0.484   0.920 -0.0614  0.2143 -0.4980
 9514TIP3   OH228498   5.093   0.053   0.650  0.2943  0.2664  0.0058
 9514TIP3    H128499   5.063   0.118   0.587  1.7800  0.6729 -0.3266
 9514TIP3    H228500   5.013   0.016   0.687 -0.6800 -0.9275 -3.0410
 9515TIP3   OH228501   0.249   3.189   5.117  0.5341  0.2410 -0.5720
 9515TIP3    H128502   0.316   3.250   5.150  0.8796 -0.6276  0.4009
 9515TIP3    H228503   0.172   3.244   5.103  1.1886  1.1144 -0.8724
 9516TIP3   OH228504   4.130   1.764   5.814  0.2441  0.4544  0.5863
 9516TIP3    H128505   4.180   1.738   5.891 -0.8581  0.0242  1.1854
 9516TIP3    H228506   4.043   1.727   5.829  0.8244 -2.6039 -2.3935
 9517TIP3   OH228507   8.082   6.138   6.437 -0.3546 -0.0729  0.0765
 9517TIP3    H128508   8.058   6.204   6.502 -0.2333 -0.0200  0.0673
 9517TIP3    H228509   7.999   6.096   6.414 -0.5806  0.7164 -0.6127
 9518TIP3   OH228510   4.063   0.781   5.192  0.0879  0.1182  0.6894
 9518TIP3    H128511   3.978   0.740   5.210  0.5835 -0.8116  0.9979
 9518TIP3    H228512   4.082   0.758   5.101  0.7543 -1.0906  1.1151
 9519TIP3   OH228513   6.689   6.473   0.095 -0.4602  0.1591  0.0429
 9519TIP3    H128514   6.714   6.529   0.022 -0.2396 -0.1143 -0.0940
 9519TIP3    H228515   6.595   6.487   0.105 -0.2398  1.2881  0.6467
 9520TIP3   OH228516   7.278   2.911   0.051 -0.5359  0.1995 -0.1266
 9520TIP3    H128517   7.233   2.994   0.068 -0.1482  0.5501 -0.7807
 9520TIP3    H228518   7.309   2.882   0.137 -0.4999  0.8318  0.0773
 9521TIP3   OH228519   5.734   1.841   5.271 -0.3636 -0.3830 -0.3382
 9521TIP3    H128520   5.799   1.770   5.265  0.4588  0.4495 -2.2882
 9521TIP3    H228521   5.762   1.892   5.347  1.5583  0.1729 -1.3470
 9522TIP3   OH228522   0.157   5.856   2.910 -0.5095  0.1191  0.0802
 9522TIP3    H128523   0.151   5.771   2.866  0.0134  0.0825  0.0692
 9522TIP3    H228524   0.175   5.918   2.839 -1.6386  0.3535 -0.0106
 9523TIP3   OH228525   4.901   0.889   5.691  0.0279  0.0636  0.4598
 9523TIP3    H128526   4.868   0.889   5.601 -0.6430  0.3053  0.7001
 9523TIP3    H228527   4.830   0.925   5.743  1.3584  2.5439  0.7425
 9524TIP3   OH228528   3.545   7.584   5.405 -0.0024  0.8577 -0.0445
 9524TIP3    H128529   3.598   7.602   5.482 -1.7612  0.2856  1.3815
 9524TIP3    H228530   3.602   7.603   5.331  2.2593 -0.0389  1.3689
 9525TIP3   OH228531   7.519   1.147   0.209 -0.2392  0.1522 -0.5209
 9525TIP3    H128532   7.526   1.204   0.132  0.8013  1.3021  0.3800
 9525TIP3    H228533   7.607   1.112   0.221  0.0994  1.4623  1.2054
 9526TIP3   OH228534   1.882   1.476   5.229 -0.3997  0.3221  0.3925
 9526TIP3    H128535   1.813   1.409   5.222 -1.7154  1.7330 -1.0474
 9526TIP3    H228536   1.952   1.444   5.172 -1.3408  0.5058 -0.9147
 9527TIP3   OH228537   2.695   0.667   1.678 -0.2477 -0.1105  0.1020
 9527TIP3    H128538   2.739   0.609   1.616  0.0412 -0.2856  0.4669
 9527TIP3    H228539   2.763   0.727   1.707  0.0662 -1.1301  1.5775
 9528TIP3   OH228540   0.849   0.215   2.177 -0.2687  0.6027 -0.0610
 9528TIP3    H128541   0.813   0.288   2.227  0.2777 -0.1716  1.5144
 9528TIP3    H228542   0.944   0.222   2.189 -0.2738 -1.1570  1.2940
 9529TIP3   OH228543   7.895   3.278   6.268  0.3731  0.4775  0.0172
 9529TIP3    H128544   7.869   3.213   6.203 -2.0265  0.0401  1.3273
 9529TIP3    H228545   7.915   3.227   6.346 -0.1422  1.2273  0.6432
 9530TIP3   OH228546   6.833   4.673   2.335 -0.2052 -0.3987 -0.3830
 9530TIP3    H128547   6.762   4.612   2.356 -1.3184  1.3477  1.2273
 9530TIP3    H228548   6.875   4.691   2.419 -0.5655  1.7930 -0.6091
 9531TIP3   OH228549   7.503   7.802   2.796  0.1147  0.4976 -0.1518
 9531TIP3    H128550   7.536   7.829   2.710  0.6145  0.2011 -0.0563
 9531TIP3    H228551   7.439   7.734   2.777  0.9953 -0.3229 -0.2433
 9532TIP3   OH228552   3.229   1.376   5.997 -0.2843  0.8344  0.4700
 9532TIP3    H128553   3.222   1.281   6.010 -0.1968  0.9314  1.2298
 9532TIP3    H228554   3.216   1.387   5.902  1.5690 -0.1001  0.0516
 9533TIP3   OH228555   1.282   5.429   6.557  0.4551  0.1368 -0.0015
 9533TIP3    H128556   1.214   5.475   6.507 -0.2430 -1.5726 -0.6903
 9533TIP3    H228557   1.364   5.461   6.519  0.0093  1.0148 -0.2670
 9534TIP3   OH228558   5.733   4.217   5.932  0.0060  0.2556 -0.2257
 9534TIP3    H128559   5.668   4.163   5.889  1.0411 -0.1857 -1.2860
 9534TIP3    H228560   5.792   4.155   5.975  0.2260  0.6040 -0.0154
 9535TIP3   OH228561   1.271   7.037   6.423 -0.1591  0.6362 -0.4815
 9535TIP3    H128562   1.279   6.992   6.507  1.9767  2.0330  0.1374
 9535TIP3    H228563   1.352   7.017   6.377 -0.1522  1.9907 -1.1071
 9536TIP3   OH228564   3.609   3.377   2.012  0.1062 -0.1034  0.2430
 9536TIP3    H128565   3.697   3.411   2.028  0.6253 -1.6296  0.8024
 9536TIP3    H228566   3.608   3.358   1.918  0.8897 -1.4277  0.4868
 9537TIP3   OH228567   5.176   7.670   6.141 -0.6590  0.1784  0.1813
 9537TIP3    H128568   5.164   7.583   6.179  0.9958 -1.2936 -2.3453
 9537TIP3    H228569   5.088   7.705   6.132 -1.2952 -0.7938  2.1205
 9538TIP3   OH228570   0.826   2.143   6.436  1.0038 -0.0216 -0.1371
 9538TIP3    H128571   0.897   2.195   6.472  0.5042  0.8001 -0.3088
 9538TIP3    H228572   0.783   2.202   6.373  0.1264 -0.4671  0.0285
 9539TIP3   OH228573   5.000   6.099   1.659  0.2623  0.2390 -0.0250
 9539TIP3    H128574   5.056   6.081   1.583 -0.8881  0.1688 -0.8817
 9539TIP3    H228575   4.917   6.130   1.621 -0.9844 -1.5200  1.1215
 9540TIP3   OH228576   8.106   6.635   2.728  0.0619  0.0363 -0.3234
 9540TIP3    H128577   8.185   6.647   2.675  0.1494  1.9440  0.1642
 9540TIP3    H228578   8.034   6.651   2.667  0.1274  0.6880 -0.2384
 9541TIP3   OH228579   7.850   3.797   0.949  0.0944 -0.2947  0.2095
 9541TIP3    H128580   7.910   3.856   0.995  1.6634 -1.8323  0.2614
 9541TIP3    H228581   7.875   3.804   0.857  2.7171 -3.2677  0.5145
 9542TIP3   OH228582   1.760   3.670   6.537 -0.0590  0.2062  0.3386
 9542TIP3    H128583   1.826   3.648   6.471  1.3916  0.5823  1.5918
 9542TIP3    H228584   1.706   3.737   6.496  0.9492  0.5914 -0.4084
 9543TIP3   OH228585   6.394   6.192   3.014  0.3248 -0.3540  0.1354
 9543TIP3    H128586   6.365   6.101   3.012 -0.1119 -0.2271  0.4528
 9543TIP3    H228587   6.465   6.196   2.951  0.5307 -0.9762  0.3209
 9544TIP3   OH228588   5.984   2.466   5.301 -0.2002 -0.3094 -0.2442
 9544TIP3    H128589   5.927   2.508   5.236  0.0164  0.4574  0.0486
 9544TIP3    H228590   6.016   2.387   5.258  0.5142  0.5547 -1.3555
 9545TIP3   OH228591   3.537   7.320   2.948 -0.2185  0.0871 -0.3947
 9545TIP3    H128592   3.551   7.305   2.854 -1.1263  1.3202 -0.7508
 9545TIP3    H228593   3.444   7.342   2.955 -0.1198  0.1821  0.7820
 9546TIP3   OH228594   6.374   7.470   0.766  0.2558 -0.2198  0.2487
 9546TIP3    H128595   6.401   7.497   0.854  0.9693 -0.7172  0.1895
 9546TIP3    H228596   6.294   7.420   0.780 -1.7863  2.8212  0.2673
 9547TIP3   OH228597   0.665   6.242   4.341 -0.0520  0.3686 -0.6729
 9547TIP3    H128598   0.691   6.313   4.282 -1.6674  0.7389 -0.9970
 9547TIP3    H228599   0.576   6.265   4.367  0.3990 -0.1092  1.4645
 9548TIP3   OH228600   0.753   7.478   2.306 -0.0836 -0.9257 -0.0030
 9548TIP3    H128601   0.716   7.428   2.233  1.4311  1.6837 -2.7688
 9548TIP3    H228602   0.676   7.516   2.349 -0.9925  0.7223 -2.8187
 9549TIP3   OH228603   2.903   1.832   5.649 -0.2718  0.2568 -0.4959
 9549TIP3    H128604   2.893   1.923   5.621 -1.4728  0.4169  0.3620
 9549TIP3    H228605   2.814   1.801   5.663  0.1678 -0.5984  0.6113
 9550TIP3   OH228606   5.519   2.878   5.908 -0.3503  0.1384 -0.3572
 9550TIP3    H128607   5.551   2.965   5.884 -1.5060  0.7332  0.1858
 9550TIP3    H228608   5.439   2.868   5.856 -1.3275  0.2645  1.0778
 9551TIP3   OH228609   7.720   2.502   3.928 -0.3539 -0.1602 -0.0026
 9551TIP3    H128610   7.784   2.450   3.975 -0.8805 -1.1231 -0.3228
 9551TIP3    H228611   7.741   2.593   3.951 -0.0612 -0.5569  1.3865
 9552TIP3   OH228612   5.081   0.660   5.764  0.1041 -0.2018 -0.5249
 9552TIP3    H128613   5.174   0.679   5.756  0.0493 -0.1037 -0.9741
 9552TIP3    H228614   5.037   0.742   5.740 -0.0865  0.2416  1.2176
 9553TIP3   OH228615   7.218   1.651   0.667 -0.6848  0.0638 -0.0683
 9553TIP3    H128616   7.300   1.689   0.636 -1.1700  1.7478  0.6404
 9553TIP3    H228617   7.180   1.611   0.588  0.5973 -0.3787 -0.4915
 9554TIP3   OH228618   5.061   5.085   0.727 -0.5945  0.3662  0.0214
 9554TIP3    H128619   5.143   5.052   0.689 -0.9583 -0.0486 -0.4032
 9554TIP3    H228620   5.046   5.168   0.681 -0.8849  0.0034 -0.5414
 9555TIP3   OH228621   6.340   0.077   0.646  0.0068  0.5164  0.1360
 9555TIP3    H128622   6.434   0.082   0.628  0.0695  0.0385  0.3263
 9555TIP3    H228623   6.330   0.001   0.703 -0.7637 -0.7752 -1.6452
 9556TIP3   OH228624   0.708   3.493   3.782 -0.7526  0.8799  0.1873
 9556TIP3    H128625   0.674   3.533   3.862 -1.2624  1.3758 -0.2617
 9556TIP3    H228626   0.633   3.445   3.746 -0.8337  1.4935 -0.5045
 9557TIP3   OH228627   1.107   6.522   2.078 -0.1759 -0.2566  0.5134
 9557TIP3    H128628   1.029   6.576   2.070 -1.2107 -1.9319 -1.6621
 9557TIP3    H228629   1.074   6.434   2.096  1.1153 -1.1219 -1.0674
 9558TIP3   OH228630   6.253   4.903   2.065  0.4116  0.0084 -0.1530
 9558TIP3    H128631   6.282   4.817   2.098  0.0628 -0.6590 -1.4937
 9558TIP3    H228632   6.273   4.964   2.136  2.1823 -0.9194  0.2189
 9559TIP3   OH228633   7.991   2.143   2.810 -0.1380 -0.1255  0.6303
 9559TIP3    H128634   8.025   2.058   2.838 -1.2590 -0.3616  1.3496
 9559TIP3    H228635   7.915   2.122   2.756  0.0459  0.4082  0.1608
 9560TIP3   OH228636   4.269   3.733   0.208 -0.2306 -0.0846  0.1073
 9560TIP3    H128637   4.352   3.744   0.254 -0.1646 -1.1427  0.2741
 9560TIP3    H228638   4.274   3.792   0.133  0.2463  0.6114  0.6844
 9561TIP3   OH228639   5.263   1.341   0.155 -0.0479  0.6188  0.4376
 9561TIP3    H128640   5.202   1.386   0.097 -0.7890 -0.8063  0.0556
 9561TIP3    H228641   5.349   1.373   0.129 -0.3939  0.2984 -1.2097
 9562TIP3   OH228642   5.247   3.427   5.759 -0.6376  0.1278  0.5040
 9562TIP3    H128643   5.339   3.447   5.739 -0.7396  0.6311  0.5182
 9562TIP3    H228644   5.251   3.352   5.818 -0.2863 -0.7911 -0.6373
 9563TIP3   OH228645   5.680   3.354   6.048 -0.3333 -0.0895  0.0327
 9563TIP3    H128646   5.618   3.326   5.981 -1.4387 -0.4569  1.1624
 9563TIP3    H228647   5.705   3.272   6.092 -1.4076  0.3474  1.5345
 9564TIP3   OH228648   5.422   4.712   6.027  0.8256  0.4106 -0.4996
 9564TIP3    H128649   5.504   4.755   6.051  0.2754  1.4197 -0.3766
 9564TIP3    H228650   5.450   4.637   5.974  1.9412 -0.6531  1.4871
 9565TIP3   OH228651   2.718   3.226   2.364 -0.1413  0.1934  0.0686
 9565TIP3    H128652   2.702   3.179   2.446  0.4530 -0.6987 -0.3171
 9565TIP3    H228653   2.794   3.182   2.325  0.1325  1.1647 -0.5405
 9566TIP3   OH228654   0.683   3.356   2.403 -0.1172  0.3080 -0.2437
 9566TIP3    H128655   0.674   3.365   2.309 -1.0297  1.0016 -0.1023
 9566TIP3    H228656   0.657   3.265   2.421 -1.1699  0.5379 -0.5296
 9567TIP3   OH228657   0.422   7.707   3.622 -0.1308 -0.2024  0.3964
 9567TIP3    H128658   0.346   7.763   3.635  1.1697  1.7285  0.1342
 9567TIP3    H228659   0.437   7.708   3.528  0.4770 -0.1939  0.4887
 9568TIP3   OH228660   3.924   3.258   2.811 -0.5660  0.6820  0.2724
 9568TIP3    H128661   3.849   3.226   2.861 -1.8728  0.2383 -1.8662
 9568TIP3    H228662   3.911   3.225   2.722  2.0641  0.7862 -0.2496
 9569TIP3   OH228663   4.073   5.215   2.737  0.3898 -0.4751  0.4908
 9569TIP3    H128664   4.068   5.218   2.641 -0.1209 -1.2151  0.4869
 9569TIP3    H228665   4.075   5.307   2.764 -0.8760 -0.2378 -0.1626
 9570TIP3   OH228666   2.063   6.585   0.923 -0.0977  0.3289 -0.3025
 9570TIP3    H128667   2.104   6.504   0.893 -1.0875  0.5783 -2.5814
 9570TIP3    H228668   2.120   6.616   0.993  2.2024 -0.5941 -1.6313
 9571TIP3   OH228669   0.272   1.062   3.224  0.0630  0.2937 -0.1516
 9571TIP3    H128670   0.189   1.096   3.256  0.9539  1.2086  1.2686
 9571TIP3    H228671   0.253   1.034   3.134 -1.3616  2.1091 -0.4848
 9572TIP3   OH228672   2.919   1.567   1.996  0.3002 -0.3689 -0.0883
 9572TIP3    H128673   2.976   1.524   2.060  0.6219 -1.2709 -0.9604
 9572TIP3    H228674   2.903   1.654   2.033  0.6564 -0.7965  1.1040
 9573TIP3   OH228675   6.998   3.201   1.999  0.0147 -0.4262 -0.7595
 9573TIP3    H128676   7.054   3.259   2.051 -0.1667  1.0936 -2.1679
 9573TIP3    H228677   7.039   3.115   2.006  0.1970 -0.2203  1.5603
 9574TIP3   OH228678   8.186   7.445   5.945  0.1654 -0.5234  0.1339
 9574TIP3    H128679   8.169   7.538   5.934  1.4748 -0.1557  0.9204
 9574TIP3    H228680   8.278   7.434   5.921 -0.0122 -1.6475 -0.1041
 9575TIP3   OH228681   2.337   2.131   6.212 -0.1174  0.4187 -0.3034
 9575TIP3    H128682   2.398   2.126   6.139  0.0001 -0.7610 -0.1456
 9575TIP3    H228683   2.372   2.199   6.269  1.9916 -1.2938  0.5957
 9576TIP3   OH228684   6.922   0.925   5.067  0.5749 -0.5173 -0.3008
 9576TIP3    H128685   7.010   0.887   5.064  0.5783 -0.4646 -1.0878
 9576TIP3    H228686   6.929   1.006   5.016 -0.2691 -1.2305 -1.5843
 9577TIP3   OH228687   4.128   7.420   5.518  0.2046  0.0859  0.0600
 9577TIP3    H128688   4.104   7.495   5.571  0.1047 -0.6277  1.0528
 9577TIP3    H228689   4.215   7.395   5.549  0.0021 -0.5485  0.1366
 9578TIP3   OH228690   0.911   0.100   5.468  0.9854  0.1200 -0.5608
 9578TIP3    H128691   0.974   0.105   5.539  1.9450  1.0466 -1.4347
 9578TIP3    H228692   0.963   0.113   5.388  0.0971 -1.8463 -1.5394
 9579TIP3   OH228693   4.129   7.235   3.159 -0.0534  0.0046  0.3628
 9579TIP3    H128694   4.127   7.140   3.145  0.8229 -0.0733  0.7511
 9579TIP3    H228695   4.051   7.266   3.113 -0.5332 -0.9356  0.5051
 9580TIP3   OH228696   4.261   2.418   4.410 -0.0649 -0.1975 -0.9831
 9580TIP3    H128697   4.178   2.445   4.372 -0.1823  1.3172  0.2504
 9580TIP3    H228698   4.283   2.487   4.473  2.0146 -0.6629 -1.1086
 9581TIP3   OH228699   2.090   0.163   6.142  0.2146  0.2381 -0.4811
 9581TIP3    H128700   2.167   0.177   6.198  0.1117 -0.9581 -0.0298
 9581TIP3    H228701   2.126   0.126   6.061  0.2747  1.2419 -0.9390
 9582TIP3   OH228702   7.560   4.366   0.279 -1.0092 -0.7069 -0.9123
 9582TIP3    H128703   7.576   4.416   0.360  0.5621 -0.3947 -1.3816
 9582TIP3    H228704   7.465   4.357   0.275 -1.2552  1.0649 -0.0811
 9583TIP3   OH228705   7.306   0.188   1.241 -0.3882  0.2481  0.2194
 9583TIP3    H128706   7.383   0.196   1.298 -1.9417 -0.7114  2.6277
 9583TIP3    H228707   7.306   0.096   1.214 -0.6501  0.2602  0.1789
 9584TIP3   OH228708   4.389   3.894   4.112  0.1980  0.0303  0.0797
 9584TIP3    H128709   4.385   3.798   4.111 -1.8564  0.0669 -0.5805
 9584TIP3    H228710   4.320   3.921   4.052  2.3284  1.9505 -1.6851
 9585TIP3   OH228711   1.100   4.773   2.151  0.2297 -0.1016  0.0204
 9585TIP3    H128712   1.170   4.822   2.194 -0.9437  0.9178  0.8644
 9585TIP3    H228713   1.101   4.687   2.194  1.3467 -0.3196 -0.4212
 9586TIP3   OH228714   8.190   2.413   2.128  0.3578 -0.3302  0.3043
 9586TIP3    H128715   8.199   2.488   2.069 -0.5690  0.4846  1.1636
 9586TIP3    H228716   8.276   2.371   2.127 -0.1057 -1.6080 -3.2237
 9587TIP3   OH228717   4.470   5.417   1.157  0.2237 -0.6592  0.0146
 9587TIP3    H128718   4.424   5.497   1.132  0.6624 -0.4596 -0.1694
 9587TIP3    H228719   4.410   5.372   1.216 -0.5211 -0.7807 -0.8245
 9588TIP3   OH228720   1.037   7.682   2.137 -0.1324  0.1517 -0.2041
 9588TIP3    H128721   0.967   7.695   2.073 -1.4715 -1.5627  0.8084
 9588TIP3    H228722   1.059   7.770   2.167 -1.4699  0.7709 -0.9450
 9589TIP3   OH228723   7.577   0.029   0.204 -0.5057  0.2352  0.0466
 9589TIP3    H128724   7.573  -0.019   0.121  0.0266  0.6765 -0.2480
 9589TIP3    H228725   7.671   0.047   0.216 -0.7357  1.7054 -0.1577
 9590TIP3   OH228726   5.685   1.083   0.213 -0.0261 -0.7478 -0.1467
 9590TIP3    H128727   5.753   1.148   0.231  1.2813 -2.3518  0.8851
 9590TIP3    H228728   5.642   1.116   0.134  1.2770  0.8309 -0.2557
 9591TIP3   OH228729   0.121   4.616   2.510  0.0897  0.0079 -0.1214
 9591TIP3    H128730   0.208   4.652   2.529 -0.1149  0.0922  0.7125
 9591TIP3    H228731   0.137   4.525   2.484  0.4190 -0.0026  0.1236
 9592TIP3   OH228732   1.946   6.448   2.011 -0.6457 -0.4098  0.3586
 9592TIP3    H128733   1.895   6.522   2.043 -0.5863 -0.4026  0.4377
 9592TIP3    H228734   1.953   6.390   2.087 -1.1228 -0.7326  0.1584
 9593TIP3   OH228735   2.592   2.885   2.828  0.0831 -0.5355  0.7954
 9593TIP3    H128736   2.500   2.883   2.800  0.1528 -0.1751  0.5318
 9593TIP3    H228737   2.640   2.842   2.757  0.2491  0.2972  0.3896
 9594TIP3   OH228738   2.545   3.352   5.912 -0.0690 -0.1861 -0.2055
 9594TIP3    H128739   2.611   3.285   5.928  0.4824  0.5843  0.9236
 9594TIP3    H228740   2.578   3.429   5.959 -1.6112  0.3094  0.1164
 9595TIP3   OH228741   3.977   2.075   0.459 -0.4043  0.0317 -0.1898
 9595TIP3    H128742   3.907   2.010   0.452 -0.2170 -0.2771  0.6554
 9595TIP3    H228743   3.932   2.159   0.451 -1.3140 -0.0328  2.7983
 9596TIP3   OH228744   0.197   6.181   4.259  0.2356  0.0617 -0.4424
 9596TIP3    H128745   0.222   6.105   4.313  0.2660  0.4187  0.0571
 9596TIP3    H228746   0.129   6.225   4.310 -0.2512  0.0113 -1.0354
 9597TIP3   OH228747   2.928   6.417   0.755  0.1776  0.2911  0.1388
 9597TIP3    H128748   2.880   6.358   0.813  2.1822  0.9746  2.6944
 9597TIP3    H228749   2.874   6.496   0.751 -0.1749  0.0943  0.8110
 9598TIP3   OH228750   2.271   1.309   3.795 -0.2247 -0.1702 -0.3053
 9598TIP3    H128751   2.293   1.401   3.808 -1.0979 -0.1064  0.8453
 9598TIP3    H228752   2.177   1.310   3.775 -0.1997 -0.7952 -0.4685
 9599TIP3   OH228753   0.071   6.802   6.561 -0.2544 -0.3129  0.3274
 9599TIP3    H128754   0.139   6.809   6.495  0.6384  0.9112  1.3286
 9599TIP3    H228755   0.023   6.884   6.555  0.4584  0.2506  1.8154
 9600TIP3   OH228756   6.062   3.520   3.437 -0.2536  0.5807 -0.7308
 9600TIP3    H128757   6.042   3.473   3.357 -1.9323  0.1565 -0.0996
 9600TIP3    H228758   6.158   3.525   3.439 -0.1105 -1.0979 -1.7744
 9601TIP3   OH228759   8.255   3.934   1.998  0.2620 -0.3628 -0.2161
 9601TIP3    H128760   8.343   3.949   2.032 -0.5221  3.2785  0.6761
 9601TIP3    H228761   8.199   3.939   2.075 -0.9881  1.5767 -1.1633
 9602TIP3   OH228762   2.109   0.696   3.957 -0.4766  0.1814 -0.1706
 9602TIP3    H128763   2.117   0.752   4.034  1.7608 -0.8154  0.3963
 9602TIP3    H228764   2.099   0.608   3.993 -0.9903 -0.1210 -1.0317
 9603TIP3   OH228765   4.192   4.071   1.206  0.1581 -0.9337  0.4135
 9603TIP3    H128766   4.098   4.076   1.190 -0.0421  0.2047  1.7780
 9603TIP3    H228767   4.231   4.121   1.135 -0.1960 -1.8787 -0.4847
 9604TIP3   OH228768   1.524   3.634   3.227  0.4253 -0.7056  0.9164
 9604TIP3    H128769   1.454   3.569   3.213 -0.9542  0.4905  1.8979
 9604TIP3    H228770   1.588   3.589   3.281 -0.1438 -1.4957  0.9551
 9605TIP3   OH228771   5.808   4.598   4.676 -0.1027  0.3581 -0.1454
 9605TIP3    H128772   5.816   4.503   4.667 -1.3120  0.3385 -1.2530
 9605TIP3    H228773   5.891   4.632   4.644  0.6394 -0.3353  0.9630
 9606TIP3   OH228774   6.769   3.823   3.634 -0.5490  0.3406  0.6546
 9606TIP3    H128775   6.821   3.809   3.714 -0.5432 -0.7638  0.4807
 9606TIP3    H228776   6.835   3.835   3.565 -0.5448  2.7621  1.0061
 9607TIP3   OH228777   0.262   2.971   2.880 -0.1010 -0.1818  0.3491
 9607TIP3    H128778   0.187   2.912   2.889 -0.5340  0.0402 -1.4422
 9607TIP3    H228779   0.229   3.056   2.910 -0.1602 -0.3469  0.7703
 9608TIP3   OH228780   3.592   6.621   4.125 -0.5599 -0.5286 -0.2019
 9608TIP3    H128781   3.552   6.673   4.055 -0.4979 -0.1645  0.0298
 9608TIP3    H228782   3.596   6.680   4.200  1.2458 -0.2404 -0.4768
 9609TIP3   OH228783   2.414   6.037   2.417  0.4063 -0.5207 -0.5475
 9609TIP3    H128784   2.491   6.091   2.432  0.1820 -0.3666  0.0573
 9609TIP3    H228785   2.341   6.090   2.448  0.0042 -0.5029 -1.4855
 9610TIP3   OH228786   2.487   0.880   2.516  0.4025 -0.0635 -0.3385
 9610TIP3    H128787   2.448   0.898   2.602 -1.6234 -1.5801 -0.8731
 9610TIP3    H228788   2.545   0.806   2.531 -0.6054 -0.8840 -0.4104
 9611TIP3   OH228789   4.430   3.721   2.030  0.1610  0.2625  0.1821
 9611TIP3    H128790   4.447   3.647   1.972  0.0008 -1.5640  2.3341
 9611TIP3    H228791   4.341   3.707   2.062  0.4828  0.8227  1.3899
 9612TIP3   OH228792   5.249   3.819   3.321  0.6063 -0.0492 -0.2069
 9612TIP3    H128793   5.177   3.845   3.263  0.3428  1.3902  0.7276
 9612TIP3    H228794   5.234   3.726   3.339 -1.0276  0.2363 -0.0149
 9613TIP3   OH228795   3.599   5.036   1.985 -0.2577  0.0138 -0.0458
 9613TIP3    H128796   3.609   5.055   1.892 -0.5308 -0.2321 -0.1253
 9613TIP3    H228797   3.611   4.941   1.992 -2.6228 -0.3442 -0.1673
 9614TIP3   OH228798   7.699   0.742   3.751  0.1531  0.6343 -0.1591
 9614TIP3    H128799   7.623   0.719   3.804 -0.1425  2.2260  0.1329
 9614TIP3    H228800   7.671   0.818   3.699  1.1601  0.5044 -0.9405
 9615TIP3   OH228801   3.262   0.336   5.906  0.1787  0.1559  0.0586
 9615TIP3    H128802   3.268   0.420   5.862 -1.9566  0.2070 -0.2393
 9615TIP3    H228803   3.271   0.271   5.836 -0.9369  0.1946 -0.1246
 9616TIP3   OH228804   4.955   3.648   1.406 -0.0441 -0.5369  0.1460
 9616TIP3    H128805   4.954   3.556   1.377  2.7815 -0.8300  0.7254
 9616TIP3    H228806   4.985   3.644   1.497  0.0223  0.9651  0.2120
 9617TIP3   OH228807   3.961   1.958   6.765  0.4907 -0.2962  0.2915
 9617TIP3    H128808   3.894   2.008   6.720  0.5711 -0.6182 -0.1974
 9617TIP3    H228809   4.040   2.011   6.757  0.2191  0.2570  1.1891
 9618TIP3   OH228810   1.183   1.588   0.444 -0.4800  0.2999  0.5059
 9618TIP3    H128811   1.098   1.606   0.483 -1.4028 -2.5264  0.0539
 9618TIP3    H228812   1.243   1.581   0.518 -1.2543 -0.4463  1.0898
 9619TIP3   OH228813   3.322   2.526   1.260 -0.2704 -0.5362  0.3009
 9619TIP3    H128814   3.276   2.605   1.290 -2.2680 -1.6506  0.3020
 9619TIP3    H228815   3.375   2.500   1.335 -1.1304 -0.2844  1.0204
 9620TIP3   OH228816   6.431   6.185   3.703  0.9605 -0.5598  0.0172
 9620TIP3    H128817   6.473   6.235   3.633  0.3506 -2.2860 -1.6857
 9620TIP3    H228818   6.353   6.234   3.725  0.5928 -0.5093 -1.3157
 9621TIP3   OH228819   5.354   4.449   5.303 -0.1161 -0.6613  0.2662
 9621TIP3    H128820   5.322   4.503   5.375 -0.2836 -0.5617  0.1190
 9621TIP3    H228821   5.289   4.461   5.233  0.7423  0.3492 -0.4045
 9622TIP3   OH228822   4.490   3.530   1.471  0.3089  0.1402 -0.3089
 9622TIP3    H128823   4.558   3.517   1.405 -1.0243 -2.3056 -1.3012
 9622TIP3    H228824   4.513   3.469   1.541  0.2125  0.7821  0.2993
 9623TIP3   OH228825   0.872   0.082   5.094 -0.3359 -0.0578 -0.3826
 9623TIP3    H128826   0.874   0.097   4.999  1.1059  0.1321 -0.3527
 9623TIP3    H228827   0.952   0.125   5.126 -0.8450 -0.0633  0.9278
 9624TIP3   OH228828   2.437   6.200   4.991  0.2968 -0.0613 -0.8702
 9624TIP3    H128829   2.453   6.161   5.076 -1.1909  0.7095 -0.1982
 9624TIP3    H228830   2.519   6.186   4.942  1.1349 -0.6031  0.6264
 9625TIP3   OH228831   4.057   2.673   3.491 -0.3473 -0.5593  0.0548
 9625TIP3    H128832   4.084   2.585   3.515 -1.1395 -0.4326  1.4974
 9625TIP3    H228833   4.089   2.729   3.562  1.1719  0.5236 -1.3941
 9626TIP3   OH228834   6.127   1.879   0.430  0.1527 -0.1644 -0.6560
 9626TIP3    H128835   6.118   1.960   0.380  1.7042 -0.5020 -1.5268
 9626TIP3    H228836   6.218   1.853   0.419  0.1774 -1.0282  1.1891
 9627TIP3   OH228837   6.036   7.491   1.848 -0.3829  0.4229 -0.4013
 9627TIP3    H128838   6.094   7.537   1.786  1.2154  0.5072  1.0832
 9627TIP3    H228839   6.047   7.537   1.931 -0.0434 -1.5556  0.7208
 9628TIP3   OH228840   5.302   5.813   1.575  0.1444  0.9510 -0.1520
 9628TIP3    H128841   5.372   5.777   1.629 -0.9957  0.8613  1.3658
 9628TIP3    H228842   5.332   5.900   1.549  0.5307  1.2041  1.0932
 9629TIP3   OH228843   6.693   2.718   2.483 -0.6641 -0.4262 -0.5067
 9629TIP3    H128844   6.778   2.743   2.519 -1.0949 -0.7039  0.7630
 9629TIP3    H228845   6.676   2.630   2.518 -1.8440 -0.0357 -0.0245
 9630TIP3   OH228846   6.580   0.584   0.691  0.4583  0.2212 -0.5969
 9630TIP3    H128847   6.579   0.488   0.689 -1.7170  0.0592  2.2032
 9630TIP3    H228848   6.497   0.609   0.650 -0.2135  0.7228  1.0049
 9631TIP3   OH228849   1.888   6.217   1.867  0.0901  0.3073 -0.9461
 9631TIP3    H128850   1.811   6.163   1.885  1.4673 -1.0660  1.2309
 9631TIP3    H228851   1.861   6.306   1.892 -1.8164  0.5561 -3.4600
 9632TIP3   OH228852   7.070   2.407   4.449  0.0478  0.4480 -0.6212
 9632TIP3    H128853   7.119   2.487   4.430  0.4705  0.6412  1.0667
 9632TIP3    H228854   7.122   2.363   4.516 -0.7877 -0.6570 -0.6731
 9633TIP3   OH228855   2.441   0.141   3.664 -0.2862  1.0006 -0.1638
 9633TIP3    H128856   2.385   0.200   3.715  1.5045  2.1077  0.6446
 9633TIP3    H228857   2.510   0.115   3.726 -0.8899 -1.8286 -0.5647
 9634TIP3   OH228858   7.264   0.983   5.289  0.3165 -0.4762  0.4623
 9634TIP3    H128859   7.216   0.962   5.370  0.0339  0.7083  0.6142
 9634TIP3    H228860   7.354   0.955   5.306 -0.0839 -1.7995  0.5474
 9635TIP3   OH228861   3.324   3.212   4.160  0.1471  0.0582  0.1408
 9635TIP3    H128862   3.341   3.169   4.076 -0.3320  1.2830 -0.6084
 9635TIP3    H228863   3.330   3.306   4.141  0.5275  0.3515  1.5941
 9636TIP3   OH228864   6.589   3.786   2.225  0.4546  0.3197  0.2509
 9636TIP3    H128865   6.504   3.745   2.235 -0.0502  0.7447 -1.8552
 9636TIP3    H228866   6.647   3.716   2.197  0.1325  0.5462 -1.0363
 9637TIP3   OH228867   3.722   4.737   3.190 -0.2259  0.0993  0.2154
 9637TIP3    H128868   3.741   4.825   3.157  0.8652 -0.1290  0.1923
 9637TIP3    H228869   3.627   4.731   3.189 -0.2918  1.0392 -0.4224
 9638TIP3   OH228870   6.383   6.439   3.985 -0.1973  0.2160  0.4260
 9638TIP3    H128871   6.339   6.423   4.069 -0.4599  0.4895  0.3431
 9638TIP3    H228872   6.402   6.352   3.951 -0.9286  0.0811  0.3372
 9639TIP3   OH228873   2.747   3.432   0.178  0.4397  0.1177  0.2203
 9639TIP3    H128874   2.674   3.406   0.122  0.3987 -1.5813  1.0121
 9639TIP3    H228875   2.713   3.427   0.267  0.5155  2.7580  0.4825
 9640TIP3   OH228876   0.525   2.857   6.539 -0.2420 -1.1733 -0.4720
 9640TIP3    H128877   0.464   2.857   6.466 -1.1925 -0.2487  0.2898
 9640TIP3    H228878   0.489   2.920   6.601  0.8103 -1.5491  0.5740
 9641TIP3   OH228879   2.348   5.992   5.848  0.2778  0.0176  0.3905
 9641TIP3    H128880   2.429   6.025   5.809 -0.1608  1.0462  0.3069
 9641TIP3    H228881   2.289   5.980   5.774  0.1033  0.0292  0.5258
 9642TIP3   OH228882   6.884   6.608   0.257 -0.1749 -0.2841 -0.4530
 9642TIP3    H128883   6.823   6.579   0.190 -0.8738  1.4230 -0.6222
 9642TIP3    H228884   6.936   6.531   0.279 -1.9847 -1.6402 -0.7454
 9643TIP3   OH228885   3.410   2.889   2.432 -0.2915  0.0307 -0.6865
 9643TIP3    H128886   3.475   2.914   2.366 -0.5135 -0.7550 -1.2142
 9643TIP3    H228887   3.374   2.806   2.400 -0.9535  0.0325  0.0313
 9644TIP3   OH228888   7.599   7.694   5.362  0.1457 -0.0947  0.5649
 9644TIP3    H128889   7.606   7.720   5.454 -1.2818 -1.4450  1.1136
 9644TIP3    H228890   7.554   7.609   5.365  0.0742 -0.1681 -1.3848
 9645TIP3   OH228891   0.053   3.191   3.247 -0.8067 -0.4986 -0.1073
 9645TIP3    H128892   0.148   3.176   3.251 -0.7003  0.2245  0.1225
 9645TIP3    H228893   0.017   3.137   3.317 -0.2936  1.3166  1.6289
 9646TIP3   OH228894   6.145   3.335   1.491  0.5391  0.3491  0.5753
 9646TIP3    H128895   6.076   3.401   1.500  0.6419  0.4063  0.9281
 9646TIP3    H228896   6.129   3.297   1.405  1.5033  1.9901 -0.3905
 9647TIP3   OH228897   7.774   6.139   3.993 -0.0899  0.0116  0.5960
 9647TIP3    H128898   7.806   6.049   3.989 -4.0238 -1.5488 -0.1607
 9647TIP3    H228899   7.777   6.170   3.903 -0.1896  0.0981  0.6225
 9648TIP3   OH228900   3.069   0.250   0.048 -0.0448  0.8288 -0.6883
 9648TIP3    H128901   3.077   0.154   0.046 -0.5793  0.6319  2.1332
 9648TIP3    H228902   2.975   0.266   0.055  0.0736  1.5405 -0.6674
 9649TIP3   OH228903   4.837   7.742   6.702 -0.0094 -0.4538  0.1198
 9649TIP3    H128904   4.826   7.779   6.789 -0.5068 -0.7856  0.1978
 9649TIP3    H228905   4.749   7.742   6.664  0.2808  0.1754 -0.5834
 9650TIP3   OH228906   7.273   3.791   2.831 -0.5230  0.0980 -0.3177
 9650TIP3    H128907   7.352   3.756   2.872 -0.8756 -0.0708  0.2318
 9650TIP3    H228908   7.202   3.767   2.891 -0.8840  1.0319 -0.3469
 9651TIP3   OH228909   3.961   0.651   6.042 -0.4612 -0.7082  0.7380
 9651TIP3    H128910   3.948   0.593   5.968  1.1793  0.9603 -0.9515
 9651TIP3    H228911   3.874   0.657   6.083 -1.4008 -1.7089 -0.9920
 9652TIP3   OH228912   7.094   2.683   0.804  0.2865 -0.2192  0.3452
 9652TIP3    H128913   7.172   2.686   0.748  1.4729 -0.7277  1.8981
 9652TIP3    H228914   7.128   2.657   0.890 -1.7824 -1.8914  0.7285
 9653TIP3   OH228915   5.363   3.409   1.732 -0.0384  0.6526  0.1658
 9653TIP3    H128916   5.281   3.408   1.783 -0.2652  1.2179 -0.1736
 9653TIP3    H228917   5.364   3.325   1.687  0.0377  0.2510  0.9102
 9654TIP3   OH228918   2.365   3.325   3.829 -0.3885 -0.4244 -0.6571
 9654TIP3    H128919   2.447   3.366   3.856 -1.1208  0.5899  0.1484
 9654TIP3    H228920   2.367   3.325   3.734  0.9893 -1.3635 -0.6423
 9655TIP3   OH228921   3.260   0.901   4.479  0.1039  0.3181 -0.5650
 9655TIP3    H128922   3.304   0.847   4.544  1.5225  0.1085 -1.6317
 9655TIP3    H228923   3.281   0.991   4.504 -0.0478  0.2718 -0.2702
 9656TIP3   OH228924   1.413   5.466   1.262  0.4301  0.3056 -0.7167
 9656TIP3    H128925   1.507   5.481   1.267  0.9982 -2.8415  0.5460
 9656TIP3    H228926   1.377   5.507   1.340  0.4700  2.6181 -1.8270
 9657TIP3   OH228927   4.335   5.636   1.073 -0.4977 -0.6511 -0.2988
 9657TIP3    H128928   4.416   5.683   1.053 -1.4763  1.3195  0.0920
 9657TIP3    H228929   4.288   5.632   0.989 -0.6238 -0.5124 -0.2347
 9658TIP3   OH228930   3.925   6.883   6.579  0.1172  0.3721 -0.5680
 9658TIP3    H128931   3.901   6.970   6.546  2.7943  1.4991  0.2053
 9658TIP3    H228932   3.928   6.894   6.674 -2.3639 -1.4412 -0.1692
 9659TIP3   OH228933   7.388   2.577   1.337 -0.7223 -0.3791  0.0849
 9659TIP3    H128934   7.306   2.537   1.365 -1.2429 -1.9320 -3.1630
 9659TIP3    H228935   7.456   2.529   1.383 -1.5212  1.0913  3.0103
 9660TIP3   OH228936   7.896   2.412   2.611  1.0156  0.0798 -0.1333
 9660TIP3    H128937   7.832   2.342   2.621  0.2269  0.7878 -0.0496
 9660TIP3    H228938   7.968   2.388   2.669 -0.9733  1.2681  3.1113
 9661TIP3   OH228939   1.976   1.169   2.254 -0.2979  0.2564  0.1261
 9661TIP3    H128940   1.897   1.206   2.292 -1.1469 -0.2985 -1.0597
 9661TIP3    H228941   1.984   1.211   2.169 -0.1050 -0.7186 -0.3515
 9662TIP3   OH228942   1.710   3.468   4.701  0.5147  0.0796 -0.0816
 9662TIP3    H128943   1.701   3.550   4.750 -1.3387  0.2233 -0.5879
 9662TIP3    H228944   1.648   3.475   4.629  0.8117 -1.4956 -0.5450
 9663TIP3   OH228945   8.030   0.157   3.849 -0.3002  0.2216  0.1158
 9663TIP3    H128946   8.056   0.242   3.814 -0.0316  0.1703  0.1917
 9663TIP3    H228947   8.038   0.097   3.775  0.9829 -0.0304  0.4448
 9664TIP3   OH228948   3.675   5.950   6.479  0.2791 -0.0036  0.2825
 9664TIP3    H128949   3.678   6.045   6.464  0.0860  0.0566  0.6223
 9664TIP3    H228950   3.715   5.938   6.565 -2.0260  0.0511  1.4418
 9665TIP3   OH228951   6.481   3.238   5.231  0.3706  0.3703 -0.3454
 9665TIP3    H128952   6.567   3.261   5.266  0.3789  2.3983 -1.5441
 9665TIP3    H228953   6.497   3.158   5.181  1.5852  0.7105 -0.5442
 9666TIP3   OH228954   4.932   7.252   5.299 -0.1581  0.2799  0.3135
 9666TIP3    H128955   4.964   7.253   5.389  1.8420  0.7577 -0.3530
 9666TIP3    H228956   5.004   7.288   5.247 -0.8925 -0.8671 -1.6079
 9667TIP3   OH228957   5.551   2.466   1.547  0.6459  0.2708  0.4108
 9667TIP3    H128958   5.632   2.497   1.507  0.6873 -0.2820  0.0530
 9667TIP3    H228959   5.484   2.525   1.513  0.8170  0.3822  0.2629
 9668TIP3   OH228960   3.948   4.816   2.905  0.1754 -0.1141 -0.4673
 9668TIP3    H128961   4.009   4.766   2.959  1.5451  0.7102 -1.1783
 9668TIP3    H228962   3.907   4.878   2.965  0.4851 -0.2756 -0.0880
 9669TIP3   OH228963   6.216   7.254   2.915 -0.1942 -0.1776  0.0103
 9669TIP3    H128964   6.229   7.161   2.935  0.9345  0.0506  0.3549
 9669TIP3    H228965   6.246   7.263   2.824  0.1634 -0.0545  0.1398
 9670TIP3   OH228966   4.562   1.074   2.976  0.3547 -0.1513 -0.0932
 9670TIP3    H128967   4.656   1.077   2.996  0.5678 -2.2908 -0.5099
 9670TIP3    H228968   4.552   0.997   2.920 -1.2854  1.5215 -2.2872
 9671TIP3   OH228969   8.007   1.781   5.952 -0.0918  0.4338  0.0138
 9671TIP3    H128970   7.962   1.701   5.923 -0.2807  0.0730  1.2342
 9671TIP3    H228971   8.073   1.750   6.013  0.4597  1.1523 -0.2067
 9672TIP3   OH228972   7.348   5.276   3.883 -0.2553  0.5912  0.3845
 9672TIP3    H128973   7.347   5.189   3.844  0.3670  0.5781  0.3900
 9672TIP3    H228974   7.256   5.301   3.888 -0.3503  1.4623 -3.0305
 9673TIP3   OH228975   7.812   1.842   6.519  0.1370  0.0555  0.1338
 9673TIP3    H128976   7.823   1.869   6.428 -2.7788 -0.6760 -0.5413
 9673TIP3    H228977   7.829   1.921   6.570 -1.4298  1.3847 -1.3034
 9674TIP3   OH228978   5.203   6.750   3.235  0.1066  0.2804 -0.2127
 9674TIP3    H128979   5.219   6.773   3.143 -0.6458 -0.6242 -0.5879
 9674TIP3    H228980   5.291   6.744   3.273  0.6694 -2.4644 -1.6815
 9675TIP3   OH228981   4.872   4.492   6.567 -0.3167  0.3380  0.0123
 9675TIP3    H128982   4.839   4.576   6.597  1.0006  0.6978  0.5270
 9675TIP3    H228983   4.884   4.441   6.648 -2.5698 -0.9635 -0.3668
 9676TIP3   OH228984   8.221   6.662   5.512 -0.4683 -0.4559 -0.4441
 9676TIP3    H128985   8.211   6.662   5.607 -0.4473 -0.7391 -0.4408
 9676TIP3    H228986   8.196   6.573   5.485  0.4947 -0.6914 -0.6054
 9677TIP3   OH228987   6.128   3.780   6.016  0.3112 -0.0088  0.6103
 9677TIP3    H128988   6.095   3.697   5.982 -2.6203  0.3405  2.2411
 9677TIP3    H228989   6.175   3.756   6.096  1.1084 -0.2367  0.0790
 9678TIP3   OH228990   6.120   2.293   3.460  0.0974  0.4356  0.2942
 9678TIP3    H128991   6.200   2.343   3.478 -0.5020  1.1770  0.9166
 9678TIP3    H228992   6.114   2.292   3.365  1.3306 -0.4029  0.1994
 9679TIP3   OH228993   6.565   1.318   1.721  0.5467  0.5941  0.2743
 9679TIP3    H128994   6.632   1.334   1.787  0.9572  1.0209 -0.2375
 9679TIP3    H228995   6.541   1.226   1.732  0.8974  0.5599  0.7523
 9680TIP3   OH228996   1.351   1.592   0.653 -0.1356  0.0810  0.3401
 9680TIP3    H128997   1.418   1.556   0.712 -0.9611  1.0339  1.9306
 9680TIP3    H228998   1.275   1.607   0.710 -1.1875  0.4623 -1.1161
 9681TIP3   OH228999   5.822   2.855   6.023 -0.5461 -0.2380  0.1158
 9681TIP3    H129000   5.881   2.786   5.991 -0.3085 -0.4272  0.9237
 9681TIP3    H229001   5.770   2.880   5.947  0.2572 -0.4060 -0.4942
 9682TIP3   OH229002   2.350   5.889   0.281 -0.1704  0.5650  0.0206
 9682TIP3    H129003   2.323   5.903   0.372  0.2717  1.8085 -0.0199
 9682TIP3    H229004   2.419   5.823   0.286 -1.2571 -0.5796  0.4072
 9683TIP3   OH229005   2.735   3.632   4.453  0.0902 -0.2522  0.3953
 9683TIP3    H129006   2.704   3.693   4.520 -1.5385 -0.1388 -0.4211
 9683TIP3    H229007   2.722   3.545   4.490  0.6629 -0.1577  0.8261
 9684TIP3   OH229008   7.857   1.894   5.643  0.3677  0.4192  0.5615
 9684TIP3    H129009   7.921   1.829   5.672  0.1534 -0.6477 -1.2206
 9684TIP3    H229010   7.777   1.843   5.627  0.1268  1.1501 -0.6317
 9685TIP3   OH229011   6.872   6.157   1.203  0.6875 -0.2886  0.3958
 9685TIP3    H129012   6.861   6.246   1.237 -0.1314 -0.6465  1.0843
 9685TIP3    H229013   6.951   6.125   1.247  1.2068  0.2268 -0.1466
 9686TIP3   OH229014   1.285   6.012   0.886  0.0824 -0.2154 -0.2803
 9686TIP3    H129015   1.312   6.099   0.916  1.9306 -1.3046  1.4760
 9686TIP3    H229016   1.192   6.007   0.907 -0.0926  1.3890 -0.5978
 9687TIP3   OH229017   7.746   2.543   0.141  0.4553 -0.5998  0.2882
 9687TIP3    H129018   7.747   2.634   0.109 -0.7592 -0.4435  0.6610
 9687TIP3    H229019   7.782   2.550   0.230 -0.8061 -0.2649  0.7987
 9688TIP3   OH229020   1.741   2.249   5.704  0.2001  0.1334  0.2570
 9688TIP3    H129021   1.824   2.227   5.747  0.6049  1.0166 -0.0411
 9688TIP3    H229022   1.726   2.341   5.728 -1.4745 -0.4373  1.5680
 9689TIP3   OH229023   3.302   1.929   5.087 -0.0923 -0.5239  0.0130
 9689TIP3    H129024   3.291   1.837   5.111  0.5426 -0.2400  1.5017
 9689TIP3    H229025   3.262   1.978   5.158 -2.0595  0.3909 -1.6311
 9690TIP3   OH229026   5.832   0.207   4.140  0.4115  0.0526 -0.0330
 9690TIP3    H129027   5.784   0.228   4.221  0.0315 -1.5201  0.1795
 9690TIP3    H229028   5.815   0.114   4.125  3.3761 -0.6137  0.0423
 9691TIP3   OH229029   5.883   2.193   4.466  0.1284  0.0430  0.3546
 9691TIP3    H129030   5.879   2.196   4.370 -0.4829 -0.8835  0.3385
 9691TIP3    H229031   5.863   2.283   4.493  2.0479  0.7336 -0.4075
 9692TIP3   OH229032   7.338   3.558   1.653 -0.0872 -0.6415  0.3161
 9692TIP3    H129033   7.330   3.628   1.588  0.1178 -1.0347 -0.1415
 9692TIP3    H229034   7.266   3.499   1.634  0.4765 -1.2069 -0.1224
 9693TIP3   OH229035   1.789   1.620   5.539 -0.3162 -0.4498  0.5057
 9693TIP3    H129036   1.753   1.657   5.459 -1.1017 -2.2056 -0.0182
 9693TIP3    H229037   1.883   1.616   5.524 -0.2157  1.2134  0.5694
 9694TIP3   OH229038   7.996   0.292   4.608  0.7070  0.8086 -0.0126
 9694TIP3    H129039   8.012   0.381   4.641 -0.8173  0.8087  0.8221
 9694TIP3    H229040   8.012   0.298   4.514  2.6684  1.4371  0.3061
 9695TIP3   OH229041   4.471   6.615   5.395  0.1790  0.1255 -0.2138
 9695TIP3    H129042   4.472   6.550   5.326 -3.0453 -1.8359  1.3497
 9695TIP3    H229043   4.470   6.564   5.476 -0.4596  2.1573  1.1470
 9696TIP3   OH229044   3.075   4.373   1.116 -0.1895 -0.2844 -0.9674
 9696TIP3    H129045   3.047   4.445   1.060 -0.7647 -0.3797 -0.8095
 9696TIP3    H229046   3.105   4.306   1.056 -0.0714 -0.0880 -1.1304
 9697TIP3   OH229047   2.467   2.563   5.530 -0.1485  0.4522 -0.3257
 9697TIP3    H129048   2.418   2.533   5.606  2.5199 -0.6246  1.1216
 9697TIP3    H229049   2.455   2.495   5.465 -3.4174  1.9331 -1.4735
 9698TIP3   OH229050   4.252   7.109   6.098  0.6800  0.3271  0.1786
 9698TIP3    H129051   4.172   7.056   6.092  0.1302  1.2056 -0.5053
 9698TIP3    H229052   4.299   7.072   6.173 -0.1910 -0.4347  0.3799
 9699TIP3   OH229053   3.444   5.091   2.490  0.4226  0.1883 -0.5764
 9699TIP3    H129054   3.414   5.170   2.534  3.3941  0.8919  0.3547
 9699TIP3    H229055   3.429   5.109   2.397  1.3044  1.9963 -0.4114
 9700TIP3   OH229056   2.327   2.404   1.865 -0.0682 -0.2023  0.0997
 9700TIP3    H129057   2.387   2.459   1.915 -1.2500 -0.4400  1.8657
 9700TIP3    H229058   2.245   2.454   1.863  0.2250  0.3296 -2.6536
 9701TIP3   OH229059   4.516   3.814   0.335  0.5551 -0.2205  0.7865
 9701TIP3    H129060   4.595   3.867   0.331 -0.6023  1.5637 -0.7886
 9701TIP3    H229061   4.460   3.858   0.398 -0.1288  0.0312  0.0289
 9702TIP3   OH229062   2.019   3.020   5.675 -0.0371 -0.2176  0.3272
 9702TIP3    H129063   2.069   3.046   5.752  0.9140  0.7245 -0.5664
 9702TIP3    H229064   2.049   3.080   5.606 -1.6412 -0.3144 -0.5043
 9703TIP3   OH229065   6.525   2.437   4.564  0.0630 -0.1335  0.1691
 9703TIP3    H129066   6.508   2.523   4.525 -0.7527  0.0136  0.8334
 9703TIP3    H229067   6.601   2.404   4.515  0.0226  0.7032 -0.4929
 9704TIP3   OH229068   2.405   2.129   2.635 -0.2370  0.1299 -0.4450
 9704TIP3    H129069   2.358   2.091   2.561 -0.1783  0.5249 -0.6879
 9704TIP3    H229070   2.469   2.062   2.659 -0.3446 -0.0551 -0.6691
 9705TIP3   OH229071   1.120   1.074   5.579 -0.4618 -0.0555 -0.0626
 9705TIP3    H129072   1.175   1.145   5.611 -0.2952 -0.6265  0.9756
 9705TIP3    H229073   1.032   1.097   5.608 -0.6509  0.4318 -0.9827
 9706TIP3   OH229074   6.107   7.528   5.004  0.2755  0.1985  0.3238
 9706TIP3    H129075   6.165   7.505   5.077  1.4881 -2.7166 -1.3723
 9706TIP3    H229076   6.159   7.589   4.951  0.7706 -0.3379  0.1781
 9707TIP3   OH229077   0.445   6.163   2.606 -0.3381 -0.5670  0.1745
 9707TIP3    H129078   0.517   6.131   2.552 -0.1149  0.2037 -0.0014
 9707TIP3    H229079   0.481   6.240   2.652 -1.3131  0.4134 -0.6451
 9708TIP3   OH229080   6.017   1.169   4.877 -0.0841  0.5721 -0.2807
 9708TIP3    H129081   5.984   1.259   4.874 -1.2228  0.1598 -0.4202
 9708TIP3    H229082   5.982   1.128   4.799 -1.1036 -0.5052  0.7090
 9709TIP3   OH229083   0.438   5.774   2.430 -0.4252 -0.4442 -0.2104
 9709TIP3    H129084   0.477   5.791   2.516 -1.5063 -0.8527  0.3830
 9709TIP3    H229085   0.513   5.760   2.372  0.3236 -0.1178  0.6547
 9710TIP3   OH229086   6.987   3.728   0.183 -0.2964  0.0317  0.0012
 9710TIP3    H129087   6.896   3.749   0.203 -0.6088  0.1093 -1.3913
 9710TIP3    H229088   6.998   3.637   0.210 -1.1741 -0.3879 -1.0323
 9711TIP3   OH229089   5.871   2.744   2.215 -0.3174  0.0141 -0.4831
 9711TIP3    H129090   5.864   2.821   2.158 -0.4251  0.2793 -0.1175
 9711TIP3    H229091   5.933   2.770   2.283  0.9770 -0.8212 -1.3014
 9712TIP3   OH229092   0.517   1.035   6.421  0.0094 -0.8115  0.9271
 9712TIP3    H129093   0.569   1.113   6.445 -0.2428  0.1127 -1.2743
 9712TIP3    H229094   0.466   1.015   6.499 -0.4133  1.6742  1.3706
 9713TIP3   OH229095   2.668   5.876   2.023 -0.4355 -1.3251 -0.9541
 9713TIP3    H129096   2.574   5.866   2.008 -0.9791  2.0709 -0.4911
 9713TIP3    H229097   2.675   5.909   2.112  1.1982 -1.3850 -1.0293
 9714TIP3   OH229098   5.310   4.877   3.294  0.2674 -0.3505  0.2278
 9714TIP3    H129099   5.284   4.944   3.231 -1.9425 -1.7368 -0.4379
 9714TIP3    H229100   5.265   4.902   3.375 -0.2649 -0.8194  0.0792
 9715TIP3   OH229101   4.590   4.738   5.161  0.2054 -0.5887 -0.2958
 9715TIP3    H129102   4.511   4.759   5.110 -1.2054  0.1057  2.0132
 9715TIP3    H229103   4.559   4.677   5.228  1.5669 -0.0056  0.9004
 9716TIP3   OH229104   0.535   0.577   6.574  0.1448 -0.1237 -0.1300
 9716TIP3    H129105   0.452   0.596   6.617 -0.9463 -0.4726 -1.9833
 9716TIP3    H229106   0.553   0.485   6.597 -0.9450 -0.6249 -1.1481
 9717TIP3   OH229107   4.408   3.061   6.032  0.4297 -0.6738 -0.3032
 9717TIP3    H129108   4.465   3.136   6.046  0.9199 -0.9133 -0.9857
 9717TIP3    H229109   4.340   3.092   5.974  0.0970 -0.5027  0.1743
 9718TIP3   OH229110   3.120   2.406   6.011  0.4698  0.3132 -0.0785
 9718TIP3    H129111   3.171   2.486   6.025  1.1113 -0.1312  0.1768
 9718TIP3    H229112   3.093   2.379   6.099 -2.4637  1.9497 -0.3419
 9719TIP3   OH229113   6.999   1.352   4.157  0.0211  0.0024  0.1653
 9719TIP3    H129114   6.951   1.383   4.234  0.5976  0.0233  0.5218
 9719TIP3    H229115   7.090   1.379   4.173  0.1238  0.1138 -0.5782
 9720TIP3   OH229116   6.287   5.163   5.068  0.4150 -0.0042 -0.4969
 9720TIP3    H129117   6.371   5.125   5.094 -0.4390 -1.7778 -0.2294
 9720TIP3    H229118   6.283   5.150   4.973  1.0523  1.4193 -0.7528
 9721TIP3   OH229119   1.881   3.008   1.979 -0.8162 -0.9147  0.0961
 9721TIP3    H129120   1.950   3.016   2.045 -1.6297 -0.8137  0.9693
 9721TIP3    H229121   1.894   2.922   1.940  0.7698 -0.2545 -0.9053
 9722TIP3   OH229122   1.671   4.156   4.593  0.3127  0.1787  0.0974
 9722TIP3    H129123   1.650   4.122   4.680  0.8616  0.3449  0.2989
 9722TIP3    H229124   1.634   4.244   4.591  2.1746  1.0194  0.9700
 9723TIP3   OH229125   0.552   2.188   1.794  0.0404  0.1763 -0.2120
 9723TIP3    H129126   0.585   2.216   1.708 -0.5604 -0.3345 -0.6225
 9723TIP3    H229127   0.629   2.153   1.839  0.5413  1.2901 -0.1814
 9724TIP3   OH229128   6.346   0.250   0.334  0.2987  0.0145  0.1844
 9724TIP3    H129129   6.358   0.297   0.417 -1.3954  0.0100  0.4667
 9724TIP3    H229130   6.404   0.296   0.272 -0.8913  2.1888  0.5742
 9725TIP3   OH229131   0.024   7.558   1.599 -0.8047 -0.6114  0.2252
 9725TIP3    H129132  -0.053   7.600   1.638 -0.7910  0.8104 -1.1974
 9725TIP3    H229133   0.096   7.620   1.613 -0.3202 -1.1014 -0.0543
 9726TIP3   OH229134   6.311   5.632   6.221  0.8208  0.5805 -0.1170
 9726TIP3    H129135   6.367   5.666   6.291 -0.1275  1.3067  0.3258
 9726TIP3    H229136   6.227   5.616   6.264  0.3929  0.4677 -0.9738
 9727TIP3   OH229137   0.372   4.338   5.931  0.3630  0.1425 -0.1029
 9727TIP3    H129138   0.358   4.423   5.973 -0.8511  1.9492 -3.7552
 9727TIP3    H229139   0.290   4.291   5.943  0.7443 -0.2640  1.1765
 9728TIP3   OH229140   7.419   0.300   3.744 -0.2315 -0.2436 -0.1423
 9728TIP3    H129141   7.432   0.303   3.838 -1.1683 -0.5349  0.0050
 9728TIP3    H229142   7.414   0.392   3.717  1.6404 -0.1159 -0.1615
 9729TIP3   OH229143   6.858   3.443   1.990 -0.4882  0.1958 -0.1357
 9729TIP3    H129144   6.792   3.478   2.050 -0.3454  0.4151 -0.1064
 9729TIP3    H229145   6.888   3.362   2.033 -0.3243  0.3972  0.1356
 9730TIP3   OH229146   6.544   1.713   1.529  0.3481 -0.2288 -0.3863
 9730TIP3    H129147   6.608   1.783   1.546 -0.4740  0.6555 -0.8965
 9730TIP3    H229148   6.483   1.719   1.603 -0.5266  0.5266 -1.1568
 9731TIP3   OH229149   7.464   0.579   5.223  0.0028 -0.0328 -0.6175
 9731TIP3    H129150   7.376   0.605   5.251 -0.7028 -0.4321 -2.3601
 9731TIP3    H229151   7.522   0.646   5.260 -0.8594 -0.4000  1.5477
 9732TIP3   OH229152   5.760   0.432   5.771  0.0057 -0.1324  0.3876
 9732TIP3    H129153   5.739   0.339   5.762  1.8243 -0.7267  1.6170
 9732TIP3    H229154   5.782   0.442   5.863  0.6798  1.3359  0.0880
 9733TIP3   OH229155   6.269   0.021   1.365  0.0014 -0.5350  0.2536
 9733TIP3    H129156   6.289   0.100   1.414 -1.4905  0.5704 -0.8323
 9733TIP3    H229157   6.260  -0.047   1.432 -1.5006  0.8246  1.5231
 9734TIP3   OH229158   5.360   0.947   0.120  0.7886 -0.6383 -0.5702
 9734TIP3    H129159   5.270   0.981   0.113  0.8410 -0.7710 -2.2870
 9734TIP3    H229160   5.361   0.900   0.203 -0.7954 -0.7954 -0.6079
 9735TIP3   OH229161   0.746   1.194   2.638 -0.6755  0.2782 -0.4135
 9735TIP3    H129162   0.720   1.197   2.546 -0.0611  1.1667 -0.5710
 9735TIP3    H229163   0.717   1.278   2.673  0.0222  0.3648 -0.0495
 9736TIP3   OH229164   4.731   6.406   4.321 -0.2905 -0.6461 -0.0411
 9736TIP3    H129165   4.723   6.369   4.233 -0.4875 -0.4519 -0.1069
 9736TIP3    H229166   4.741   6.500   4.306  1.6100 -0.8030  0.0636
 9737TIP3   OH229167   4.733   0.834   1.200  0.3977 -0.6813 -0.3391
 9737TIP3    H129168   4.807   0.885   1.234 -1.1236  1.6105 -0.2687
 9737TIP3    H229169   4.706   0.880   1.121 -0.3279 -2.0940 -0.9495
 9738TIP3   OH229170   7.179   6.445   5.054 -0.6179 -0.1681 -0.0430
 9738TIP3    H129171   7.160   6.538   5.067  2.2921  0.5127  0.0729
 9738TIP3    H229172   7.186   6.435   4.959  2.8318  0.7186  0.0080
 9739TIP3   OH229173   7.635   5.991   1.722  0.2027  0.6175  0.0027
 9739TIP3    H129174   7.638   6.000   1.626 -0.4663 -1.0239 -0.2143
 9739TIP3    H229175   7.698   6.055   1.754 -1.2252  2.8659 -1.3954
 9740TIP3   OH229176   6.395   6.608   1.278 -0.5790 -0.2618 -0.0286
 9740TIP3    H129177   6.374   6.536   1.337 -1.6961 -0.0107 -0.0857
 9740TIP3    H229178   6.366   6.578   1.192 -0.2862 -0.0676 -0.1985
 9741TIP3   OH229179   3.388   4.040   5.840  0.1151  0.4043  0.0880
 9741TIP3    H129180   3.439   4.104   5.890 -1.8674  1.0428  1.4221
 9741TIP3    H229181   3.418   4.051   5.750  2.9240  0.0945  0.8717
 9742TIP3   OH229182   1.375   4.869   0.562 -0.1773 -0.2833 -0.0729
 9742TIP3    H129183   1.372   4.774   0.554 -0.0421 -0.1792 -1.5005
 9742TIP3    H229184   1.410   4.884   0.650 -0.9820 -1.5355  0.4773
 9743TIP3   OH229185   1.250   3.989   3.969  0.1505 -0.3224  0.1792
 9743TIP3    H129186   1.246   4.066   4.027 -0.1424 -0.1255 -0.1015
 9743TIP3    H229187   1.161   3.977   3.938  0.0355 -1.2721  0.8471
 9744TIP3   OH229188   0.035   1.487   2.227  0.1126 -0.6513 -0.0786
 9744TIP3    H129189   0.010   1.462   2.316  0.3626 -0.3201  0.0864
 9744TIP3    H229190  -0.028   1.441   2.171 -0.2996 -0.5410  0.2877
 9745TIP3   OH229191   4.962   6.246   3.445 -0.4628  0.1936 -0.3388
 9745TIP3    H129192   4.899   6.175   3.459 -0.3185 -0.0571 -0.9234
 9745TIP3    H229193   4.955   6.267   3.352  0.4218  0.0493 -0.4556
 9746TIP3   OH229194   3.046   2.448   0.137  0.4277  0.2648 -0.7128
 9746TIP3    H129195   2.951   2.458   0.136  0.3408 -0.1888  0.8024
 9746TIP3    H229196   3.078   2.520   0.190  0.7170 -0.8804  0.7313
 9747TIP3   OH229197   7.733   5.012   4.979  0.3749 -0.5255 -0.3439
 9747TIP3    H129198   7.781   4.935   4.949  0.4420  0.5196 -3.2624
 9747TIP3    H229199   7.689   4.984   5.059  0.8740 -3.3999 -0.9813
 9748TIP3   OH229200   4.533   2.169   4.095 -0.1337  0.2338 -0.4201
 9748TIP3    H129201   4.582   2.109   4.151 -2.0697  0.8195  2.0774
 9748TIP3    H229202   4.448   2.126   4.082  0.5008 -0.3182 -3.8445
 9749TIP3   OH229203   3.842   3.258   5.691  0.0941 -0.5461  0.1430
 9749TIP3    H129204   3.818   3.216   5.609  0.6289 -1.6304  0.5090
 9749TIP3    H229205   3.885   3.340   5.665  0.8121 -1.1657 -0.6922
 9750TIP3   OH229206   8.076   0.520   4.734 -0.3998  0.4591 -0.3852
 9750TIP3    H129207   8.098   0.613   4.733 -0.3138  0.4419 -0.1321
 9750TIP3    H229208   8.105   0.489   4.820  0.4150 -0.0043 -0.8110
 9751TIP3   OH229209   0.292   5.338   0.183 -0.5955 -0.0028  0.5262
 9751TIP3    H129210   0.214   5.386   0.211 -1.0216 -0.7400  0.6320
 9751TIP3    H229211   0.273   5.311   0.093 -0.3955 -0.0447  0.4952
 9752TIP3   OH229212   6.800   4.414   5.243 -0.2600 -0.1062 -0.2099
 9752TIP3    H129213   6.851   4.474   5.189 -0.1596  1.3456  1.3842
 9752TIP3    H229214   6.843   4.329   5.233 -0.1800  0.1427 -2.2457
 9753TIP3   OH229215   2.321   0.922   1.321 -0.0156  0.6378 -0.3380
 9753TIP3    H129216   2.305   1.012   1.348  0.8585  0.8340 -0.4456
 9753TIP3    H229217   2.269   0.869   1.382 -2.1179  1.2613 -1.4838
 9754TIP3   OH229218   0.627   0.285   2.947 -0.4838 -0.0764 -0.3067
 9754TIP3    H129219   0.538   0.318   2.938 -1.2356 -1.5507  1.1445
 9754TIP3    H229220   0.621   0.192   2.922  1.0124  0.1715 -1.7665
 9755TIP3   OH229221   1.774   2.550   5.687  0.2425  0.4356 -0.4981
 9755TIP3    H129222   1.710   2.541   5.617 -1.2552  0.8718  0.7518
 9755TIP3    H229223   1.821   2.631   5.667 -0.4141  0.7459 -0.8320
 9756TIP3   OH229224   6.150   5.776   5.867  0.3874  0.1550  0.9371
 9756TIP3    H129225   6.083   5.707   5.864  0.5005  0.0796  0.1653
 9756TIP3    H229226   6.233   5.730   5.860  0.4196  0.4637 -1.0609
 9757TIP3   OH229227   0.914   4.993   2.398  0.0118  0.0659 -0.1467
 9757TIP3    H129228   0.945   5.083   2.385  0.9978 -0.0137  1.3741
 9757TIP3    H229229   0.953   4.944   2.325 -0.8993  0.9079 -1.2484
 9758TIP3   OH229230   4.130   6.617   6.150 -0.2432 -0.3670  0.0209
 9758TIP3    H129231   4.154   6.577   6.234  0.4184  1.6253  0.8487
 9758TIP3    H229232   4.205   6.672   6.128 -0.2976 -1.0556 -2.0544
 9759TIP3   OH229233   1.520   0.353   4.461 -0.1503 -0.1422 -0.1169
 9759TIP3    H129234   1.569   0.419   4.412 -0.7785 -0.1879 -0.8201
 9759TIP3    H229235   1.432   0.389   4.468 -0.8454 -1.4255 -1.6029
 9760TIP3   OH229236   0.564   6.190   2.961  0.6495  0.0890  0.6838
 9760TIP3    H129237   0.540   6.098   2.954  0.8120  0.1472 -2.2276
 9760TIP3    H229238   0.658   6.191   2.974  1.1460 -0.2741 -2.2240
 9761TIP3   OH229239   7.214   3.402   6.314  0.6657  0.5946 -0.4240
 9761TIP3    H129240   7.236   3.447   6.396 -0.2208  1.8969 -0.8698
 9761TIP3    H229241   7.142   3.344   6.336  0.6444  0.7012 -0.2155
 9762TIP3   OH229242   2.556   0.055   5.770 -0.2708 -0.2166 -0.2021
 9762TIP3    H129243   2.537  -0.010   5.703  1.2948 -1.6684  0.6761
 9762TIP3    H229244   2.569   0.004   5.850  0.8209  1.1778  0.5617
 9763TIP3   OH229245   1.204   2.286   2.948  0.3523 -0.1683 -0.0551
 9763TIP3    H129246   1.177   2.201   2.982  2.1454 -0.5453  0.5209
 9763TIP3    H229247   1.286   2.270   2.902 -0.4836  0.8711 -2.0383
 9764TIP3   OH229248   4.306   5.972   6.639 -0.5027 -0.4755  0.2097
 9764TIP3    H129249   4.359   5.895   6.660 -2.0844 -1.1641  1.9056
 9764TIP3    H229250   4.251   5.943   6.566  2.0078  0.5748 -2.3140
 9765TIP3   OH229251   6.695   2.764   1.546  1.0360 -0.2823 -0.3100
 9765TIP3    H129252   6.686   2.853   1.511 -2.6316 -0.6500 -0.7020
 9765TIP3    H229253   6.645   2.766   1.628  2.0227 -1.6839  0.3651
 9766TIP3   OH229254   1.577   1.949   4.331  0.2633  0.2015  0.3830
 9766TIP3    H129255   1.598   1.857   4.316  1.8425 -0.1663  3.7314
 9766TIP3    H229256   1.498   1.946   4.386 -0.6981  1.0009 -0.8929
 9767TIP3   OH229257   2.073   1.059   0.812  0.2465 -0.0906  0.3390
 9767TIP3    H129258   1.996   1.115   0.820 -1.7971 -2.9324  2.2143
 9767TIP3    H229259   2.110   1.056   0.900 -1.0055 -3.2408  0.8901
 9768TIP3   OH229260   4.934   3.251   1.997  0.0664  0.6819  0.4377
 9768TIP3    H129261   4.857   3.295   2.033 -0.3063  0.9601 -0.6875
 9768TIP3    H229262   4.899   3.177   1.947  0.6396 -0.3695  1.5248
 9769TIP3   OH229263   7.275   1.918   6.674  0.0418 -0.3995  0.1308
 9769TIP3    H129264   7.286   1.824   6.692 -0.7626 -0.3726  0.8458
 9769TIP3    H229265   7.278   1.959   6.761  2.2281  0.4655 -0.2986
 9770TIP3   OH229266   4.934   2.395   3.999  0.1393  0.0344  0.2437
 9770TIP3    H129267   4.999   2.347   3.948  0.0240 -0.0286  0.1550
 9770TIP3    H229268   4.981   2.472   4.032  0.2859 -0.0645  0.2677
 9771TIP3   OH229269   4.112   2.240   5.205 -0.1063 -0.0600  0.8715
 9771TIP3    H129270   4.190   2.225   5.152 -1.3038  0.3576 -1.1028
 9771TIP3    H229271   4.146   2.271   5.289  1.9212 -1.9067  0.8449
 9772TIP3   OH229272   7.129   2.617   5.353 -0.4124 -0.5182  0.0581
 9772TIP3    H129273   7.150   2.688   5.414 -0.8868  1.8319 -2.3258
 9772TIP3    H229274   7.071   2.560   5.403 -1.3363  1.6448  1.6357
 9773TIP3   OH229275   7.122   3.351   5.016 -0.5175 -0.0001  0.6666
 9773TIP3    H129276   7.130   3.300   5.097  1.4943  1.5819  1.5435
 9773TIP3    H229277   7.044   3.405   5.029 -1.1307 -0.8924  0.8309
 9774TIP3   OH229278   6.622   6.803   1.195  0.4369  0.4904 -0.0499
 9774TIP3    H129279   6.543   6.781   1.244  0.5860  1.3457  0.5824
 9774TIP3    H229280   6.589   6.843   1.114  0.2120  2.0451  0.7765
 9775TIP3   OH229281   5.257   5.536   2.058 -0.3809 -0.3431  0.1006
 9775TIP3    H129282   5.216   5.528   1.972  0.4808 -1.7897 -0.2091
 9775TIP3    H229283   5.227   5.459   2.107  0.2678 -0.2914  0.6004
 9776TIP3   OH229284   4.606   2.528   4.666  0.1796 -0.8373  0.1741
 9776TIP3    H129285   4.662   2.483   4.731  0.7623 -1.8967 -1.0181
 9776TIP3    H229286   4.636   2.495   4.582  0.4502  1.6229 -0.7826
 9777TIP3   OH229287   5.755   2.090   2.752  0.5822 -0.0229 -0.4686
 9777TIP3    H129288   5.810   2.093   2.674  1.7921 -0.7680  0.3109
 9777TIP3    H229289   5.765   2.176   2.792  0.1195  0.2908 -1.0227
 9778TIP3   OH229290   7.812   3.905   4.862  0.0603 -0.1833  0.2027
 9778TIP3    H129291   7.728   3.877   4.898 -0.4492 -0.3820 -1.0746
 9778TIP3    H229292   7.861   3.823   4.851  0.9448  0.0460  2.1394
 9779TIP3   OH229293   7.638   3.097   4.474  0.3985  0.3682  0.7035
 9779TIP3    H129294   7.727   3.123   4.499  0.9265  0.7176 -1.3760
 9779TIP3    H229295   7.588   3.178   4.477  0.8333  0.7169 -0.8059
 9780TIP3   OH229296   0.542   3.688   6.211 -0.3060  0.6697  0.0042
 9780TIP3    H129297   0.482   3.650   6.146 -0.1753  0.5177 -0.0277
 9780TIP3    H229298   0.608   3.620   6.226 -0.0835  0.8731 -0.0370
 9781TIP3   OH229299   7.298   5.381   5.475 -0.2040  0.6523  0.0049
 9781TIP3    H129300   7.287   5.435   5.554 -0.5501  0.4394  0.1032
 9781TIP3    H229301   7.277   5.292   5.504  0.9322  0.3579 -0.0056
 9782TIP3   OH229302   2.967   6.751   5.790 -0.1236  0.7365 -0.3219
 9782TIP3    H129303   3.023   6.675   5.805  0.9781  1.5020 -0.5166
 9782TIP3    H229304   2.911   6.755   5.867  0.6499  0.4585  0.2571
 9783TIP3   OH229305   7.214   0.118   3.338 -0.1834 -0.1924  0.4081
 9783TIP3    H129306   7.211   0.187   3.404 -4.1375 -2.0952  2.5974
 9783TIP3    H229307   7.142   0.141   3.278 -1.4243 -2.1327  1.0560
 9784TIP3   OH229308   0.965   1.151   1.643 -0.2212  0.2791 -0.1124
 9784TIP3    H129309   1.000   1.228   1.690 -1.8334  1.2975 -0.4983
 9784TIP3    H229310   1.021   1.143   1.566  0.0843  0.9562  0.0282
 9785TIP3   OH229311   3.211   5.898   2.289  0.3377 -0.4507 -0.5602
 9785TIP3    H129312   3.184   5.806   2.283 -1.1314 -0.0048 -1.1885
 9785TIP3    H229313   3.180   5.927   2.374  1.0442 -0.5949 -0.2456
 9786TIP3   OH229314   0.820   4.254   5.486 -0.4618 -0.1279 -0.2480
 9786TIP3    H129315   0.763   4.268   5.561  0.6518  0.2020  0.5545
 9786TIP3    H229316   0.772   4.290   5.412 -1.9281 -1.1879  0.1519
 9787TIP3   OH229317   1.942   1.230   6.749  0.0837  0.3548  0.1655
 9787TIP3    H129318   1.896   1.195   6.673 -0.6478  1.1107  0.2405
 9787TIP3    H229319   1.929   1.325   6.743  1.6012  0.5966  0.2170
 9788TIP3   OH229320   5.030   0.970   2.653 -0.2197  0.8059 -0.0349
 9788TIP3    H129321   5.069   0.954   2.740  0.3037  0.0371 -0.3979
 9788TIP3    H229322   5.094   1.026   2.608  0.1418  0.1225 -0.3827
 9789TIP3   OH229323   5.907   5.872   5.396  0.5420  0.1319  0.0745
 9789TIP3    H129324   5.940   5.961   5.383  1.1423 -0.3167 -1.7136
 9789TIP3    H229325   5.818   5.874   5.361  0.4788  0.0847  0.2326
 9790TIP3   OH229326   0.089   2.054   4.610 -0.6789  0.2714  0.5395
 9790TIP3    H129327   0.030   2.004   4.665 -0.5480  0.6985  1.0764
 9790TIP3    H229328   0.051   2.048   4.522 -0.5437 -0.9460  0.5415
 9791TIP3   OH229329   5.940   6.319   1.666 -0.3985 -0.1088  0.6910
 9791TIP3    H129330   5.929   6.244   1.724 -0.2522 -0.4309  0.3084
 9791TIP3    H229331   5.860   6.371   1.678 -1.0863 -0.9776  0.0223
 9792TIP3   OH229332   1.197   7.037   0.302  0.7829  0.0973 -0.2680
 9792TIP3    H129333   1.286   7.023   0.336  0.8616 -1.3908 -1.0097
 9792TIP3    H229334   1.209   7.095   0.227  1.0240  0.5355  0.1018
 9793TIP3   OH229335   1.393   2.473   6.085 -0.0137 -0.2895 -0.5181
 9793TIP3    H129336   1.439   2.507   6.162 -2.1770  0.9330  0.2943
 9793TIP3    H229337   1.323   2.418   6.121 -1.8160  1.2587 -1.5222
 9794TIP3   OH229338   3.902   4.923   5.640  0.4414  0.2188  0.4528
 9794TIP3    H129339   3.841   4.873   5.586  1.8828 -0.8559 -0.2500
 9794TIP3    H229340   3.961   4.857   5.677  0.6057  1.1225  1.8934
 9795TIP3   OH229341   4.115   0.960   1.782 -0.2378  0.1390 -0.3519
 9795TIP3    H129342   4.087   0.909   1.858  0.4766 -0.8155 -0.7182
 9795TIP3    H229343   4.200   0.995   1.806 -0.5192  0.7942 -0.2822
 9796TIP3   OH229344   5.656   7.177   1.937 -0.3909 -0.1314 -0.6116
 9796TIP3    H129345   5.644   7.222   1.853 -0.7748  0.4309 -0.2620
 9796TIP3    H229346   5.610   7.094   1.926 -1.5780  0.4924 -0.5232
 9797TIP3   OH229347   3.733   1.213   1.730  0.0149 -0.0128 -0.4430
 9797TIP3    H129348   3.714   1.155   1.804  0.6645  0.0572 -0.2143
 9797TIP3    H229349   3.793   1.163   1.675  0.0309  0.1732 -0.5954
 9798TIP3   OH229350   7.624   7.595   4.376  0.2744 -0.2219 -0.4883
 9798TIP3    H129351   7.607   7.631   4.289 -0.1520  0.4248 -0.1483
 9798TIP3    H229352   7.541   7.556   4.403  0.3095 -0.1356 -0.2462
 9799TIP3   OH229353   2.981   3.949   6.252  0.1330  0.6042 -0.8454
 9799TIP3    H129354   2.923   3.993   6.190 -1.6349  0.2182  0.4493
 9799TIP3    H229355   2.977   3.857   6.228 -0.3585  0.4876 -0.3521
 9800TIP3   OH229356   0.374   1.997   0.361 -0.5034  0.1628 -0.1443
 9800TIP3    H129357   0.469   1.987   0.357 -0.5690 -0.0383 -2.0176
 9800TIP3    H229358   0.340   1.929   0.302 -1.8134  0.3074  0.4056
 9801TIP3   OH229359   3.956   5.708   3.089  0.3871  0.1200 -0.3549
 9801TIP3    H129360   3.993   5.657   3.018 -0.3330 -0.5575 -0.2561
 9801TIP3    H229361   3.908   5.779   3.046  0.3723  0.0057 -0.5240
 9802TIP3   OH229362   0.899   2.647   5.230  0.3380 -0.1394 -0.0052
 9802TIP3    H129363   0.826   2.605   5.185  0.2567 -0.6532  0.6022
 9802TIP3    H229364   0.934   2.709   5.166 -2.8340  2.7699  0.7928
 9803TIP3   OH229365   6.430   3.843   5.523  0.5178 -0.1858 -0.1140
 9803TIP3    H129366   6.375   3.863   5.599 -0.7726 -2.1158 -0.4535
 9803TIP3    H229367   6.509   3.805   5.561  0.5501  0.2770  0.3008
 9804TIP3   OH229368   0.507   1.379   2.824  0.1053 -0.2843 -0.1407
 9804TIP3    H129369   0.532   1.390   2.916  0.3286  0.8814 -0.3287
 9804TIP3    H229370   0.442   1.447   2.808  1.0708  0.4340 -1.2029
 9805TIP3   OH229371   2.805   5.188   3.223  0.1067 -0.3776 -0.5408
 9805TIP3    H129372   2.814   5.272   3.179  0.9850 -0.4071 -0.4485
 9805TIP3    H229373   2.830   5.205   3.314  0.0454 -0.6828 -0.4646
 9806TIP3   OH229374   0.033   3.357   4.980  0.1924  0.5833 -0.1624
 9806TIP3    H129375  -0.051   3.398   4.963  0.5292  0.7327 -1.6670
 9806TIP3    H229376   0.091   3.393   4.912  1.3326  0.0997  0.5221
 9807TIP3   OH229377   1.688   5.504   2.076 -0.5734 -0.1382  0.1103
 9807TIP3    H129378   1.752   5.570   2.104  1.1937 -1.3658 -0.8773
 9807TIP3    H229379   1.718   5.423   2.118 -1.5739 -0.7113 -0.2706
 9808TIP3   OH229380   3.405   3.147   1.307  0.4208 -1.0028 -0.4061
 9808TIP3    H129381   3.425   3.232   1.266  0.0196 -0.4655  0.4851
 9808TIP3    H229382   3.420   3.162   1.400 -0.2112 -1.7565 -0.1807
 9809TIP3   OH229383   2.657   7.530   0.456 -0.4145 -0.3667 -0.1226
 9809TIP3    H129384   2.611   7.613   0.470  0.9319  0.2800  0.6030
 9809TIP3    H229385   2.700   7.540   0.371 -1.2308 -0.8201 -0.6113
 9810TIP3   OH229386   6.366   4.358   3.520  0.2281  0.0894 -0.5113
 9810TIP3    H129387   6.430   4.293   3.494 -0.7158 -0.6448 -1.0852
 9810TIP3    H229388   6.290   4.340   3.465 -0.6435  0.6257  0.4740
 9811TIP3   OH229389   2.648   6.489   6.349 -0.0218  0.2657 -0.2644
 9811TIP3    H129390   2.689   6.419   6.297 -0.7297 -1.8450  1.8166
 9811TIP3    H229391   2.703   6.495   6.427 -0.3921  1.5775 -0.0847
 9812TIP3   OH229392   3.221   0.216   3.690 -0.2401 -0.8402 -0.8173
 9812TIP3    H129393   3.293   0.206   3.752 -0.1253 -2.0274 -1.1088
 9812TIP3    H229394   3.220   0.309   3.668 -0.8983 -0.1990  1.6848
 9813TIP3   OH229395   6.167   5.530   2.311  0.7315  0.4959 -0.0307
 9813TIP3    H129396   6.187   5.623   2.315  1.5708  0.3025  0.9661
 9813TIP3    H229397   6.238   5.492   2.260  1.6760  0.1308  1.4660
 9814TIP3   OH229398   1.639   1.827   0.798 -1.1461  0.2438  0.2703
 9814TIP3    H129399   1.623   1.896   0.862  0.8650  1.1912 -0.1562
 9814TIP3    H229400   1.644   1.874   0.714 -0.0473 -0.4432 -0.0651
 9815TIP3   OH229401   8.073   7.712   0.675  0.1430 -0.1656 -0.1317
 9815TIP3    H129402   8.026   7.697   0.592  0.7149  0.6024 -0.6015
 9815TIP3    H229403   8.119   7.795   0.662  0.6277 -0.2830  0.7861
 9816TIP3   OH229404   7.257   2.302   2.123 -0.1720 -0.5699 -0.8670
 9816TIP3    H129405   7.295   2.354   2.194 -3.0862  1.1589 -0.4155
 9816TIP3    H229406   7.277   2.351   2.044 -1.0930  0.1561 -0.6673
 9817TIP3   OH229407   5.738   7.134   1.412 -0.2445 -0.6299 -0.5256
 9817TIP3    H129408   5.827   7.108   1.436 -0.1455  0.3722  0.2711
 9817TIP3    H229409   5.750   7.205   1.350 -0.5102 -1.1815 -1.2276
 9818TIP3   OH229410   3.982   6.394   2.698  0.1997 -0.0904 -0.5979
 9818TIP3    H129411   4.016   6.432   2.779  1.7034  1.1847 -1.7490
 9818TIP3    H229412   3.910   6.452   2.672 -0.2904 -0.5063 -0.1919
 9819TIP3   OH229413   4.715   1.542   2.594 -0.0647  0.1204 -0.0009
 9819TIP3    H129414   4.647   1.475   2.606 -1.4918  1.3897 -0.6980
 9819TIP3    H229415   4.782   1.498   2.541  0.3714 -1.5828  1.8422
 9820TIP3   OH229416   4.931   6.982   5.588 -0.0904  0.5642  0.2390
 9820TIP3    H129417   4.929   6.963   5.682 -0.0303  1.4186  0.4275
 9820TIP3    H229418   5.007   7.039   5.577  1.3114 -1.4023 -0.7361
 9821TIP3   OH229419   1.900   2.801   6.654  0.4545  0.1600  0.2801
 9821TIP3    H129420   1.951   2.768   6.728  0.6193 -0.9964 -0.3263
 9821TIP3    H229421   1.825   2.742   6.648  1.3900 -0.9258 -1.5834
 9822TIP3   OH229422   2.097   0.228   4.304 -0.0117 -0.3581  0.2239
 9822TIP3    H129423   2.123   0.269   4.222 -2.1913  0.5937 -0.0625
 9822TIP3    H229424   2.172   0.239   4.362  0.5938  1.3060 -0.8165
 9823TIP3   OH229425   5.050   2.266   1.381  0.0293  0.0361 -0.0421
 9823TIP3    H129426   5.036   2.351   1.422 -0.4935  1.1305 -2.3473
 9823TIP3    H229427   4.984   2.209   1.422  1.9292 -0.0268  3.2900
 9824TIP3   OH229428   2.184   4.261   2.561  0.1006  0.3983  0.3555
 9824TIP3    H129429   2.274   4.270   2.529 -0.0030  0.1795  0.0064
 9824TIP3    H229430   2.169   4.342   2.611  0.2914  0.7022 -0.0701
 9825TIP3   OH229431   8.282   4.277   4.031  0.3480  0.7068 -0.2037
 9825TIP3    H129432   8.261   4.192   3.992  0.1285 -0.4527  2.2483
 9825TIP3    H229433   8.228   4.281   4.111 -0.7786  3.8360 -0.9746
 9826TIP3   OH229434   0.684   0.265   1.943  0.1506 -0.2420  0.5498
 9826TIP3    H129435   0.721   0.346   1.909  1.0269 -0.7438  0.2776
 9826TIP3    H229436   0.727   0.252   2.028  0.1945 -0.5346  0.4858
 9827TIP3   OH229437   7.674   0.248   0.660 -0.4244  0.8167 -0.0088
 9827TIP3    H129438   7.749   0.220   0.607 -0.5667  1.5918 -0.6455
 9827TIP3    H229439   7.606   0.184   0.641  0.3240 -0.4340  1.2759
 9828TIP3   OH229440   7.885   7.017   1.065  0.2162  0.2255 -0.2104
 9828TIP3    H129441   7.898   6.927   1.038  2.2300  0.4596 -0.2477
 9828TIP3    H229442   7.972   7.057   1.057 -0.3485  1.8334  1.0012
 9829TIP3   OH229443   3.879   6.219   0.349 -0.4479  0.3994  0.2346
 9829TIP3    H129444   3.929   6.286   0.303 -1.1683  0.6392 -0.2078
 9829TIP3    H229445   3.865   6.151   0.283 -1.1283  0.5568  0.2164
 9830TIP3   OH229446   1.190   5.504   2.905  0.0765 -0.0161  0.3123
 9830TIP3    H129447   1.207   5.581   2.851 -1.2669 -0.0360 -0.1509
 9830TIP3    H229448   1.110   5.526   2.953 -0.6275 -1.3343 -0.2346
 9831TIP3   OH229449   3.874   1.453   1.498  0.3965 -0.0509 -0.4613
 9831TIP3    H129450   3.946   1.472   1.559  0.0965 -1.2159  0.2746
 9831TIP3    H229451   3.867   1.533   1.445  1.5624  0.4687  0.1180
 9832TIP3   OH229452   5.710   3.470   4.576  0.0382 -0.7753 -0.3264
 9832TIP3    H129453   5.667   3.385   4.579 -0.4778 -0.5192 -0.2289
 9832TIP3    H229454   5.715   3.492   4.483 -1.1265 -0.2851 -0.2954
 9833TIP3   OH229455   5.597   5.323   2.301 -0.2430 -0.1397 -0.0414
 9833TIP3    H129456   5.654   5.343   2.374  0.0659  0.0258 -0.3261
 9833TIP3    H229457   5.524   5.385   2.309  0.6606  1.0567 -0.8662
 9834TIP3   OH229458   2.466   5.364   4.999 -0.1730  0.8373 -0.3805
 9834TIP3    H129459   2.469   5.383   4.905 -1.8456  2.9320 -0.1032
 9834TIP3    H229460   2.372   5.360   5.019  0.1585 -0.7774  1.0132
 9835TIP3   OH229461   3.842   0.834   4.361  0.2722  0.3955  0.2293
 9835TIP3    H129462   3.748   0.838   4.347 -0.1184  1.4914  2.5745
 9835TIP3    H229463   3.874   0.921   4.337  0.4044  0.5337  0.8640
 9836TIP3   OH229464   7.585   4.415   4.418 -0.1156  0.3685  0.2317
 9836TIP3    H129465   7.620   4.350   4.479  1.2286  0.3513 -0.5197
 9836TIP3    H229466   7.519   4.462   4.468  0.8427  0.2475  1.6568
 9837TIP3   OH229467   6.560   4.138   5.916  0.3567  0.5992  0.1162
 9837TIP3    H129468   6.478   4.092   5.937  1.5462 -1.1724  1.1821
 9837TIP3    H229469   6.540   4.188   5.837 -1.4019 -0.8160 -0.4095
 9838TIP3   OH229470   0.150   7.523   6.514 -0.1340  0.0064  0.1836
 9838TIP3    H129471   0.070   7.519   6.567  0.0753 -1.3970  0.4119
 9838TIP3    H229472   0.178   7.432   6.505  0.2784  0.2674 -1.6790
 9839TIP3   OH229473   2.565   1.213   0.966 -0.0525  0.0283 -0.5708
 9839TIP3    H129474   2.583   1.175   1.052 -0.9134 -0.4814 -0.6002
 9839TIP3    H229475   2.511   1.147   0.922 -0.1978  0.5895 -1.2398
 9840TIP3   OH229476   0.533   5.200   2.285 -0.4304 -0.0299  0.1633
 9840TIP3    H129477   0.457   5.257   2.291 -1.1843 -1.0465  0.6686
 9840TIP3    H229478   0.512   5.138   2.215 -0.4725 -0.8615  0.8822
 9841TIP3   OH229479   4.330   3.683   2.570 -0.6314  0.3307  0.7097
 9841TIP3    H129480   4.396   3.615   2.583 -0.5495  0.6074  1.7950
 9841TIP3    H229481   4.252   3.635   2.542 -0.4122 -0.1517  0.9150
 9842TIP3   OH229482   1.035   1.816   6.704 -0.1375 -0.0327 -0.3456
 9842TIP3    H129483   1.062   1.903   6.734 -0.5380 -0.1852  0.4739
 9842TIP3    H229484   1.104   1.789   6.643  0.6510  0.3150  0.3802
 9843TIP3   OH229485   5.881   5.811   3.134 -0.2037  0.0764 -0.2323
 9843TIP3    H129486   5.866   5.892   3.181 -0.6557  0.3283 -0.8003
 9843TIP3    H229487   5.813   5.809   3.066  0.4675 -0.2405 -0.9153
 9844TIP3   OH229488   6.706   3.677   6.132 -0.2080  0.0773 -0.0537
 9844TIP3    H129489   6.739   3.628   6.208 -0.3033  0.5074  0.2699
 9844TIP3    H229490   6.771   3.745   6.119  0.1878 -0.4348 -0.8195
 9845TIP3   OH229491   6.473   2.014   2.202  0.5406 -0.3701  0.0777
 9845TIP3    H129492   6.558   2.013   2.158 -0.1214  1.8878 -1.4652
 9845TIP3    H229493   6.490   2.053   2.287  1.1222 -0.4184 -0.0112
 9846TIP3   OH229494   1.126   4.878   5.511 -0.3288 -0.4813  0.1571
 9846TIP3    H129495   1.032   4.892   5.495 -0.1452 -0.8910 -1.5256
 9846TIP3    H229496   1.169   4.924   5.439  0.7628 -0.4984  0.7846
 9847TIP3   OH229497   2.704   1.523   4.696  0.4082 -0.0230 -0.4486
 9847TIP3    H129498   2.694   1.618   4.702 -2.1159 -0.2728  0.8199
 9847TIP3    H229499   2.629   1.494   4.645  2.2980 -1.2304 -2.7456
 9848TIP3   OH229500   6.648   0.570   3.889  0.4445 -0.4401  0.3111
 9848TIP3    H129501   6.553   0.576   3.898  0.5304 -0.7016  1.4824
 9848TIP3    H229502   6.673   0.496   3.943  1.2828 -0.6279 -0.3090
 9849TIP3   OH229503   2.937   3.962   4.749 -0.3724  0.1757 -0.1895
 9849TIP3    H129504   3.001   4.031   4.731 -1.2498  0.8964 -0.6316
 9849TIP3    H229505   2.980   3.906   4.813  0.9516  0.2858 -0.9394
 9850TIP3   OH229506   6.080   2.552   4.675  0.6954 -0.4415  0.5295
 9850TIP3    H129507   6.171   2.528   4.693  1.0915  0.2027 -0.5207
 9850TIP3    H229508   6.085   2.606   4.596 -0.5896 -0.2887  0.5385
 9851TIP3   OH229509   5.571   0.250   2.825 -0.0895 -0.0765  0.8474
 9851TIP3    H129510   5.666   0.252   2.835 -0.1067  0.3750  0.9771
 9851TIP3    H229511   5.549   0.337   2.790 -0.5400  0.1463  1.6481
 9852TIP3   OH229512   4.053   5.357   4.912  0.0019  0.0786  0.4103
 9852TIP3    H129513   4.038   5.367   4.818 -0.4462  0.3438  0.5077
 9852TIP3    H229514   4.027   5.266   4.931 -0.5208  0.2222  0.3925
 9853TIP3   OH229515   6.128   2.921   1.507  0.0437  0.1043  0.2808
 9853TIP3    H129516   6.102   2.829   1.500  1.1100 -0.2656  1.0168
 9853TIP3    H229517   6.213   2.919   1.550  1.0073  1.3170 -1.4408
 9854TIP3   OH229518   3.145   5.640   1.755 -0.0495  0.2514  0.2413
 9854TIP3    H129519   3.137   5.566   1.695 -0.4222  1.2297 -0.9672
 9854TIP3    H229520   3.219   5.618   1.811 -0.0673 -0.9648 -0.1856
 9855TIP3   OH229521   5.634   3.430   0.658  0.1024 -0.0162 -0.4281
 9855TIP3    H129522   5.557   3.422   0.601 -0.4410  1.2363  0.1026
 9855TIP3    H229523   5.676   3.511   0.631 -0.6410  1.0631  1.4777
 9856TIP3   OH229524   0.016   2.607   6.006  0.3787 -0.3500  0.6043
 9856TIP3    H129525   0.039   2.700   6.013 -0.7622 -0.0109  0.1662
 9856TIP3    H229526   0.016   2.575   6.096  0.0943  0.2635  0.8269
 9857TIP3   OH229527   4.067   5.016   5.403  0.9073  0.3264  0.1369
 9857TIP3    H129528   4.035   5.102   5.376 -0.7507  0.1126  1.2314
 9857TIP3    H229529   4.004   4.987   5.469  0.3685 -2.5160 -1.4628
 9858TIP3   OH229530   3.824   2.011   3.837 -0.0133  0.5030  0.3555
 9858TIP3    H129531   3.849   2.096   3.874 -2.1756  1.3265  0.0793
 9858TIP3    H229532   3.738   1.994   3.875 -0.4387 -0.6517 -1.0584
 9859TIP3   OH229533   3.161   6.431   1.795  0.4456  0.4193 -0.1680
 9859TIP3    H129534   3.122   6.354   1.752  0.3201  0.0081  0.6609
 9859TIP3    H229535   3.092   6.465   1.851  1.1519 -0.1418  1.0917
 9860TIP3   OH229536   0.078   7.771   0.215 -0.2826  0.3077  0.1340
 9860TIP3    H129537   0.157   7.818   0.188  0.2226 -0.7029 -0.1910
 9860TIP3    H229538   0.049   7.726   0.136 -0.8477  0.1994  0.4007
 9861TIP3   OH229539   3.782   6.404   6.594  0.0014 -0.1836  0.4191
 9861TIP3    H129540   3.849   6.374   6.655 -1.8784 -0.7725  2.3211
 9861TIP3    H229541   3.781   6.499   6.604 -0.8026 -0.3182  1.9735
 9862TIP3   OH229542   0.193   1.245   6.518 -0.5104 -0.2289 -0.1300
 9862TIP3    H129543   0.181   1.319   6.578 -0.1020 -1.1019  1.0629
 9862TIP3    H229544   0.105   1.229   6.483 -1.1241 -0.7278  1.5103
 9863TIP3   OH229545   0.434   5.836   3.048  0.3377  0.6994  0.4488
 9863TIP3    H129546   0.391   5.751   3.050  0.5280  0.5568 -0.7268
 9863TIP3    H229547   0.528   5.816   3.046  0.3688  0.8798 -0.9391
 9864TIP3   OH229548   0.916   4.511   6.155  0.1107  0.1018  0.2848
 9864TIP3    H129549   0.834   4.462   6.154  0.2184 -0.2408  2.6492
 9864TIP3    H229550   0.940   4.519   6.063 -0.6482 -3.0669 -0.3103
 9865TIP3   OH229551   0.506   7.072   5.035 -0.1280  0.1470 -0.0127
 9865TIP3    H129552   0.451   7.148   5.015  1.1250  1.6398  1.8747
 9865TIP3    H229553   0.443   7.001   5.049 -1.7032  1.8036  2.2078
 9866TIP3   OH229554   2.401   1.747   0.420 -0.1614 -0.3357 -0.3034
 9866TIP3    H129555   2.387   1.793   0.337 -2.4491 -1.0292 -0.3661
 9866TIP3    H229556   2.412   1.817   0.485 -1.4859  0.2949 -0.7231
 9867TIP3   OH229557   1.547   3.849   6.653 -0.2292 -0.1747  0.0235
 9867TIP3    H129558   1.503   3.765   6.668  0.0899 -0.1621  1.1014
 9867TIP3    H229559   1.515   3.878   6.568 -0.7627 -1.1286 -0.1129
 9868TIP3   OH229560   4.506   4.571   4.684 -0.3658  0.4265 -0.5209
 9868TIP3    H129561   4.541   4.608   4.603  0.3671  2.9832  0.8352
 9868TIP3    H229562   4.439   4.634   4.712  0.3072  0.3287  1.4731
 9869TIP3   OH229563   1.085   2.219   0.774  0.4513 -0.4401 -1.0813
 9869TIP3    H129564   1.057   2.310   0.769 -2.5903 -1.2607 -1.0425
 9869TIP3    H229565   1.048   2.187   0.856  1.3239 -1.7658 -1.1744
 9870TIP3   OH229566   3.562   5.133   0.816  0.2242 -0.0772  0.0749
 9870TIP3    H129567   3.488   5.105   0.871 -1.0720  0.5092 -1.3240
 9870TIP3    H229568   3.627   5.064   0.827 -0.7175 -0.8545  0.9644
 9871TIP3   OH229569   2.452   7.432   1.230 -0.2600  0.3655  0.5314
 9871TIP3    H129570   2.507   7.363   1.268 -0.2286  0.3397  0.4381
 9871TIP3    H229571   2.510   7.508   1.225 -0.2030  0.3090  0.3360
 9872TIP3   OH229572   7.645   5.257   0.364  0.3503 -0.2277 -0.0472
 9872TIP3    H129573   7.609   5.341   0.395  1.7821  1.0388 -1.6206
 9872TIP3    H229574   7.615   5.193   0.428 -0.7241  1.5033  1.2685
 9873TIP3   OH229575   4.471   7.717   1.376 -0.0446 -0.1635  0.4138
 9873TIP3    H129576   4.411   7.645   1.397  0.8154 -0.6699  1.2342
 9873TIP3    H229577   4.504   7.696   1.288  2.1795 -2.2618  1.6134
 9874TIP3   OH229578   6.055   7.624   3.915  0.9291  0.3294  0.6665
 9874TIP3    H129579   5.989   7.562   3.948  0.3925 -0.5685 -1.8568
 9874TIP3    H229580   6.012   7.709   3.919  0.5553  0.1111  1.3901
 9875TIP3   OH229581   5.878   3.483   4.841  0.0318  0.3759 -0.5721
 9875TIP3    H129582   5.855   3.569   4.877  1.4367  1.5482 -2.2984
 9875TIP3    H229583   5.827   3.476   4.760  0.3010 -0.1982 -0.6955
 9876TIP3   OH229584   0.494   4.530   2.147 -0.4006  0.0060 -0.2846
 9876TIP3    H129585   0.483   4.560   2.237 -2.6922  0.2168 -0.5984
 9876TIP3    H229586   0.406   4.518   2.114  0.3800 -2.7333 -1.6670
 9877TIP3   OH229587   0.893   7.089   5.807  0.2528 -0.3312  0.1126
 9877TIP3    H129588   0.841   7.154   5.855 -0.1155 -0.7829  0.3370
 9877TIP3    H229589   0.982   7.122   5.810  0.0759  0.1455  0.2569
 9878TIP3   OH229590   7.850   1.874   3.984  0.2086  0.3566 -0.6869
 9878TIP3    H129591   7.814   1.808   3.926  0.1570 -1.4465  1.3040
 9878TIP3    H229592   7.779   1.937   3.997 -0.7236 -0.7448 -0.3548
 9879TIP3   OH229593   1.957   5.819   5.202 -0.2029  0.2632  0.4415
 9879TIP3    H129594   1.990   5.831   5.113 -0.8887  0.4463  0.2027
 9879TIP3    H229595   2.033   5.790   5.253 -0.2191 -1.7141 -0.5969
 9880TIP3   OH229596   3.234   0.936   3.463 -0.5152  0.5470  0.3004
 9880TIP3    H129597   3.138   0.934   3.472 -0.6312  1.5314 -0.6314
 9880TIP3    H229598   3.249   0.961   3.372  0.6395 -0.6244  0.1451
 9881TIP3   OH229599   5.141   4.261   3.212 -0.7770  0.4373 -0.0498
 9881TIP3    H129600   5.174   4.206   3.142  0.1392  0.7157  0.1556
 9881TIP3    H229601   5.054   4.289   3.182 -1.6840 -1.8162  0.2183
 9882TIP3   OH229602   4.009   2.529   4.340  0.1666  0.2176  0.4069
 9882TIP3    H129603   3.927   2.533   4.290  0.8134 -1.4712 -0.8794
 9882TIP3    H229604   4.034   2.621   4.351 -2.2646  0.8248  1.5202
 9883TIP3   OH229605   6.694   2.297   3.117  0.1002  0.0034 -0.2617
 9883TIP3    H129606   6.689   2.308   3.022 -0.8430  0.0659 -0.2200
 9883TIP3    H229607   6.774   2.247   3.132  1.5182  1.9742 -0.8928
 9884TIP3   OH229608   4.687   7.653   5.659 -0.4310  0.5856 -0.2231
 9884TIP3    H129609   4.760   7.694   5.705 -0.6197  0.4038  0.2495
 9884TIP3    H229610   4.632   7.617   5.729 -0.1548 -0.6614 -0.6296
 9885TIP3   OH229611   0.769   0.617   6.007  0.4292  0.2021 -0.1426
 9885TIP3    H129612   0.775   0.628   6.102  1.0665 -2.9272  0.2751
 9885TIP3    H229613   0.825   0.687   5.971  1.4142  0.4992  1.8284
 9886TIP3   OH229614   0.543   0.822   1.097  1.0845 -0.0625  0.3961
 9886TIP3    H129615   0.638   0.826   1.106  1.2015 -0.1271 -0.7208
 9886TIP3    H229616   0.526   0.846   1.006 -0.1543  2.6236  1.2254
 9887TIP3   OH229617   1.342   0.447   4.890 -0.1640  0.3952  0.6610
 9887TIP3    H129618   1.285   0.457   4.814 -0.7271  1.2004  1.1646
 9887TIP3    H229619   1.422   0.494   4.866 -0.2269  0.3931  0.4468
 9888TIP3   OH229620   1.986   4.070   6.611  0.3508  0.5446  0.2707
 9888TIP3    H129621   1.891   4.068   6.625  0.1570 -0.4305 -1.0186
 9888TIP3    H229622   2.013   4.156   6.644 -1.2058  1.4464 -0.6884
 9889TIP3   OH229623   6.173   5.108   4.332  0.0683  0.0467  0.1415
 9889TIP3    H129624   6.094   5.086   4.283  0.3010  0.5460 -0.4603
 9889TIP3    H229625   6.167   5.054   4.411 -2.0502  1.7457  1.2506
 9890TIP3   OH229626   6.606   2.763   4.139  0.4969 -0.1301 -0.0533
 9890TIP3    H129627   6.563   2.813   4.070 -0.7094 -0.6561  0.2913
 9890TIP3    H229628   6.569   2.797   4.221 -0.0604 -1.2983  0.1979
 9891TIP3   OH229629   1.194   4.607   2.442 -1.0946 -0.4928  0.3805
 9891TIP3    H129630   1.276   4.586   2.487 -0.3436 -1.7391 -1.4721
 9891TIP3    H229631   1.140   4.648   2.510  0.9560  0.1841  1.7136
 9892TIP3   OH229632   1.612   4.647  -0.027  0.1575 -0.2016 -0.2393
 9892TIP3    H129633   1.600   4.552  -0.027 -3.3435  0.1096 -1.1454
 9892TIP3    H229634   1.571   4.676   0.055  1.7024  0.5462  0.3092
 9893TIP3   OH229635   0.904   3.786   4.817  0.3245 -0.0419  0.0736
 9893TIP3    H129636   0.894   3.830   4.732  0.2631  0.1633  0.1878
 9893TIP3    H229637   0.996   3.759   4.819  1.0083  2.1174  0.9815
 9894TIP3   OH229638   5.615   0.260   3.807 -0.4500 -0.0066  0.2721
 9894TIP3    H129639   5.573   0.179   3.835 -0.1983 -0.0978  0.3852
 9894TIP3    H229640   5.580   0.327   3.866 -0.4246 -0.0839  0.3736
 9895TIP3   OH229641   0.686   2.220   5.196 -0.0332 -0.2000 -0.2256
 9895TIP3    H129642   0.734   2.202   5.115  0.0991 -1.1987  0.0647
 9895TIP3    H229643   0.649   2.135   5.221  0.4945 -0.0457  1.1196
 9896TIP3   OH229644   1.180   4.430   1.815  0.5197  0.3908 -0.7483
 9896TIP3    H129645   1.176   4.416   1.720  0.3496 -0.0850 -0.6743
 9896TIP3    H229646   1.272   4.412   1.837  0.1038 -1.6252 -0.5132
 9897TIP3   OH229647   1.073   0.261   4.846  0.6642 -0.1873 -0.1265
 9897TIP3    H129648   1.126   0.281   4.769 -0.9678  1.4534 -0.9349
 9897TIP3    H229649   1.106   0.320   4.914  1.5928 -1.0734  0.1983
 9898TIP3   OH229650   0.642   0.706   1.482 -0.0765 -0.0048  0.2970
 9898TIP3    H129651   0.700   0.776   1.452  1.2863 -0.5645  1.5500
 9898TIP3    H229652   0.592   0.745   1.553 -0.0327 -0.0095  0.3304
 9899TIP3   OH229653   5.364   2.646   1.440  0.3065  0.0983  0.5601
 9899TIP3    H129654   5.400   2.664   1.353 -1.8208  0.1262 -0.3890
 9899TIP3    H229655   5.368   2.731   1.485 -0.3280  0.5555 -0.2167
 9900TIP3   OH229656   6.541   2.986   5.404  0.0993 -0.3663  0.6485
 9900TIP3    H129657   6.622   2.961   5.360  0.7297  2.3319  0.0923
 9900TIP3    H229658   6.474   2.982   5.335  0.2579 -0.1778  0.4825
 9901TIP3   OH229659   1.616   7.023   4.653  0.4127 -0.2893  0.3126
 9901TIP3    H129660   1.693   6.971   4.678  0.7611  0.2293  0.3287
 9901TIP3    H229661   1.643   7.070   4.575 -0.2505 -0.9126 -0.3044
 9902TIP3   OH229662   3.874   2.617   2.537  0.5920  0.0892 -0.7725
 9902TIP3    H129663   3.868   2.525   2.513  0.2027  0.5340 -2.5023
 9902TIP3    H229664   3.783   2.642   2.556  0.7506  0.0342  0.1139
 9903TIP3   OH229665   0.667   3.374   3.118  0.1109 -0.5217  0.4054
 9903TIP3    H129666   0.742   3.403   3.168  0.5996 -1.5055  0.2747
 9903TIP3    H229667   0.703   3.312   3.055 -0.3975  1.0561 -1.5454
 9904TIP3   OH229668   4.751   5.837   4.099 -0.5544 -0.0324 -0.4887
 9904TIP3    H129669   4.786   5.763   4.149 -0.8285 -1.1636 -1.8913
 9904TIP3    H229670   4.816   5.853   4.031 -1.4109 -0.3087 -1.4026
 9905TIP3   OH229671   4.488   5.510   3.108 -0.5947  0.0113 -0.0735
 9905TIP3    H129672   4.453   5.553   3.030 -1.0559  0.3618  0.3210
 9905TIP3    H229673   4.451   5.422   3.106 -0.5582  0.0011 -0.2814
 9906TIP3   OH229674   1.713   2.781   3.381 -0.6065 -0.2977 -0.2036
 9906TIP3    H129675   1.684   2.721   3.312 -2.8848  0.4865  0.0006
 9906TIP3    H229676   1.666   2.753   3.459 -0.3887  0.6737  0.2984
 9907TIP3   OH229677   2.040   4.614   5.067 -0.2168  0.1495  0.1115
 9907TIP3    H129678   2.081   4.558   5.000 -1.8996 -1.9678  0.7715
 9907TIP3    H229679   1.992   4.680   5.016  1.2587  0.6696 -0.6856
 9908TIP3   OH229680   7.185   7.249   0.199 -0.5305 -0.2294 -0.1168
 9908TIP3    H129681   7.139   7.217   0.122 -1.1397  0.2495  0.0396
 9908TIP3    H229682   7.223   7.332   0.172  0.9784 -1.0134 -0.4968
 9909TIP3   OH229683   4.613   6.915   1.393  0.2832 -0.4829  0.0158
 9909TIP3    H129684   4.690   6.859   1.400 -0.0293 -1.5742 -3.3571
 9909TIP3    H229685   4.542   6.863   1.430  1.0350  0.7250  3.6246
 9910TIP3   OH229686   4.212   3.917   6.519 -0.2566  0.3645 -0.5001
 9910TIP3    H129687   4.211   3.961   6.604  0.8334 -2.5303  1.1157
 9910TIP3    H229688   4.301   3.931   6.486 -0.1904  0.1434 -0.4151
 9911TIP3   OH229689   2.968   2.251   4.818  0.7411 -0.0203 -0.3501
 9911TIP3    H129690   2.896   2.244   4.755  1.1400 -0.5696 -0.7588
 9911TIP3    H229691   2.958   2.338   4.857 -1.2807 -0.7944  1.0237
 9912TIP3   OH229692   7.754   4.810   0.399  0.0960 -0.2449  0.5905
 9912TIP3    H129693   7.792   4.895   0.373 -0.0909 -0.3769 -0.1439
 9912TIP3    H229694   7.773   4.803   0.492  0.1456  0.5964  0.6566
 9913TIP3   OH229695   6.606   3.000   2.430  0.4054  0.0386  1.0568
 9913TIP3    H129696   6.656   2.927   2.464  0.1827 -0.6044  0.0510
 9913TIP3    H229697   6.627   3.073   2.488  0.9787 -0.7029  1.8044
 9914TIP3   OH229698   5.428   0.538   1.409  0.2438  0.4872  0.0749
 9914TIP3    H129699   5.437   0.453   1.367 -1.4939 -0.8503  2.1855
 9914TIP3    H229700   5.362   0.584   1.358 -0.3655 -0.3119  0.1188
 9915TIP3   OH229701   6.149   1.360   0.226 -0.3832 -0.6777 -0.1549
 9915TIP3    H129702   6.165   1.280   0.275  0.9708 -0.9000 -0.9059
 9915TIP3    H229703   6.173   1.431   0.286 -0.1910 -0.8962  0.0280
 9916TIP3   OH229704   4.629   6.313   0.893 -0.5580 -0.2353 -0.8699
 9916TIP3    H129705   4.621   6.330   0.987 -0.8706 -0.3292 -0.8784
 9916TIP3    H229706   4.611   6.398   0.853  0.3002 -0.0230 -0.8193
 9917TIP3   OH229707   2.947   4.000   0.132  0.3357  0.2664 -0.1207
 9917TIP3    H129708   2.861   4.011   0.090  1.0406  1.3068 -1.4049
 9917TIP3    H229709   2.996   4.078   0.104  2.2874 -1.1802 -0.9423
 9918TIP3   OH229710   7.357   6.974   0.943  0.6894  0.2994 -0.7881
 9918TIP3    H129711   7.274   7.019   0.956  0.5582 -0.1249 -0.1239
 9918TIP3    H229712   7.343   6.888   0.982  1.4835  0.2692 -0.5674
 9919TIP3   OH229713   5.625   5.505   2.603  0.6944  0.2856  0.1851
 9919TIP3    H129714   5.632   5.581   2.545 -1.8119  1.0202  0.6961
 9919TIP3    H229715   5.533   5.505   2.632  0.8522 -2.3474  1.0346
 9920TIP3   OH229716   0.815   1.918   4.956  0.0069  0.0946  0.3239
 9920TIP3    H129717   0.837   1.826   4.969  0.8714  0.3431  0.7334
 9920TIP3    H229718   0.723   1.918   4.928  0.2413 -0.9368 -0.4934
 9921TIP3   OH229719   8.075   7.669   5.604  0.0566  0.9753  0.3922
 9921TIP3    H129720   8.048   7.681   5.513 -0.7554  0.0748  0.4993
 9921TIP3    H229721   8.132   7.593   5.604 -0.3362  0.6694  0.6891
 9922TIP3   OH229722   7.208   3.555   4.839 -0.5428 -0.0262 -0.2007
 9922TIP3    H129723   7.218   3.489   4.908 -0.5147 -0.0777 -0.2548
 9922TIP3    H229724   7.114   3.574   4.838 -0.2738  1.8807  1.6723
 9923TIP3   OH229725   2.794   2.371   2.519  0.1774 -0.2552 -0.1625
 9923TIP3    H129726   2.725   2.429   2.551 -0.5663  0.2324 -2.4290
 9923TIP3    H229727   2.763   2.283   2.540  0.9864  0.0580  2.6960
 9924TIP3   OH229728   0.935   0.219   3.047 -0.1137 -0.3949  0.3662
 9924TIP3    H129729   0.842   0.241   3.045 -0.0219 -0.0333 -0.0387
 9924TIP3    H229730   0.939   0.134   3.091 -0.6774 -0.6117  0.0096
 9925TIP3   OH229731   5.762   4.844   0.437 -0.3733  0.3937 -0.0296
 9925TIP3    H129732   5.715   4.784   0.495 -0.3209 -1.8945 -2.1785
 9925TIP3    H229733   5.830   4.882   0.493  0.6537 -2.8221  1.1710
 9926TIP3   OH229734   3.787   0.140   4.941 -0.0514 -0.0943 -0.0024
 9926TIP3    H129735   3.762   0.048   4.938  1.0237 -0.4364  0.7657
 9926TIP3    H229736   3.805   0.156   5.034 -0.5523  0.9835 -0.0813
 9927TIP3   OH229737   3.363   4.797   6.131 -0.2432 -0.1984 -0.4270
 9927TIP3    H129738   3.437   4.737   6.127 -0.7704 -0.8890 -0.1151
 9927TIP3    H229739   3.309   4.774   6.055  0.0267  0.5389 -0.8545
 9928TIP3   OH229740   5.581   1.854   5.957  0.1359  0.1235 -0.0201
 9928TIP3    H129741   5.651   1.836   5.894 -0.1783 -0.2817 -0.2634
 9928TIP3    H229742   5.626   1.870   6.040  0.6155  1.6066 -0.5323
 9929TIP3   OH229743   5.859   6.748   4.320  0.1384  0.2917 -0.4204
 9929TIP3    H129744   5.886   6.732   4.410 -1.9290  1.0982  0.4014
 9929TIP3    H229745   5.886   6.838   4.302  0.3194  0.2191 -0.5106
 9930TIP3   OH229746   5.287   5.481   0.106  0.3087 -0.5640 -0.1412
 9930TIP3    H129747   5.306   5.452   0.017  0.1024 -1.9839  0.2515
 9930TIP3    H229748   5.192   5.493   0.109  0.2848 -0.7667 -0.0483
 9931TIP3   OH229749   6.151   4.720   5.953  0.2837  0.2140 -0.1109
 9931TIP3    H129750   6.219   4.664   5.915 -0.4584 -0.9696  0.2439
 9931TIP3    H229751   6.199   4.787   6.000  1.2073 -0.0297 -0.6729
 9932TIP3   OH229752   1.702   0.709   1.250  0.1351 -0.0443 -0.2809
 9932TIP3    H129753   1.618   0.704   1.204 -0.1761  0.0020  0.2645
 9932TIP3    H229754   1.680   0.693   1.342  0.4663  1.6263  0.1270
 9933TIP3   OH229755   1.043   0.523   4.061 -0.0494 -0.0048 -0.3998
 9933TIP3    H129756   1.080   0.578   3.992  1.5569  1.0334  1.1803
 9933TIP3    H229757   0.956   0.561   4.077  0.0920  0.5805 -0.9489
 9934TIP3   OH229758   5.783   1.372   4.927 -0.0630 -0.3076  0.0274
 9934TIP3    H129759   5.791   1.425   5.006  2.0041 -2.5852  1.5200
 9934TIP3    H229760   5.694   1.338   4.929 -0.6002  1.0690  0.3761
 9935TIP3   OH229761   5.488   4.777   3.682  0.2076 -0.5324 -0.1477
 9935TIP3    H129762   5.472   4.691   3.721  0.7282 -1.0368 -1.0195
 9935TIP3    H229763   5.584   4.787   3.683  0.1577  0.0008 -0.1391
 9936TIP3   OH229764   4.073   0.589   6.255 -0.3623 -0.0669 -0.0197
 9936TIP3    H129765   4.063   0.594   6.160  1.6194  1.2961 -0.2147
 9936TIP3    H229766   4.017   0.658   6.290 -0.8922 -0.4010 -0.2019
 9937TIP3   OH229767   7.075   2.272   3.300 -0.7236  0.2413  0.1192
 9937TIP3    H129768   7.061   2.205   3.233  0.7485 -1.0498  1.0187
 9937TIP3    H229769   6.987   2.294   3.330 -1.2815 -1.0109 -0.4840
 9938TIP3   OH229770   8.264   1.290   4.391 -0.0554 -0.1205  0.1607
 9938TIP3    H129771   8.183   1.336   4.371  0.1620  0.7038  1.1031
 9938TIP3    H229772   8.262   1.213   4.334 -1.6878 -0.3318  0.4297
 9939TIP3   OH229773   4.251   1.948   3.777  0.7050 -0.0402 -0.2938
 9939TIP3    H129774   4.325   1.899   3.813  0.5724 -1.0913 -1.3656
 9939TIP3    H229775   4.214   1.889   3.711 -1.8153 -0.0481  1.0016
 9940TIP3   OH229776   2.461   1.532   4.061  0.1991  0.1898  0.7011
 9940TIP3    H129777   2.477   1.441   4.087 -1.6485 -0.1618  0.7459
 9940TIP3    H229778   2.523   1.548   3.991 -0.2924 -1.5657 -0.1972
 9941TIP3   OH229779   5.215   2.273   2.714  0.6556  0.0565  0.6709
 9941TIP3    H129780   5.229   2.365   2.694 -1.4203  0.4548  0.8299
 9941TIP3    H229781   5.303   2.235   2.716  1.4948  1.8333 -0.2659
 9942TIP3   OH229782   3.632   2.816   2.967  0.0440 -0.9365  0.0343
 9942TIP3    H129783   3.541   2.815   2.937  0.0241  0.7176 -0.0600
 9942TIP3    H229784   3.631   2.767   3.049 -0.8607 -1.2339 -0.1444
 9943TIP3   OH229785   7.219   7.264   0.563  0.2665 -0.2169 -0.2168
 9943TIP3    H129786   7.272   7.231   0.636 -0.0211  1.5172  0.8474
 9943TIP3    H229787   7.253   7.218   0.486  1.9063 -0.6915  0.7239
 9944TIP3   OH229788   3.506   1.326   5.784 -0.3349  0.4092 -0.1721
 9944TIP3    H129789   3.552   1.247   5.812 -0.1527 -0.0010 -1.5660
 9944TIP3    H229790   3.414   1.299   5.776 -0.1851  0.1495 -1.2224
 9945TIP3   OH229791   1.607   6.220   1.847 -0.0622  0.5038  0.5578
 9945TIP3    H129792   1.557   6.259   1.918  0.9986  1.0170  1.0389
 9945TIP3    H229793   1.590   6.277   1.772  0.6711  1.3047  0.9986
 9946TIP3   OH229794   0.431   4.927   4.548  0.4079  0.0552 -0.3311
 9946TIP3    H129795   0.478   5.003   4.513 -0.8068  1.8733  1.7916
 9946TIP3    H229796   0.485   4.896   4.621 -0.2722  0.3770  0.3161
 9947TIP3   OH229797   3.541   7.505   2.428 -0.0512 -0.2292 -0.3342
 9947TIP3    H129798   3.620   7.538   2.470  0.2760 -1.4743  0.0560
 9947TIP3    H229799   3.471   7.522   2.492  0.1864 -0.6723  0.0478
 9948TIP3   OH229800   6.695   6.243   5.162  0.2912  0.7977 -0.5585
 9948TIP3    H129801   6.751   6.312   5.126  2.4145  0.1842  1.2492
 9948TIP3    H229802   6.743   6.162   5.144 -0.7652  0.0875 -0.2514
 9949TIP3   OH229803   1.223   1.270   5.019 -0.0728  0.5033 -0.0201
 9949TIP3    H129804   1.163   1.307   5.084 -0.3006  1.2983 -0.6618
 9949TIP3    H229805   1.206   1.176   5.022 -0.1399  0.5383  1.0056
 9950TIP3   OH229806   2.116   7.572   2.905  0.0827 -0.3264 -0.3924
 9950TIP3    H129807   2.060   7.565   2.982 -0.5946  1.9227 -0.6128
 9950TIP3    H229808   2.189   7.513   2.922 -2.0637 -3.0799  0.1034
 9951TIP3   OH229809   3.174   2.868   2.061 -0.7442 -0.3737 -0.1141
 9951TIP3    H129810   3.130   2.830   1.985 -2.1553  0.8753  0.0338
 9951TIP3    H229811   3.107   2.921   2.104  0.8622  1.4718  0.2370
 9952TIP3   OH229812   5.656   7.241   3.829  0.1808 -0.0025 -0.6440
 9952TIP3    H129813   5.674   7.251   3.922 -0.2581  1.4854 -0.6923
 9952TIP3    H229814   5.561   7.235   3.823 -0.0241  2.6440 -1.1585
 9953TIP3   OH229815   3.780   4.532   2.190  0.0243 -0.4526 -1.1924
 9953TIP3    H129816   3.770   4.466   2.259 -0.4147  0.5211 -0.2826
 9953TIP3    H229817   3.865   4.514   2.151  0.2909 -1.0185 -0.3717
 9954TIP3   OH229818   3.321   3.764   0.314  0.1763  0.4875  0.1959
 9954TIP3    H129819   3.306   3.798   0.402  0.2004 -0.4666  0.5773
 9954TIP3    H229820   3.242   3.787   0.266 -1.0443 -1.3680  1.2131
 9955TIP3   OH229821   0.979   0.165   2.761 -0.3495  0.1482 -0.2244
 9955TIP3    H129822   0.898   0.193   2.718 -1.3496  0.5850  1.7757
 9955TIP3    H229823   0.966   0.190   2.853  1.7486 -0.4911  0.2955
 9956TIP3   OH229824   7.047   6.529   6.537  0.6205  0.0627 -0.4667
 9956TIP3    H129825   7.080   6.461   6.596  0.9855  0.3406 -0.3440
 9956TIP3    H229826   7.118   6.541   6.473  0.7801  0.6887 -0.1807
 9957TIP3   OH229827   7.706   0.701   2.245 -0.5020 -0.1189 -0.0290
 9957TIP3    H129828   7.743   0.746   2.168  0.1957 -2.1029 -0.9336
 9957TIP3    H229829   7.753   0.618   2.248 -2.1513 -1.0609  1.1874
 9958TIP3   OH229830   0.114   1.400   2.986  0.1474 -0.3027 -0.2316
 9958TIP3    H129831   0.109   1.489   2.951 -0.1132 -1.4069 -3.3346
 9958TIP3    H229832   0.207   1.382   2.994  0.2304 -0.1944 -0.9139
 9959TIP3   OH229833   1.433   1.175   2.544 -0.8700  0.1156 -0.6917
 9959TIP3    H129834   1.490   1.111   2.587 -0.4372 -0.3467 -1.8891
 9959TIP3    H229835   1.396   1.128   2.470  0.9869  1.7014 -2.8122
 9960TIP3   OH229836   1.007   4.886   1.919  0.4311  0.3185  0.1209
 9960TIP3    H129837   1.012   4.796   1.887 -0.3793  0.2510  0.1716
 9960TIP3    H229838   1.048   4.883   2.005  2.9686  0.5735 -0.9904
 9961TIP3   OH229839   7.450   7.438   5.088  0.0676  0.2770  0.3807
 9961TIP3    H129840   7.431   7.361   5.141 -1.2208 -0.0520 -0.4944
 9961TIP3    H229841   7.530   7.474   5.125 -0.1974 -0.5552  1.8370
 9962TIP3   OH229842   7.619   4.919   4.376 -0.4634 -0.2648  0.2786
 9962TIP3    H129843   7.636   4.861   4.301 -0.4717 -0.6857  0.5963
 9962TIP3    H229844   7.613   5.006   4.338  3.4300  0.1539  0.1866
 9963TIP3   OH229845   5.577   0.536   4.855  0.0319  0.5485 -0.3530
 9963TIP3    H129846   5.561   0.565   4.944  0.8512  1.2892 -0.4375
 9963TIP3    H229847   5.514   0.464   4.841  0.3949 -0.0597  1.0486
 9964TIP3   OH229848   7.627   6.686   2.552  0.0840 -0.5684  0.2950
 9964TIP3    H129849   7.688   6.751   2.587 -1.5128  0.0327  2.1969
 9964TIP3    H229850   7.627   6.701   2.458  0.8869  1.2131  0.5363
 9965TIP3   OH229851   1.817   2.514   5.965  0.3781 -0.7953 -0.1407
 9965TIP3    H129852   1.882   2.582   5.982 -0.0880 -0.4541  0.3288
 9965TIP3    H229853   1.807   2.513   5.870  2.3692 -2.0892 -0.4067
 9966TIP3   OH229854   2.246   1.492   0.282 -0.0168  0.4921  0.1050
 9966TIP3    H129855   2.321   1.543   0.314 -0.8156  1.1172  1.0203
 9966TIP3    H229856   2.273   1.400   0.294  0.8058  0.7019 -0.0806
 9967TIP3   OH229857   5.744   6.759   5.714  0.0352 -0.3398 -0.6460
 9967TIP3    H129858   5.750   6.747   5.620 -0.1501 -0.6337 -0.6201
 9967TIP3    H229859   5.760   6.853   5.727  0.7865 -0.4240 -0.9037
 9968TIP3   OH229860   0.625   4.863   4.729 -0.1148  0.3795 -0.2846
 9968TIP3    H129861   0.681   4.814   4.669 -0.5765 -0.2107 -0.2395
 9968TIP3    H229862   0.639   4.822   4.814 -0.1991  0.5842 -0.1718
 9969TIP3   OH229863   7.892   2.387   5.708 -0.1334 -0.3457  0.1011
 9969TIP3    H129864   7.950   2.455   5.744  0.4489  0.4283 -2.1619
 9969TIP3    H229865   7.876   2.414   5.618  0.3793 -3.3627 -1.0040
 9970TIP3   OH229866   1.713   6.009   1.389  0.2907  0.3996 -0.3190
 9970TIP3    H129867   1.740   5.977   1.475 -0.5396  0.7089  0.0671
 9970TIP3    H229868   1.646   5.947   1.360 -0.9118  1.3988  0.1797
 9971TIP3   OH229869   7.885   5.206   6.366  0.2448  0.0391 -0.0311
 9971TIP3    H129870   7.876   5.111   6.362  1.1902 -0.0084 -1.8535
 9971TIP3    H229871   7.795   5.238   6.358  0.1519 -0.6925 -3.2425
 9972TIP3   OH229872   2.881   0.091   1.359  0.4432  0.5076  0.1430
 9972TIP3    H129873   2.831   0.083   1.441 -0.2288  0.8204 -0.2296
 9972TIP3    H229874   2.973   0.085   1.387  0.2355 -2.7571  0.5798
 9973TIP3   OH229875   4.151   1.403   5.233 -0.5668 -0.0133  0.4140
 9973TIP3    H129876   4.083   1.444   5.180 -0.1063 -0.0589 -0.2219
 9973TIP3    H229877   4.232   1.446   5.206 -0.0667 -1.3300 -0.2681
 9974TIP3   OH229878   1.352   2.514   3.282 -0.1132  0.1717  0.4181
 9974TIP3    H129879   1.439   2.533   3.247 -0.7254 -0.3174 -1.5274
 9974TIP3    H229880   1.367   2.444   3.346  1.1546  1.6049  1.7738
 9975TIP3   OH229881   4.615   0.183   5.558 -0.4242 -0.1989 -0.3726
 9975TIP3    H129882   4.674   0.184   5.482  1.2597  2.7839  0.7966
 9975TIP3    H229883   4.582   0.273   5.563  1.4687  0.5129  3.6821
 9976TIP3   OH229884   3.738   2.801   2.025  0.4003 -0.3729  0.6776
 9976TIP3    H129885   3.827   2.773   2.046  0.3151  0.5230  2.4254
 9976TIP3    H229886   3.697   2.723   1.987  1.8796 -0.8234 -0.0826
 9977TIP3   OH229887   5.901   6.042   4.171  0.2914 -0.7176  0.2390
 9977TIP3    H129888   5.842   5.995   4.230 -0.5817  0.9430  0.7319
 9977TIP3    H229889   5.860   6.127   4.158  1.1246 -0.5741 -1.7660
 9978TIP3   OH229890   1.631   0.241   6.376  0.1332 -0.1036  0.1260
 9978TIP3    H129891   1.687   0.207   6.307  0.6648 -0.9456  0.9573
 9978TIP3    H229892   1.692   0.265   6.446 -0.4697 -0.1314  0.6631
 9979TIP3   OH229893   1.492   5.297   4.743  0.1883 -0.1339 -0.3508
 9979TIP3    H129894   1.423   5.311   4.678  0.2075 -0.2389 -0.3944
 9979TIP3    H229895   1.520   5.385   4.769 -0.4227 -0.0744  0.1520
 9980TIP3   OH229896   1.262   5.838   4.567 -0.1755  0.1732 -0.1613
 9980TIP3    H129897   1.195   5.776   4.594  2.0098 -2.1292  0.3969
 9980TIP3    H229898   1.300   5.799   4.488  1.8794  0.2542  0.7269
 9981TIP3   OH229899   4.218   2.728   4.433  0.1387 -0.1905 -0.1748
 9981TIP3    H129900   4.266   2.672   4.495 -0.0895  1.1335  1.2703
 9981TIP3    H229901   4.282   2.747   4.364  0.9943 -0.2366  0.5784
 9982TIP3   OH229902   7.627   7.175   6.663  0.0897  0.2197 -0.5583
 9982TIP3    H129903   7.625   7.168   6.568  0.1806 -0.0609 -0.5396
 9982TIP3    H229904   7.719   7.158   6.686 -0.0210 -0.1526 -0.3870
 9983TIP3   OH229905   6.910   4.157   4.401  0.3996 -0.3766 -0.3250
 9983TIP3    H129906   6.816   4.167   4.389  0.4857  3.2474  0.6809
 9983TIP3    H229907   6.948   4.189   4.319  0.7204  0.8582  0.2790
 9984TIP3   OH229908   6.762   3.628   0.456 -0.3894  0.0049 -0.2865
 9984TIP3    H129909   6.848   3.588   0.450 -0.2783  0.2564 -0.3811
 9984TIP3    H229910   6.779   3.722   0.467 -0.6259 -0.1353  1.3985
 9985TIP3   OH229911   3.562   5.738   5.531  0.7757  0.3682 -0.1809
 9985TIP3    H129912   3.525   5.825   5.517 -0.8873 -0.3746 -0.5906
 9985TIP3    H229913   3.516   5.703   5.607  2.4985  0.3963  0.9217
 9986TIP3   OH229914   5.476   1.050   5.542  0.5539 -0.1985  0.1633
 9986TIP3    H129915   5.558   1.009   5.515  0.0570 -0.8985 -0.3247
 9986TIP3    H229916   5.445   0.995   5.614  0.8839  0.5136  0.8657
 9987TIP3   OH229917   7.875   7.193   5.674  0.1431  0.0367  0.2103
 9987TIP3    H129918   7.802   7.231   5.722  0.8489  2.3190 -0.3973
 9987TIP3    H229919   7.949   7.197   5.734  0.7468  1.7931 -0.5935
 9988TIP3   OH229920   1.075   4.068   2.617  0.1916 -0.4002  0.3872
 9988TIP3    H129921   1.136   4.096   2.685 -0.9046  1.1928  0.7714
 9988TIP3    H229922   0.988   4.091   2.652 -0.3012  3.5725 -2.7845
 9989TIP3   OH229923   4.165   2.290   6.084 -0.0939  0.3821  0.4475
 9989TIP3    H129924   4.228   2.265   6.016  0.1820 -0.0928  0.8754
 9989TIP3    H229925   4.198   2.374   6.117 -0.9220  1.2745 -0.8625
 9990TIP3   OH229926   6.630   3.186   2.648  0.4359 -0.1068 -0.2385
 9990TIP3    H129927   6.584   3.261   2.684  1.0665  0.3369 -0.3465
 9990TIP3    H229928   6.613   3.115   2.710  2.1908  0.8363  1.3995
 9991TIP3   OH229929   4.572   3.212   3.788  0.2737  0.2041  0.1000
 9991TIP3    H129930   4.545   3.141   3.729  0.3609 -0.9282  1.3619
 9991TIP3    H229931   4.504   3.279   3.778 -1.5566 -1.3731  1.0830
 9992TIP3   OH229932   2.786   0.439   5.473  0.2599 -0.0801  0.7632
 9992TIP3    H129933   2.770   0.365   5.531 -0.7413 -1.2830 -0.9523
 9992TIP3    H229934   2.859   0.410   5.418 -0.3396  0.0735 -0.1256
 9993TIP3   OH229935   5.054   3.576   1.655 -0.2941 -0.1869  0.4114
 9993TIP3    H129936   5.002   3.498   1.636 -0.6859  0.5381 -1.6398
 9993TIP3    H229937   5.107   3.551   1.731  0.0180 -2.6680 -0.5366
 9994TIP3   OH229938   3.452   1.825   5.385 -0.1995 -0.0082 -0.8626
 9994TIP3    H129939   3.403   1.746   5.407 -1.3001  0.8713 -0.1097
 9994TIP3    H229940   3.478   1.812   5.293 -2.6286 -0.1191 -1.6050
 9995TIP3   OH229941   5.700   0.021   1.997  0.2524 -0.1842  0.9602
 9995TIP3    H129942   5.621   0.070   2.018 -0.0694 -0.3544  0.1735
 9995TIP3    H229943   5.772   0.078   2.026 -0.1186  0.6543  0.2846
 9996TIP3   OH229944   3.324   2.812   3.438 -0.3954 -0.2861  0.3256
 9996TIP3    H129945   3.257   2.881   3.439 -0.6148 -0.5004  0.4678
 9996TIP3    H229946   3.290   2.744   3.496  0.8304  0.4509  2.0094
 9997TIP3   OH229947   2.637   7.014   2.048 -0.0143  0.0889 -0.5808
 9997TIP3    H129948   2.590   6.982   2.125  1.8583 -1.3633  0.0411
 9997TIP3    H229949   2.634   7.109   2.056 -2.1497  0.0476 -0.2080
 9998TIP3   OH229950   3.093   7.729   4.114 -0.4242 -0.0799 -0.1572
 9998TIP3    H129951   3.038   7.651   4.108 -0.5552  0.0341 -0.4453
 9998TIP3    H229952   3.171   7.700   4.162 -0.5694 -0.3309 -0.0725
 9999TIP3   OH229953   7.251   0.299   5.497 -0.4926 -0.3034  0.1818
 9999TIP3    H129954   7.287   0.383   5.527  0.6832 -0.5647 -0.4640
 9999TIP3    H229955   7.230   0.314   5.405 -0.1387 -0.7671  0.0271
10000TIP3   OH229956   3.313   0.279   6.729 -0.2775  0.2060 -0.0463
10000TIP3    H129957   3.334   0.185   6.725  0.3648  0.4034 -3.1005
10000TIP3    H229958   3.226   0.285   6.691 -0.1191  0.9013 -0.2994
10001TIP3   OH229959   3.117   1.965   2.969 -0.0920 -0.4887  0.3706
10001TIP3    H129960   3.067   1.984   3.048 -0.5805  0.5053 -0.1653
10001TIP3    H229961   3.197   2.017   2.977  0.5798 -1.5616  0.9095
10002TIP3   OH229962   0.138   7.185   2.064  0.0852  0.2013 -0.0634
10002TIP3    H129963   0.212   7.127   2.082 -0.5261 -0.4075  0.5630
10002TIP3    H229964   0.107   7.158   1.977  0.0085 -0.1906  0.0845
10003TIP3   OH229965   7.321   6.658   1.318 -0.2484 -0.1093 -0.6272
10003TIP3    H129966   7.311   6.564   1.305  0.4343 -0.5265  1.3601
10003TIP3    H229967   7.413   6.669   1.343 -0.3358  1.0723 -0.7583
10004TIP3   OH229968   1.815   2.632   1.922 -0.2007 -0.2212  0.7208
10004TIP3    H129969   1.781   2.547   1.893 -0.3959 -0.4979  1.7279
10004TIP3    H229970   1.826   2.622   2.016 -2.3553  1.5885  1.2440
10005TIP3   OH229971   1.525   2.468   2.052  0.0208  0.3204 -0.1548
10005TIP3    H129972   1.492   2.414   2.124 -0.5160  2.0441  0.9741
10005TIP3    H229973   1.528   2.409   1.976 -0.6214 -1.2293  0.9742
10006TIP3   OH229974   6.089   4.250   2.438 -0.2678  0.0254 -0.4658
10006TIP3    H129975   6.107   4.204   2.521 -0.0002  1.6827  0.4490
10006TIP3    H229976   6.032   4.323   2.463 -1.9829 -0.6657 -2.1265
10007TIP3   OH229977   8.089   5.741   1.211 -0.1004 -0.7349 -0.2952
10007TIP3    H129978   7.993   5.741   1.222 -0.0987  0.6477 -0.0559
10007TIP3    H229979   8.103   5.719   1.119 -0.6018 -1.7669 -0.1402
10008TIP3   OH229980   1.436   7.722   4.340  0.4034 -0.0342  0.2106
10008TIP3    H129981   1.452   7.634   4.374 -1.8151  0.1695  1.9787
10008TIP3    H229982   1.488   7.780   4.395  0.6770 -0.1023  0.0261
10009TIP3   OH229983   5.618   6.453   5.387  0.3613 -0.3487  0.4875
10009TIP3    H129984   5.593   6.378   5.332 -0.3241 -0.6242  1.1628
10009TIP3    H229985   5.699   6.426   5.429 -0.5893 -1.2976  1.7997
10010TIP3   OH229986   6.300   3.450   3.781 -0.5935 -0.6314 -0.4035
10010TIP3    H129987   6.285   3.411   3.867  0.3213 -0.9346 -0.3743
10010TIP3    H229988   6.395   3.450   3.771 -0.6897 -0.5105 -1.3738
10011TIP3   OH229989   1.291   7.328   5.125  0.1589 -0.1634 -0.1042
10011TIP3    H129990   1.204   7.365   5.140 -0.4669 -1.1242 -1.1559
10011TIP3    H229991   1.284   7.286   5.039  1.8077  0.1417 -0.4278
10012TIP3   OH229992   1.664   1.999   0.580  0.0355 -0.3157 -0.2758
10012TIP3    H129993   1.629   2.087   0.570  0.9768  0.2832  1.2947
10012TIP3    H229994   1.722   1.987   0.505 -2.3485 -0.7964 -2.1489
10013TIP3   OH229995   3.793   6.453   5.468  0.1325  0.0179 -0.0996
10013TIP3    H129996   3.709   6.491   5.496  0.6342  0.3357  0.9927
10013TIP3    H229997   3.811   6.496   5.384 -0.7560 -0.0039 -0.3192
10014TIP3   OH229998   5.080   4.290   2.471 -0.0104  0.3308  0.6681
10014TIP3    H129999   5.150   4.324   2.415  1.6770  0.2240  2.5734
10014TIP3    H230000   5.032   4.367   2.501  1.6406  0.8261  2.2260
10015TIP3   OH230001   7.962   1.855   0.263 -0.4393  0.0056  0.2618
10015TIP3    H130002   7.896   1.851   0.333 -1.6501 -0.3671 -0.8549
10015TIP3    H230003   8.022   1.924   0.291 -0.0249 -1.1137  2.3855
10016TIP3   OH230004   4.438   0.390   5.534  0.1177 -0.7391  0.8796
10016TIP3    H130005   4.423   0.479   5.563  1.2624 -0.4012  0.4809
10016TIP3    H230006   4.374   0.376   5.464 -0.7353 -0.5927  1.6113
10017TIP3   OH230007   3.080   3.562   1.033 -0.2617 -0.7856 -0.4016
10017TIP3    H130008   3.023   3.581   1.108 -0.0037 -0.7167 -0.2207
10017TIP3    H230009   3.035   3.602   0.959  0.5845  1.1250  0.0596
10018TIP3   OH230010   5.326   7.677   1.620 -0.7256  0.0955 -0.7827
10018TIP3    H130011   5.337   7.625   1.699 -2.0798  0.6092 -0.2137
10018TIP3    H230012   5.413   7.711   1.601 -0.0317 -1.4995 -0.5639
10019TIP3   OH230013   4.011   5.602   5.336 -0.3721 -0.1599  0.0115
10019TIP3    H130014   4.046   5.581   5.249  0.4501  2.0111 -0.2462
10019TIP3    H230015   3.921   5.630   5.319 -0.0560  0.7467 -0.2382
10020TIP3   OH230016   5.787   6.523   2.278 -0.4980 -0.0199 -0.5423
10020TIP3    H130017   5.825   6.447   2.323  0.0667 -0.7990 -2.2562
10020TIP3    H230018   5.799   6.595   2.340 -3.0774 -1.6694  2.0997
10021TIP3   OH230019   0.827   5.592   0.042 -0.1144  0.3289  0.1525
10021TIP3    H130020   0.891   5.526   0.016 -0.8739  0.4078 -2.1781
10021TIP3    H230021   0.832   5.594   0.138  5.4838  2.4868  0.1899
10022TIP3   OH230022   0.225  -0.003   0.411 -0.4682 -0.1016  0.3318
10022TIP3    H130023   0.131   0.018   0.411 -0.5384  0.0633  3.3595
10022TIP3    H230024   0.267   0.075   0.447  0.7173 -0.5424 -0.0558
10023TIP3   OH230025   4.358   7.748   5.695  0.1094 -0.4039 -0.0043
10023TIP3    H130026   4.383   7.826   5.745 -1.7777  1.2398 -1.4390
10023TIP3    H230027   4.441   7.713   5.663  1.0365  0.9016  0.8390
10024TIP3   OH230028   2.116   3.976   4.319  0.0282 -0.3342  0.4412
10024TIP3    H130029   2.075   3.904   4.273  0.1834 -0.6657  0.8183
10024TIP3    H230030   2.054   3.999   4.388  0.5733 -1.0012  1.1693
10025TIP3   OH230031   8.091   6.242   2.618  0.5479  0.2105 -0.1990
10025TIP3    H130032   8.168   6.297   2.633  0.6997  0.5499 -2.0300
10025TIP3    H230033   8.126   6.155   2.601  0.7602  0.7492 -3.0446
10026TIP3   OH230034   5.819   4.607   6.547 -0.2150  0.9249 -0.6831
10026TIP3    H130035   5.807   4.548   6.472 -1.6473  1.8359 -1.1968
10026TIP3    H230036   5.894   4.570   6.594 -1.8497 -2.1244 -0.2021
10027TIP3   OH230037   0.956   1.910   6.338  0.2433 -0.6347 -0.6956
10027TIP3    H130038   0.932   1.992   6.381  0.9445 -0.6686 -0.2108
10027TIP3    H230039   0.926   1.920   6.248 -0.8496 -0.3770 -0.3139
10028TIP3   OH230040   2.936   1.598   4.063  0.3910  0.0466  0.1201
10028TIP3    H130041   2.862   1.580   4.121  0.7324  0.2696  0.6251
10028TIP3    H230042   2.918   1.545   3.985 -0.6952  0.7077 -0.0882
10029TIP3   OH230043   4.478   0.929   5.980 -0.4395 -0.5009 -0.2549
10029TIP3    H130044   4.399   0.983   5.971 -0.5442 -0.4460  0.8895
10029TIP3    H230045   4.447   0.839   5.970 -0.6597 -0.4824  0.2458
10030TIP3   OH230046   7.189   0.279   2.976  0.5559 -0.2659  0.5804
10030TIP3    H130047   7.281   0.286   3.001  0.7275  1.9717 -0.4234
10030TIP3    H230048   7.190   0.233   2.892  0.9636  1.2948 -0.2985
10031TIP3   OH230049   2.264   4.200   6.041 -0.1597  0.1857 -0.6471
10031TIP3    H130050   2.260   4.170   5.950 -1.4622  2.0312 -1.2598
10031TIP3    H230051   2.201   4.272   6.045 -0.5739 -0.2440  1.8967
10032TIP3   OH230052   3.845   1.021   2.759  0.0203 -0.3458 -0.0159
10032TIP3    H130053   3.786   0.998   2.830  1.6084 -1.3040  1.0589
10032TIP3    H230054   3.790   1.018   2.680 -2.8946  4.7347  1.3201
10033TIP3   OH230055   3.993   4.484   1.407 -0.3616 -0.1208 -0.3437
10033TIP3    H130056   3.921   4.420   1.410 -0.1451 -0.3393  0.2948
10033TIP3    H230057   4.065   4.440   1.452  0.4444 -0.2315 -1.6891
10034TIP3   OH230058   3.399   5.898   0.656 -0.1948 -0.1777  0.0625
10034TIP3    H130059   3.426   5.955   0.584 -0.1721 -2.3116 -1.7527
10034TIP3    H230060   3.461   5.916   0.726  0.6634  0.9902 -0.9578
10035TIP3   OH230061   5.639   1.851   6.260 -0.0463 -0.4964  0.4000
10035TIP3    H130062   5.710   1.857   6.324 -0.9191  0.3905  1.3176
10035TIP3    H230063   5.619   1.942   6.238 -0.2462 -0.7708 -0.6047
10036TIP3   OH230064   3.031   3.286   3.757 -0.0537 -0.7130  0.2621
10036TIP3    H130065   3.104   3.241   3.715  0.1588  0.4331 -0.6307
10036TIP3    H230066   2.965   3.296   3.688  0.0284  0.5909  0.3502
10037TIP3   OH230067   7.234   3.426   5.305  0.4441 -0.2196  0.7693
10037TIP3    H130068   7.148   3.454   5.337  0.9117  1.0712  0.9605
10037TIP3    H230069   7.296   3.458   5.371  1.2089  0.2608 -0.1573
10038TIP3   OH230070   6.542   2.718   2.267  0.5812  0.3565  0.0323
10038TIP3    H130071   6.577   2.728   2.355 -0.3254 -0.9114  0.5552
10038TIP3    H230072   6.545   2.624   2.249 -1.9917  0.2051 -0.0784
10039TIP3   OH230073   3.315   4.578   1.521 -0.7742 -0.0474 -0.5136
10039TIP3    H130074   3.267   4.539   1.594 -2.2427  0.9411 -0.9003
10039TIP3    H230075   3.277   4.539   1.443 -0.7042  0.4730 -0.8152
10040TIP3   OH230076   8.090   4.075   6.385 -0.1872  0.1680 -0.1658
10040TIP3    H130077   7.997   4.050   6.380 -0.3266  0.5476  0.3701
10040TIP3    H230078   8.113   4.063   6.478  0.1176  0.7002 -0.1711
10041TIP3   OH230079   3.128   7.763   3.006  0.0952 -0.1043  0.0971
10041TIP3    H130080   3.052   7.822   3.009 -0.4926 -0.8116 -0.5137
10041TIP3    H230081   3.104   7.691   3.064  0.4416 -0.1696  0.1577
10042TIP3   OH230082   2.574   1.477   2.498  0.3592  0.5684  0.3908
10042TIP3    H130083   2.501   1.476   2.560 -0.0663  0.0026 -0.1035
10042TIP3    H230084   2.554   1.549   2.439 -0.0271  0.1643  0.0118
10043TIP3   OH230085   5.687   0.193   5.675 -0.5571  0.3193 -0.7112
10043TIP3    H130086   5.662   0.172   5.765  1.8444  1.1034  0.2263
10043TIP3    H230087   5.673   0.112   5.626 -2.5494  0.0772  0.1709
10044TIP3   OH230088   7.072   7.543   0.074 -0.3861  0.1837  0.3067
10044TIP3    H130089   6.993   7.488   0.083 -2.0924  2.1381 -1.6236
10044TIP3    H230090   7.060   7.612   0.138 -0.5590  0.7910 -0.3655
10045TIP3   OH230091   8.125   5.559   3.174 -0.2543 -0.6058 -0.0266
10045TIP3    H130092   8.119   5.535   3.081  1.2329 -1.3988  0.0421
10045TIP3    H230093   8.218   5.576   3.188 -0.2375 -1.7804  1.6108
10046TIP3   OH230094   0.989   0.293   4.377 -0.4024  0.0035 -0.0498
10046TIP3    H130095   1.049   0.277   4.450 -0.9480 -1.6342  0.0757
10046TIP3    H230096   0.939   0.370   4.403  0.4052  0.3101  0.6440
10047TIP3   OH230097   5.954   4.545   6.078 -0.0251  0.9929 -0.4868
10047TIP3    H130098   5.926   4.612   6.141  0.1130  0.4049  0.2197
10047TIP3    H230099   6.010   4.592   6.017 -0.4825  1.6622 -0.4099
10048TIP3   OH230100   1.093   0.934   4.033 -0.3507  0.8009  0.4296
10048TIP3    H130101   1.121   0.895   4.115 -2.9066 -3.6405 -0.4716
10048TIP3    H230102   1.008   0.973   4.052 -1.8592 -1.8851 -0.2418
10049TIP3   OH230103   5.509   0.593   2.226  0.2864  0.1441  0.6153
10049TIP3    H130104   5.597   0.583   2.190  0.2091 -0.2757  0.5398
10049TIP3    H230105   5.451   0.585   2.151  0.1504 -0.2462  0.7557
10050TIP3   OH230106   5.937   6.588   0.245  0.0321  0.1607 -0.1919
10050TIP3    H130107   5.891   6.672   0.251  2.7103  1.6940  1.0015
10050TIP3    H230108   5.896   6.533   0.312 -1.0642  0.8624 -0.2601
10051TIP3   OH230109   1.752   5.561   0.035 -0.0986  0.1875 -0.4414
10051TIP3    H130110   1.658   5.561   0.057 -0.4785  1.3043 -1.8835
10051TIP3    H230111   1.763   5.484  -0.021  0.0844 -0.5068  0.5139
10052TIP3   OH230112   7.987   0.075   3.169  0.3476  0.1236  0.3079
10052TIP3    H130113   7.927   0.127   3.115  0.5827  0.0486 -0.0255
10052TIP3    H230114   8.062   0.133   3.185 -0.8599  1.1827  2.8458
10053TIP3   OH230115   2.906   6.197   1.423 -0.3288 -0.3079  0.2775
10053TIP3    H130116   2.872   6.146   1.497  1.2616 -1.1379  0.4968
10053TIP3    H230117   2.937   6.131   1.361 -1.7478  0.3785 -1.2291
10054TIP3   OH230118   0.532   6.665   2.826 -0.5226 -0.3623  0.3754
10054TIP3    H130119   0.492   6.579   2.813  1.0339 -1.0193 -0.3660
10054TIP3    H230120   0.476   6.725   2.776 -0.9569 -1.1345 -0.0907
10055TIP3   OH230121   4.840   1.776   4.062 -0.0270  0.1742  0.2723
10055TIP3    H130122   4.800   1.701   4.018 -0.3263  0.0617  0.7279
10055TIP3    H230123   4.863   1.836   3.991 -0.2284 -0.1374 -0.0595
10056TIP3   OH230124   4.114   1.065   5.612 -0.3334  0.2687  0.1449
10056TIP3    H130125   4.075   1.056   5.699  1.8748  1.0493  1.2737
10056TIP3    H230126   4.088   1.153   5.584 -1.7069 -0.2733 -0.3760
10057TIP3   OH230127   7.160   5.700   0.656  0.0106  0.1389 -0.3974
10057TIP3    H130128   7.139   5.607   0.653 -0.1477  0.1041  1.2106
10057TIP3    H230129   7.075   5.744   0.663  0.1692  0.2312  1.5271
10058TIP3   OH230130   0.898   7.171   3.765 -0.5092  0.1702 -0.3344
10058TIP3    H130131   0.938   7.250   3.730  0.7971 -0.0789  0.5493
10058TIP3    H230132   0.806   7.177   3.739  0.2251  0.3040 -3.2004
10059TIP3   OH230133   7.887   3.496   3.913 -0.0842  0.2225  0.0995
10059TIP3    H130134   7.837   3.435   3.858 -1.5942 -0.2221  1.8567
10059TIP3    H230135   7.968   3.511   3.865 -0.2913 -2.0371 -1.0927
10060TIP3   OH230136   4.933   1.063   2.389 -0.4412 -0.4097 -1.0567
10060TIP3    H130137   4.941   0.967   2.395  0.0223 -0.3105  0.0331
10060TIP3    H230138   5.008   1.090   2.336  0.7165 -0.4521  0.5141
10061TIP3   OH230139   4.681   7.291   1.749 -0.0459  0.4245  0.0433
10061TIP3    H130140   4.588   7.310   1.754 -0.1311 -0.3114  1.9850
10061TIP3    H230141   4.686   7.195   1.746  0.6568  0.4562 -0.0198
10062TIP3   OH230142   6.485   2.501   5.528 -0.8481 -0.0907  0.2676
10062TIP3    H130143   6.414   2.464   5.475 -0.2839 -1.0507  0.1548
10062TIP3    H230144   6.554   2.435   5.525  0.6249  1.4073 -0.7797
10063TIP3   OH230145   3.819   7.410   1.739  0.1670  0.0968 -0.1646
10063TIP3    H130146   3.914   7.425   1.742  0.1588  0.0055  0.8777
10063TIP3    H230147   3.806   7.359   1.659  0.8940  0.7887 -0.7422
10064TIP3   OH230148   1.882   5.035   4.140  0.5811  0.0380 -0.0437
10064TIP3    H130149   1.976   5.056   4.140  0.6294 -0.1752  0.3906
10064TIP3    H230150   1.866   4.997   4.226  0.5356 -1.9123 -0.8703
10065TIP3   OH230151   0.779   0.040   4.550 -0.1036 -0.0299 -0.3607
10065TIP3    H130152   0.810   0.092   4.624 -0.5364  2.2132 -1.6499
10065TIP3    H230153   0.685   0.057   4.546 -0.3199 -1.2401 -0.6018
10066TIP3   OH230154   0.821   3.838   5.997 -0.4220  0.1664 -0.1123
10066TIP3    H130155   0.792   3.799   5.915  0.4591 -1.6697  0.3967
10066TIP3    H230156   0.741   3.872   6.038 -1.3773 -1.8496 -0.2196
10067TIP3   OH230157   7.154   4.144   1.806  0.6923  0.0756 -0.2022
10067TIP3    H130158   7.133   4.192   1.726  1.9289  0.2984 -0.4125
10067TIP3    H230159   7.113   4.058   1.793  0.6518  0.1970 -0.9632
10068TIP3   OH230160   2.067   2.108   1.514 -0.0454 -0.2163 -0.4676
10068TIP3    H130161   2.136   2.053   1.552  0.2764  0.2426 -0.3851
10068TIP3    H230162   2.094   2.197   1.533 -0.8817 -0.0400 -0.0587
10069TIP3   OH230163   7.634   6.749   6.169 -0.0504  1.0789 -0.3412
10069TIP3    H130164   7.722   6.770   6.201 -0.2512  1.0239  0.2682
10069TIP3    H230165   7.598   6.833   6.141  0.1666  1.1146 -0.5097
10070TIP3   OH230166   7.085   4.346   1.607 -0.2316  0.3677 -0.1672
10070TIP3    H130167   7.029   4.411   1.565  0.8611  0.9183 -0.8135
10070TIP3    H230168   7.156   4.330   1.544 -0.3600 -1.3036  0.0622
10071TIP3   OH230169   6.969   0.335   0.845  0.1158 -0.1295 -0.0462
10071TIP3    H130170   7.025   0.260   0.824  0.2043 -0.1393  0.2225
10071TIP3    H230171   6.880   0.299   0.844 -0.0492  0.2228 -2.0549
10072TIP3   OH230172   0.250   7.689   2.257  0.4700  0.1166  0.2795
10072TIP3    H130173   0.207   7.682   2.343 -1.9896  0.0427 -0.8527
10072TIP3    H230174   0.244   7.600   2.221 -1.3759  0.7592 -1.1546
10073TIP3   OH230175   8.171   3.370   0.740 -1.4510  0.5951  0.6817
10073TIP3    H130176   8.173   3.282   0.703  1.4777  0.0079  1.8869
10073TIP3    H230177   8.112   3.363   0.815 -1.3570 -0.3508  0.6883
10074TIP3   OH230178   2.947   6.950   6.085 -0.6638  0.4776  0.4991
10074TIP3    H130179   3.015   7.010   6.116  1.4086 -0.3312 -2.0763
10074TIP3    H230180   2.932   6.891   6.159  1.2426  0.8986  1.2758
10075TIP3   OH230181   8.244   6.714   3.761  0.7733  0.2762 -0.5327
10075TIP3    H130182   8.234   6.666   3.843 -3.3913 -0.4774 -1.2866
10075TIP3    H230183   8.230   6.806   3.786 -0.9739  0.0047 -0.3722
10076TIP3   OH230184   2.034   2.927   1.116 -0.1145 -0.4381  0.4159
10076TIP3    H130185   1.953   2.880   1.094 -1.6696  1.4668  1.7513
10076TIP3    H230186   2.048   2.986   1.043 -1.0675  0.6048  1.0500
10077TIP3   OH230187   5.783   2.041   4.950 -0.4239 -0.3012  0.4839
10077TIP3    H130188   5.848   1.979   4.985  0.4094  0.2513 -0.0567
10077TIP3    H230189   5.834   2.102   4.897 -1.2975  0.5694  0.6131
10078TIP3   OH230190   8.059   7.731   5.319 -0.6723 -0.0529  0.8665
10078TIP3    H130191   8.134   7.790   5.317  0.9773 -2.0222 -0.6013
10078TIP3    H230192   7.990   7.777   5.271  0.6383  0.6346 -0.4577
10079TIP3   OH230193   0.545   2.110   1.062  0.3591 -0.2973 -0.3641
10079TIP3    H130194   0.543   2.206   1.058  0.7459 -0.2150  0.9487
10079TIP3    H230195   0.475   2.088   1.123  2.1447 -0.6476  1.6636
10080TIP3   OH230196   3.276   0.158   3.436 -0.2062 -0.1071  0.1869
10080TIP3    H130197   3.246   0.142   3.526  0.4512 -0.0783  0.4107
10080TIP3    H230198   3.344   0.225   3.444  1.9545 -2.1685  0.0052
10081TIP3   OH230199   6.230   2.422   5.430 -0.1553 -0.3176  0.4506
10081TIP3    H130200   6.279   2.432   5.349  0.6110  1.0857  1.0602
10081TIP3    H230201   6.141   2.399   5.402 -0.1502  1.0964 -0.8358
10082TIP3   OH230202   7.436   5.294   4.457 -0.3579 -0.8047  0.4458
10082TIP3    H130203   7.512   5.276   4.402 -1.7747 -0.0542 -1.9000
10082TIP3    H230204   7.415   5.210   4.497  1.1590 -1.2185  0.4365
10083TIP3   OH230205   5.076   6.504   2.977 -0.1937 -0.3169  0.0215
10083TIP3    H130206   5.094   6.440   2.908 -1.8911  0.0599 -0.8283
10083TIP3    H230207   5.156   6.555   2.985  0.7907 -1.7797 -0.1014
10084TIP3   OH230208   7.712   4.910   3.555 -0.1997  0.6644  0.2979
10084TIP3    H130209   7.788   4.859   3.583 -0.3610 -0.5971 -1.4117
10084TIP3    H230210   7.637   4.860   3.588 -0.3340  1.1045  0.6766
10085TIP3   OH230211   2.573   4.068   3.366  0.7854 -0.5033  0.6264
10085TIP3    H130212   2.540   3.978   3.364  1.1786 -0.6397 -1.0232
10085TIP3    H230213   2.524   4.110   3.437 -1.1065 -1.3766 -0.0954
10086TIP3   OH230214   7.821   4.613   5.521  0.1668  0.1020  0.1989
10086TIP3    H130215   7.813   4.689   5.579  0.4749 -0.3289  0.8105
10086TIP3    H230216   7.755   4.629   5.453 -0.7579  0.2397  1.0902
10087TIP3   OH230217   2.567   2.227   6.066  0.6460  0.3681 -0.6578
10087TIP3    H130218   2.628   2.178   6.011  0.3523  1.3050 -1.8487
10087TIP3    H230219   2.597   2.317   6.062  0.2930  0.5406  0.2893
10088TIP3   OH230220   0.127   3.390   0.274 -1.0064 -0.1944 -0.4963
10088TIP3    H130221   0.043   3.394   0.228  0.0091 -1.2256 -2.6005
10088TIP3    H230222   0.159   3.302   0.257  0.2666  0.0115  0.7148
10089TIP3   OH230223   3.153   1.114   5.183 -0.4592 -0.1416  0.2152
10089TIP3    H130224   3.163   1.019   5.174  1.0061 -0.3249  2.9357
10089TIP3    H230225   3.187   1.149   5.101  0.8207 -1.8893 -0.0596
10090TIP3   OH230226   0.486   2.072   3.091 -0.1025 -0.1809  0.4424
10090TIP3    H130227   0.547   2.029   3.151  0.3589 -0.3486 -0.1488
10090TIP3    H230228   0.438   2.000   3.050  0.9895 -0.1737 -0.8920
10091TIP3   OH230229   4.995   7.073   4.623 -0.0924  0.1047 -0.4448
10091TIP3    H130230   4.982   7.108   4.712 -0.0677 -1.4892  0.2087
10091TIP3    H230231   4.907   7.056   4.591 -0.1706 -4.6225  1.5190
10092TIP3   OH230232   4.663   2.743   1.301  0.5909  0.6009 -0.0282
10092TIP3    H130233   4.584   2.731   1.354  0.3667  1.6984 -0.0710
10092TIP3    H230234   4.732   2.764   1.364  0.5290  1.0119 -0.0945
10093TIP3   OH230235   3.847   6.900   1.273 -0.3453 -0.0129 -0.1029
10093TIP3    H130236   3.882   6.959   1.340 -0.0497 -1.7692  1.3687
10093TIP3    H230237   3.753   6.898   1.288 -0.1892 -1.0879  0.9081
10094TIP3   OH230238   2.918   3.593   3.017  0.1931 -0.0814 -0.1317
10094TIP3    H130239   2.950   3.664   2.962 -0.3630 -0.2547 -0.6885
10094TIP3    H230240   2.887   3.637   3.097 -2.4941  0.6582 -1.4526
10095TIP3   OH230241   7.242   6.292   2.031  0.4287 -0.1028  0.4613
10095TIP3    H130242   7.336   6.303   2.047  0.2606  2.7056 -0.0086
10095TIP3    H230243   7.231   6.312   1.938 -0.7461  0.7118  0.7505
10096TIP3   OH230244   0.436   4.194   2.435 -0.4467  0.7849 -0.7281
10096TIP3    H130245   0.507   4.254   2.460 -0.8843  0.7799  0.6224
10096TIP3    H230246   0.472   4.143   2.363  0.5222  1.5463 -0.8099
10097TIP3   OH230247   5.193   1.411   4.133 -0.0905 -0.3227  0.3454
10097TIP3    H130248   5.268   1.470   4.123 -0.1196 -0.3665 -0.1326
10097TIP3    H230249   5.199   1.351   4.059 -0.8028 -0.1038  0.1036
10098TIP3   OH230250   0.074   5.421   2.504  0.3359 -0.0533 -0.5738
10098TIP3    H130251   0.123   5.467   2.436 -0.4410  0.4611 -0.7990
10098TIP3    H230252   0.048   5.339   2.463  0.5968 -0.1123 -0.6192
10099TIP3   OH230253   5.563   7.085   4.273 -0.0517 -0.1418  0.3895
10099TIP3    H130254   5.606   7.060   4.354 -1.6801 -0.3413  1.2345
10099TIP3    H230255   5.561   7.181   4.275  0.1180 -0.1399  0.4637
10100TIP3   OH230256   7.148   2.959   5.765  0.0386  0.2761 -0.0897
10100TIP3    H130257   7.192   2.956   5.850  0.0616 -0.1639 -0.1144
10100TIP3    H230258   7.055   2.966   5.785  0.1296  1.5685 -0.0373
10101TIP3   OH230259   1.678   3.981   6.278  0.1424  0.2793 -0.2860
10101TIP3    H130260   1.684   3.948   6.188 -0.4401  0.2428 -0.3132
10101TIP3    H230261   1.585   3.974   6.300  0.1930  0.8327  0.1134
10102TIP3   OH230262   0.264   7.144   4.784  0.1682  0.2114 -0.1898
10102TIP3    H130263   0.328   7.200   4.740 -0.6055  2.1207  0.9565
10102TIP3    H230264   0.200   7.206   4.821 -0.4196 -1.4131  1.6714
10103TIP3   OH230265   3.474   6.845   1.159 -0.6177  0.6131 -0.2455
10103TIP3    H130266   3.414   6.864   1.087  1.9148  1.3493 -2.3053
10103TIP3    H230267   3.552   6.810   1.117  0.5183 -0.1463  2.2961
10104TIP3   OH230268   4.799   1.937   3.567  0.7120  0.4452 -0.3432
10104TIP3    H130269   4.849   1.953   3.487  0.2814  1.5112 -0.4084
10104TIP3    H230270   4.713   1.974   3.549  0.3902  0.0531  0.3588
10105TIP3   OH230271   4.719   5.358   4.392 -0.1050 -0.2420  0.2830
10105TIP3    H130272   4.730   5.273   4.435  1.1387 -1.3218 -2.0027
10105TIP3    H230273   4.806   5.398   4.395 -0.0151 -0.3044 -1.0769
10106TIP3   OH230274   5.586   4.212   0.615  0.4657 -0.0700 -0.0893
10106TIP3    H130275   5.658   4.151   0.630 -0.4421 -1.0241  0.5336
10106TIP3    H230276   5.507   4.158   0.620 -0.2401  0.5868 -2.6274
10107TIP3   OH230277   1.647   4.230   1.383 -0.3609  0.3149 -0.1423
10107TIP3    H130278   1.690   4.149   1.409 -1.1806  0.3593  1.4803
10107TIP3    H230279   1.617   4.214   1.294  0.1465 -0.8891 -0.1078
10108TIP3   OH230280   7.906   5.540   2.400 -0.6573 -0.1755  0.4425
10108TIP3    H130281   7.898   5.633   2.377  1.8692  0.1919  0.7731
10108TIP3    H230282   7.982   5.536   2.457  0.4151 -2.6811 -0.9952
10109TIP3   OH230283   4.835   5.034   1.013 -0.5542  0.0257  0.3377
10109TIP3    H130284   4.796   5.008   1.096 -1.5288  2.8125  0.8436
10109TIP3    H230285   4.927   5.010   1.021 -0.3696  1.2601  2.7052
10110TIP3   OH230286   5.053   6.532   6.413 -0.1627 -0.4063 -0.6133
10110TIP3    H130287   4.975   6.538   6.357 -0.4451 -2.4404 -0.5098
10110TIP3    H230288   5.105   6.461   6.375  2.2117  1.5365 -1.2705
10111TIP3   OH230289   4.781   0.829   5.132  0.4718 -0.2786 -0.3380
10111TIP3    H130290   4.736   0.874   5.061  0.2837  0.8240  0.4487
10111TIP3    H230291   4.757   0.737   5.121 -0.3977  0.0188 -1.0767
10112TIP3   OH230292   7.533   5.062   0.946 -0.4248 -0.1901 -0.6957
10112TIP3    H130293   7.579   5.141   0.919 -1.5804  0.9426  0.4888
10112TIP3    H230294   7.517   5.075   1.040 -0.2773 -2.0277 -0.3793
10113TIP3   OH230295   1.862   3.793   0.837  0.3706 -0.4918  0.0342
10113TIP3    H130296   1.913   3.761   0.912  0.8766  0.8746  0.3226
10113TIP3    H230297   1.822   3.874   0.869  1.8255  0.9504 -1.5815
10114TIP3   OH230298   5.668   3.090   6.387 -0.2127  0.4937  0.6420
10114TIP3    H130299   5.723   3.158   6.424  3.1598 -1.2293 -0.7584
10114TIP3    H230300   5.695   3.085   6.295 -2.1095 -1.0878  0.0920
10115TIP3   OH230301   4.584   5.759   1.456  0.0237 -0.4944  0.2368
10115TIP3    H130302   4.631   5.806   1.388  1.2886  1.4607  2.2888
10115TIP3    H230303   4.586   5.667   1.429  1.3013  0.0855 -1.8350
10116TIP3   OH230304   2.532   5.688   0.391 -0.0421  0.4113  0.0778
10116TIP3    H130305   2.559   5.612   0.341  0.7278  0.3536  0.5581
10116TIP3    H230306   2.475   5.653   0.460  0.5040  0.2248  0.4449
10117TIP3   OH230307   0.289   4.847   0.121 -0.0599 -0.2177  0.2296
10117TIP3    H130308   0.355   4.783   0.094 -0.7493 -1.6480  1.7374
10117TIP3    H230309   0.339   4.927   0.137  1.1512 -0.9483  0.2780
10118TIP3   OH230310   3.617   3.467   5.898  0.1803  0.3843 -0.0187
10118TIP3    H130311   3.709   3.444   5.883 -0.1207 -1.1598  0.2748
10118TIP3    H230312   3.576   3.456   5.813 -0.0218 -0.5168  0.1851
10119TIP3   OH230313   6.706   4.223   2.650  0.0383  0.0932  0.4189
10119TIP3    H130314   6.616   4.198   2.628 -0.5968  3.0591 -0.8818
10119TIP3    H230315   6.710   4.215   2.745 -2.0442  1.0694  0.6476
10120TIP3   OH230316   2.145   5.836   1.881 -0.0655 -0.2065  0.3618
10120TIP3    H130317   2.077   5.824   1.816 -0.6042  0.2619  0.8240
10120TIP3    H230318   2.144   5.930   1.899  1.2930 -0.0485 -0.2501
10121TIP3   OH230319   4.934   1.872   6.680  0.4115  0.1067 -0.1146
10121TIP3    H130320   4.923   1.884   6.586 -1.5712 -0.1225  0.0521
10121TIP3    H230321   5.014   1.921   6.701  1.5228 -0.7498 -2.0600
10122TIP3   OH230322   8.245   4.674   2.710  0.2351 -0.5939 -0.2363
10122TIP3    H130323   8.315   4.650   2.648  1.2933  0.1798  0.6199
10122TIP3    H230324   8.186   4.598   2.709  1.9968 -2.0408  0.2891
10123TIP3   OH230325   3.757   5.464   5.316  1.0972 -0.0610 -0.3493
10123TIP3    H130326   3.709   5.453   5.399  2.0182  0.0831  0.2181
10123TIP3    H230327   3.688   5.467   5.249  0.2224  1.1702  0.5386
10124TIP3   OH230328   0.516   7.462   5.934 -0.1697 -0.2166  0.2406
10124TIP3    H130329   0.460   7.436   6.007 -0.4363  0.2595  0.2091
10124TIP3    H230330   0.587   7.512   5.975 -0.8866  0.9723  0.0850
10125TIP3   OH230331   4.561   3.530   1.867 -0.0916 -0.0678  0.3404
10125TIP3    H130332   4.558   3.495   1.778 -0.1745  2.4401 -0.7175
10125TIP3    H230333   4.634   3.484   1.909 -0.8835 -2.2360 -0.5555
10126TIP3   OH230334   8.002   3.263   2.382 -0.0382  0.3866 -0.7054
10126TIP3    H130335   8.085   3.217   2.392 -0.6568 -0.5075  0.6557
10126TIP3    H230336   8.007   3.336   2.443 -0.5418 -0.1244 -0.0404
10127TIP3   OH230337   7.654   6.719   4.024 -0.0093 -0.0140 -0.7161
10127TIP3    H130338   7.596   6.657   3.981 -0.1330  0.9110 -1.9497
10127TIP3    H230339   7.738   6.709   3.979  0.5473 -0.6737  0.4225
10128TIP3   OH230340   2.625   4.189   5.716 -0.3260  0.1286 -0.2585
10128TIP3    H130341   2.564   4.218   5.784 -0.6828 -2.5966  0.6909
10128TIP3    H230342   2.579   4.207   5.634 -1.1484  0.7668  0.3187
10129TIP3   OH230343   7.901   6.153   3.552 -0.0353 -0.0196 -0.6407
10129TIP3    H130344   7.916   6.073   3.602  3.5130  0.7278 -0.2290
10129TIP3    H230345   7.903   6.223   3.617 -1.0709  0.5900 -1.2364
10130TIP3   OH230346   3.968   2.592   5.940  0.1803 -0.2525  0.4121
10130TIP3    H130347   3.944   2.639   6.020  0.4513 -0.2476  0.4917
10130TIP3    H230348   4.060   2.567   5.954  1.3086  2.5381 -1.1958
10131TIP3   OH230349   6.781   4.983   3.580 -0.1658  0.1414  0.5627
10131TIP3    H130350   6.709   4.999   3.519 -1.1303  1.4167  1.9545
10131TIP3    H230351   6.763   5.041   3.654  0.5870 -1.7773  2.3644
10132TIP3   OH230352   1.477   4.310   3.637 -0.3708  0.1518  0.2528
10132TIP3    H130353   1.462   4.216   3.642  0.0296  0.0963  0.4365
10132TIP3    H230354   1.570   4.321   3.656 -0.3701  0.5666  0.0219
10133TIP3   OH230355   0.517   4.871   3.306 -0.5598  0.2582  0.2157
10133TIP3    H130356   0.497   4.802   3.369  0.0838 -0.9179 -0.8054
10133TIP3    H230357   0.432   4.903   3.277 -0.8690  1.3006  2.1339
10134TIP3   OH230358   0.206   3.443   3.029 -0.4120  0.1018 -0.4046
10134TIP3    H130359   0.285   3.419   3.079  0.7352 -0.3762 -2.3334
10134TIP3    H230360   0.206   3.538   3.028 -1.3959  0.1869  1.8523
10135TIP3   OH230361   7.043   5.735   6.703  0.2526  0.1519  0.2703
10135TIP3    H130362   7.020   5.775   6.619  0.3466  1.6866  0.9387
10135TIP3    H230363   6.989   5.657   6.708 -0.6147  0.6670 -0.7029
10136TIP3   OH230364   4.125   4.183   0.074  0.3382  1.0890 -0.3514
10136TIP3    H130365   4.218   4.198   0.059  0.1075  2.2924 -0.6835
10136TIP3    H230366   4.108   4.222   0.160  0.4138 -0.4414  0.4038
10137TIP3   OH230367   0.353   3.693   3.867  0.5495 -0.5177 -0.2044
10137TIP3    H130368   0.335   3.715   3.776  0.6299 -1.3196 -0.4199
10137TIP3    H230369   0.272   3.651   3.898  0.5659 -0.3607  0.0571
10138TIP3   OH230370   6.624   7.523   5.389 -0.6077  0.2264  0.0271
10138TIP3    H130371   6.688   7.459   5.420 -0.7423 -0.5571 -1.2479
10138TIP3    H230372   6.669   7.608   5.400  0.0698 -0.1832  0.5206
10139TIP3   OH230373   7.663   1.507   0.347  0.7701  0.2896  0.0115
10139TIP3    H130374   7.633   1.489   0.258 -0.0061 -1.0323  0.5087
10139TIP3    H230375   7.702   1.594   0.342 -1.4885  1.3426 -1.1212
10140TIP3   OH230376   1.329   4.798   1.820  0.1231  0.1582  0.0301
10140TIP3    H130377   1.292   4.722   1.865  1.0796 -0.5803 -0.3886
10140TIP3    H230378   1.367   4.852   1.889  0.6181 -0.4239  0.2166
10141TIP3   OH230379   2.286   2.887   2.159  0.7269 -0.1401 -0.3673
10141TIP3    H130380   2.342   2.844   2.095  2.0249  1.4268 -0.3716
10141TIP3    H230381   2.346   2.911   2.230 -0.2026  0.3642  0.2676
10142TIP3   OH230382   6.050   4.578   5.424 -0.2886  0.3625  0.5780
10142TIP3    H130383   5.975   4.546   5.373 -0.2795 -1.3156  1.5457
10142TIP3    H230384   6.011   4.639   5.487 -0.4171  1.7540 -0.7991
10143TIP3   OH230385   5.693   6.196   1.160  0.0240  0.4992  1.1223
10143TIP3    H130386   5.698   6.104   1.184 -2.8694  0.2762  1.2154
10143TIP3    H230387   5.732   6.200   1.073 -1.5052 -1.2420  0.2753
10144TIP3   OH230388   7.595   5.242   2.752  0.5219  0.5844  0.2903
10144TIP3    H130389   7.678   5.291   2.758  0.8022  0.1557 -0.0144
10144TIP3    H230390   7.614   5.158   2.794  0.2197  0.5053  0.2703
10145TIP3   OH230391   0.328   5.043   1.482 -0.1130  0.2185  0.1468
10145TIP3    H130392   0.358   5.133   1.494 -2.0142  1.1603 -1.5769
10145TIP3    H230393   0.273   5.026   1.557 -2.8627  1.9857 -1.2964
10146TIP3   OH230394   7.592   0.124   1.635  0.0538  0.2186  0.3520
10146TIP3    H130395   7.627   0.169   1.558 -0.4307 -0.9469 -0.5861
10146TIP3    H230396   7.635   0.166   1.709  0.4432  1.4593 -0.5434
10147TIP3   OH230397   0.286   7.401   4.978 -0.3203 -0.4914  0.4570
10147TIP3    H130398   0.347   7.391   4.905 -0.3839 -1.8155  0.5689
10147TIP3    H230399   0.341   7.428   5.052 -0.4737  2.7011 -0.4235
10148TIP3   OH230400   6.851   2.149   0.669 -0.0701 -0.3518  0.0835
10148TIP3    H130401   6.784   2.153   0.737  0.1001 -0.4764  0.2605
10148TIP3    H230402   6.894   2.065   0.682  0.5729  0.0167  0.4054
10149TIP3   OH230403   1.360   4.053   1.402  0.2744 -0.0794  0.1612
10149TIP3    H130404   1.269   4.079   1.418  0.1930 -0.4722  0.3485
10149TIP3    H230405   1.362   4.026   1.310  0.8287  2.5545 -0.6779
10150TIP3   OH230406   7.127   2.254   1.622  0.2184 -0.2771 -0.3691
10150TIP3    H130407   7.197   2.200   1.656  0.7404 -0.3600 -1.5177
10150TIP3    H230408   7.075   2.195   1.567 -1.4739 -0.5081  1.3650
10151TIP3   OH230409   0.410   7.816   6.401  0.0465  0.5373  0.1459
10151TIP3    H130410   0.398   7.748   6.335 -0.7547  1.5512 -0.7953
10151TIP3    H230411   0.325   7.822   6.445 -0.4014  1.9592 -0.8321
10152TIP3   OH230412   5.467   0.685   5.487 -0.0861 -0.7146  0.2416
10152TIP3    H130413   5.400   0.749   5.465 -0.2442 -1.1944 -0.7200
10152TIP3    H230414   5.418   0.609   5.520 -0.0033 -0.9660 -0.2095
10153TIP3   OH230415   2.681   0.090   3.829 -0.0326  0.4173 -0.4832
10153TIP3    H130416   2.764   0.137   3.822  0.3528 -0.3784 -1.4968
10153TIP3    H230417   2.683   0.051   3.916 -0.0937  1.7377  0.1467
10154TIP3   OH230418   2.094   4.259   3.753 -0.1811 -0.1904 -0.2638
10154TIP3    H130419   2.060   4.245   3.841 -0.6717  0.2399 -0.3798
10154TIP3    H230420   2.079   4.177   3.707 -1.3499  0.0863 -0.4017
10155TIP3   OH230421   0.141   5.055   1.675  0.2812 -0.2417  0.1934
10155TIP3    H130422   0.066   4.997   1.661 -0.4490  1.0024 -1.4231
10155TIP3    H230423   0.149   5.063   1.770 -0.8450 -1.3978  0.3995
10156TIP3   OH230424   7.205   5.999   2.587  0.1545  0.3293  0.1817
10156TIP3    H130425   7.155   6.003   2.668 -1.6301 -1.3554 -0.7695
10156TIP3    H230426   7.221   6.091   2.564 -1.3948  0.8755  1.1692
10157TIP3   OH230427   3.220   5.244   0.747 -0.0781 -0.0184  0.4170
10157TIP3    H130428   3.296   5.247   0.690  0.0801  0.3406  0.6421
10157TIP3    H230429   3.256   5.253   0.836 -0.1365 -2.3965  0.7471
10158TIP3   OH230430   3.840   0.385   3.484  0.7279 -1.2183  0.5538
10158TIP3    H130431   3.747   0.366   3.493  0.1269  1.2340  0.3166
10158TIP3    H230432   3.860   0.444   3.557  1.0768  1.3823 -1.4542
10159TIP3   OH230433   0.095   5.147   2.835 -0.2575 -0.2334 -0.1955
10159TIP3    H130434   0.115   5.072   2.891  0.4553  0.3756  0.3784
10159TIP3    H230435   0.032   5.198   2.885 -2.7818 -1.7200 -1.6526
10160TIP3   OH230436   6.177   0.942   2.900 -0.3691  0.1405  0.1272
10160TIP3    H130437   6.181   0.931   2.804 -0.1340 -1.1732  0.2669
10160TIP3    H230438   6.269   0.953   2.926 -0.2284 -1.4479  0.3844
10161TIP3   OH230439   7.436   3.812   3.419 -0.3461  0.1826  0.5463
10161TIP3    H130440   7.496   3.755   3.467 -1.1232 -0.1807  1.1243
10161TIP3    H230441   7.461   3.803   3.327  0.0884 -0.4233  0.7216
10162TIP3   OH230442   5.874   1.366   4.331 -0.3507  0.5761  0.5026
10162TIP3    H130443   5.961   1.377   4.292  0.3866  0.2321  1.9582
10162TIP3    H230444   5.827   1.310   4.270 -0.1892  2.2149 -1.2090
10163TIP3   OH230445   6.773   0.585   0.517  0.3450  0.0994  0.0785
10163TIP3    H130446   6.716   0.631   0.578 -0.0949  0.5803 -0.6801
10163TIP3    H230447   6.798   0.651   0.453  2.8385  0.2599  1.1017
10164TIP3   OH230448   7.265   1.633   2.984 -0.1728 -0.2137 -0.0343
10164TIP3    H130449   7.194   1.652   3.045 -1.5290  1.9168 -2.0643
10164TIP3    H230450   7.316   1.715   2.980  2.1596 -1.5132  0.9614
10165TIP3   OH230451   4.664   6.105   4.932  0.7374  0.0495 -0.1135
10165TIP3    H130452   4.682   6.169   5.002 -0.5729 -0.1154  0.4001
10165TIP3    H230453   4.632   6.158   4.859 -1.8853 -0.0889  0.8476
10166TIP3   OH230454   2.499   6.429   2.801 -0.0662  0.7449  0.5102
10166TIP3    H130455   2.515   6.523   2.804 -0.7469  0.8835  0.0680
10166TIP3    H230456   2.516   6.405   2.710  1.5905  0.1536  0.9532
10167TIP3   OH230457   3.159   5.022   1.645  0.0809  0.1844  0.2091
10167TIP3    H130458   3.176   5.055   1.557  0.2239  2.4261  1.0264
10167TIP3    H230459   3.064   5.021   1.653  0.0623 -0.2328 -0.0279
10168TIP3   OH230460   0.562   3.523   2.920  0.5359  0.3974 -0.0578
10168TIP3    H130461   0.598   3.464   2.986  0.7064  0.9317  0.3322
10168TIP3    H230462   0.584   3.482   2.836 -0.2637 -0.6314  0.2092
10169TIP3   OH230463   3.167   4.226   1.878  0.2863  0.0199 -1.2815
10169TIP3    H130464   3.219   4.248   1.955  0.0504 -1.2657 -0.7248
10169TIP3    H230465   3.077   4.217   1.910 -0.0018  0.5195 -1.9127
10170TIP3   OH230466   3.803   3.948   3.826  0.9890 -0.6658  0.0529
10170TIP3    H130467   3.859   3.873   3.804  0.8661 -0.2744 -1.7265
10170TIP3    H230468   3.849   4.024   3.790  0.1257 -0.1355  0.0306
10171TIP3   OH230469   1.976   4.013   3.930 -0.0726  0.4127  0.3086
10171TIP3    H130470   2.017   3.939   3.885  1.8498  0.7815  1.3627
10171TIP3    H230471   1.890   3.981   3.955 -0.9853 -0.0379 -2.9375
10172TIP3   OH230472   4.419   4.056   1.630  0.2867 -0.1308  0.4299
10172TIP3    H130473   4.511   4.044   1.606  0.1643  1.2387 -0.8724
10172TIP3    H230474   4.419   4.135   1.684 -0.4667  2.1357 -2.6144
10173TIP3   OH230475   3.469   6.540   3.047  0.1513 -0.1324 -0.1456
10173TIP3    H130476   3.397   6.476   3.055  0.4028 -0.4727 -0.5404
10173TIP3    H230477   3.428   6.625   3.061 -0.7600 -0.1207 -2.4008
10174TIP3   OH230478   5.350   5.016   5.559 -0.3852  0.4176  0.7170
10174TIP3    H130479   5.367   5.037   5.467  0.0953 -0.0350  0.6983
10174TIP3    H230480   5.254   5.009   5.564 -0.4243  0.5937  0.2842
10175TIP3   OH230481   1.519   6.435   5.482 -0.0044  0.2620 -0.2269
10175TIP3    H130482   1.460   6.378   5.532  0.5689 -0.6708 -0.5888
10175TIP3    H230483   1.549   6.381   5.410  1.4709  0.6472  0.0639
10176TIP3   OH230484   2.920   2.857   5.543  0.1635 -0.5314 -0.4788
10176TIP3    H130485   2.947   2.948   5.533  0.2770 -0.5337 -0.1917
10176TIP3    H230486   2.888   2.832   5.456  1.3562 -0.6187 -0.9188
10177TIP3   OH230487   0.585   7.309   1.184 -0.5702 -0.3255  0.0802
10177TIP3    H130488   0.661   7.310   1.126 -0.1780 -0.4846  0.5788
10177TIP3    H230489   0.541   7.392   1.168  0.0825  0.0640  0.2579
10178TIP3   OH230490   4.655   1.718   5.134  0.1550  0.1074 -0.0205
10178TIP3    H130491   4.584   1.777   5.161 -0.1857 -0.7035  0.9073
10178TIP3    H230492   4.618   1.667   5.062 -0.3056 -0.4807  0.6164
10179TIP3   OH230493   3.326   4.376   2.637  0.0764 -0.4210  0.0186
10179TIP3    H130494   3.256   4.417   2.689  3.4904  1.4596  3.6961
10179TIP3    H230495   3.358   4.447   2.581 -0.1515 -0.9345 -0.7756
10180TIP3   OH230496   4.972   2.374   3.704  0.0409 -0.1034  0.1990
10180TIP3    H130497   4.987   2.298   3.648  1.5226 -0.5171  1.1072
10180TIP3    H230498   4.931   2.439   3.646  1.4997 -0.5150 -1.3848
10181TIP3   OH230499   1.141   2.031   5.862 -0.1401 -0.2391  0.1453
10181TIP3    H130500   1.207   2.029   5.793 -0.0784  0.2785  0.1846
10181TIP3    H230501   1.064   2.069   5.821 -0.6597 -1.5163 -0.1003
10182TIP3   OH230502   6.854   3.536   6.319 -0.1128  0.1489 -0.1430
10182TIP3    H130503   6.846   3.620   6.365 -0.0694  0.4828 -0.7374
10182TIP3    H230504   6.801   3.476   6.371 -1.1373  0.8228 -0.3704
10183TIP3   OH230505   7.813   2.267   1.065 -0.8802 -0.0158  0.4278
10183TIP3    H130506   7.811   2.261   1.161  0.2811  1.0628  0.5444
10183TIP3    H230507   7.889   2.215   1.039 -0.0281  1.2539  0.2734
10184TIP3   OH230508   3.998   6.803   5.582  0.0204  0.1644  0.3118
10184TIP3    H130509   3.997   6.712   5.611  0.6521  0.2303  0.5564
10184TIP3    H230510   3.980   6.799   5.488 -1.3631 -0.1021  0.5661
10185TIP3   OH230511   5.746   5.623   1.653  0.3991  0.1630  0.2331
10185TIP3    H130512   5.774   5.667   1.573 -0.5953 -0.5775 -0.5541
10185TIP3    H230513   5.762   5.530   1.637 -0.3616 -0.0513  0.6532
10186TIP3   OH230514   2.450   5.335   1.179 -0.4849  0.4869 -0.4148
10186TIP3    H130515   2.370   5.348   1.128 -0.1586 -0.1116 -1.0980
10186TIP3    H230516   2.485   5.423   1.191 -1.8739  0.8913  0.9604
10187TIP3   OH230517   7.540   0.277   1.375  0.8038 -0.7362  0.2288
10187TIP3    H130518   7.531   0.371   1.386  1.9226 -0.6719  0.7765
10187TIP3    H230519   7.616   0.267   1.318 -0.0497 -1.2900 -0.8500
10188TIP3   OH230520   0.416   3.238   0.477  0.2834  0.4134  0.1252
10188TIP3    H130521   0.332   3.192   0.470  0.4495  0.1177  0.0674
10188TIP3    H230522   0.478   3.171   0.504  0.6342  0.4913 -0.4892
10189TIP3   OH230523   7.047   2.255   2.849  0.7796  0.0002 -0.0063
10189TIP3    H130524   7.137   2.285   2.860  0.8122 -0.5378  1.4103
10189TIP3    H230525   7.029   2.203   2.928 -1.7075  2.3966  1.1539
10190TIP3   OH230526   2.330   7.052   2.910  0.2264 -0.4234 -0.5038
10190TIP3    H130527   2.323   7.130   2.966 -1.4219 -1.1519  0.3446
10190TIP3    H230528   2.361   7.086   2.826 -0.2347  1.1176 -0.0819
10191TIP3   OH230529   3.402   6.404   1.334 -0.3706 -0.0395 -0.5049
10191TIP3    H130530   3.405   6.341   1.406  0.3184 -0.6295 -1.0266
10191TIP3    H230531   3.411   6.489   1.377  2.4799 -0.4689  0.0059
10192TIP3   OH230532   0.677   0.493   0.723 -0.2983  0.1829 -0.2746
10192TIP3    H130533   0.584   0.506   0.702  0.3504  2.1607 -2.3558
10192TIP3    H230534   0.711   0.582   0.735  1.9111 -0.2650 -2.5051
10193TIP3   OH230535   5.540   1.855   3.012  0.0200 -0.0519  0.0072
10193TIP3    H130536   5.606   1.791   2.983  0.5884  1.0175 -1.1561
10193TIP3    H230537   5.592   1.929   3.045 -0.4857  1.4936 -2.4087
10194TIP3   OH230538   6.835   2.835   6.641  0.1510 -0.3708  0.6810
10194TIP3    H130539   6.834   2.753   6.591  0.9542  0.5016 -0.8480
10194TIP3    H230540   6.902   2.822   6.707  3.0524  0.2970 -1.9208
10195TIP3   OH230541   6.558   5.147   0.713  0.0699  0.4209  0.2102
10195TIP3    H130542   6.497   5.153   0.640 -1.0340  0.5206  1.1210
10195TIP3    H230543   6.511   5.184   0.787  0.6407 -0.9745  1.3066
10196TIP3   OH230544   4.251   6.731   2.457 -0.1812 -0.0359  0.0005
10196TIP3    H130545   4.277   6.640   2.472  1.3433  0.5450  1.1488
10196TIP3    H230546   4.173   6.725   2.403  0.8650 -1.9761 -1.4099
10197TIP3   OH230547   2.557   1.305   2.196  0.0262  0.4840 -0.4819
10197TIP3    H130548   2.651   1.297   2.212 -0.1821 -0.2915  0.4263
10197TIP3    H230549   2.519   1.229   2.240 -0.9828  0.5417 -1.2408
10198TIP3   OH230550   3.878   4.964   1.474 -0.2582 -0.2356 -0.2000
10198TIP3    H130551   3.928   4.887   1.450  3.0873  1.7407 -0.1088
10198TIP3    H230552   3.852   5.004   1.391  0.2622 -0.0872 -0.2895
10199TIP3   OH230553   1.096   4.828   4.371 -0.2571  0.1226  0.2750
10199TIP3    H130554   1.157   4.826   4.297 -0.8446  0.1055 -0.2160
10199TIP3    H230555   1.125   4.903   4.424  0.8693 -0.5470  0.6463
10200TIP3   OH230556   1.832   6.144   2.508  0.2202  0.3676  0.6184
10200TIP3    H130557   1.888   6.175   2.580 -0.2608  1.5960  0.4826
10200TIP3    H230558   1.846   6.050   2.506  1.6896  0.5543  1.0958
10201TIP3   OH230559   3.036   0.475   3.132  0.5535  0.1244 -0.1827
10201TIP3    H130560   3.015   0.527   3.209  1.4184 -0.1674  0.2573
10201TIP3    H230561   2.965   0.410   3.126  0.2343  0.4463  0.0793
10202TIP3   OH230562   7.297   1.398   3.188 -0.3767 -0.4327  0.0550
10202TIP3    H130563   7.339   1.483   3.204 -0.7684 -0.0317 -0.9370
10202TIP3    H230564   7.369   1.340   3.163 -0.3456  0.2053 -1.4656
10203TIP3   OH230565   5.977   1.635   5.662  0.2913 -0.0073  0.0246
10203TIP3    H130566   6.063   1.665   5.691  1.3548 -1.7494 -1.1002
10203TIP3    H230567   5.937   1.712   5.621  2.8242  0.0815 -2.6399
10204TIP3   OH230568   7.588   3.711   4.930  0.4982 -0.8323 -0.0406
10204TIP3    H130569   7.544   3.691   5.012 -1.0253 -0.4637 -0.7213
10204TIP3    H230570   7.661   3.649   4.925  2.0863  0.6284  2.6569
10205TIP3   OH230571   7.663   3.433   2.884 -0.2118  0.3660  0.1399
10205TIP3    H130572   7.754   3.461   2.895 -0.4863  0.3278  3.6109
10205TIP3    H230573   7.666   3.338   2.898 -0.8490  0.4779  1.1133
10206TIP3   OH230574   2.288   0.046   0.484 -0.4901 -0.3201  0.1970
10206TIP3    H130575   2.214   0.056   0.424  0.7437  0.4481 -1.2586
10206TIP3    H230576   2.349  -0.012   0.439  1.0320  1.2719  0.0933
10207TIP3   OH230577   5.360   4.392   1.575  0.4351  0.0307 -0.4792
10207TIP3    H130578   5.453   4.372   1.565 -0.0926 -1.6676 -3.0703
10207TIP3    H230579   5.321   4.310   1.605 -0.3694  0.3591 -0.5919
10208TIP3   OH230580   3.623   2.662   4.592 -0.3241 -0.2970  0.2152
10208TIP3    H130581   3.622   2.699   4.680  0.9403  1.7725 -0.5521
10208TIP3    H230582   3.577   2.727   4.539  0.8416 -0.4123 -0.9881
10209TIP3   OH230583   1.139   6.085   0.089  0.0487 -0.0747 -0.3440
10209TIP3    H130584   1.172   6.130   0.011 -2.5753 -0.4845 -1.8018
10209TIP3    H230585   1.081   6.149   0.131  0.4360 -0.3081  0.5704
10210TIP3   OH230586   1.457   2.207   0.837 -0.3792 -0.1942 -0.2350
10210TIP3    H130587   1.410   2.253   0.907  0.2083  0.4322 -0.2467
10210TIP3    H230588   1.538   2.257   0.825  0.2654 -1.2035 -0.2676
10211TIP3   OH230589   7.158   5.767   4.141 -0.3186 -0.0676 -0.0046
10211TIP3    H130590   7.166   5.861   4.125  1.8077  0.0149  1.1573
10211TIP3    H230591   7.203   5.726   4.066 -0.2172 -0.0988  0.0722
10212TIP3   OH230592   7.097   1.367   6.258 -0.5552 -0.3236 -0.1687
10212TIP3    H130593   7.149   1.291   6.234 -0.7595 -0.6953  0.5281
10212TIP3    H230594   7.007   1.343   6.235 -0.7662 -0.7217  1.0047
10213TIP3   OH230595   0.716   3.463   6.198 -0.4288 -0.0142  0.0009
10213TIP3    H130596   0.794   3.503   6.159  0.6315 -1.3930  0.5848
10213TIP3    H230597   0.707   3.379   6.152 -1.7188  0.2312 -0.2133
10214TIP3   OH230598   5.060   7.327   1.516 -0.3749 -0.0947 -1.0336
10214TIP3    H130599   5.007   7.344   1.594  0.0150 -0.9610 -0.5595
10214TIP3    H230600   5.050   7.233   1.500  1.0236 -0.2939 -0.9069
10215TIP3   OH230601   3.430   7.059   0.762  0.5253  0.5034 -0.2671
10215TIP3    H130602   3.413   6.979   0.713  1.7874  0.5801 -0.8784
10215TIP3    H230603   3.449   7.029   0.851  0.9037  0.1227 -0.4739
10216TIP3   OH230604   6.982   0.218   1.843  0.8310  0.0304  0.1583
10216TIP3    H130605   7.002   0.126   1.824 -1.8958 -0.5127 -0.5238
10216TIP3    H230606   7.023   0.266   1.771 -1.2148 -1.1283 -1.9238
10217TIP3   OH230607   6.270   1.569   5.296  0.2084 -0.1813 -0.5781
10217TIP3    H130608   6.219   1.531   5.225  1.8230 -0.6998 -1.5139
10217TIP3    H230609   6.219   1.551   5.375 -0.9507 -0.8085 -1.4452
10218TIP3   OH230610   0.618   5.578   6.101 -0.6119  0.2007 -0.1227
10218TIP3    H130611   0.591   5.566   6.192  0.4576  0.2260  0.2057
10218TIP3    H230612   0.620   5.673   6.089  1.0603  0.2678  0.4109
10219TIP3   OH230613   3.328   4.958   2.969 -0.3874 -0.2203 -0.0712
10219TIP3    H130614   3.344   5.010   3.048 -0.7294  0.4216 -0.4157
10219TIP3    H230615   3.259   4.897   2.993 -1.3775  0.8166 -0.2314
10220TIP3   OH230616   5.916   3.213   0.853 -0.7387  0.3200 -0.0633
10220TIP3    H130617   5.899   3.188   0.943 -1.2378  0.5268 -0.0943
10220TIP3    H230618   5.907   3.309   0.853 -1.2521  0.2743 -0.4344
10221TIP3   OH230619   3.555   5.719   4.587 -0.0941  0.1186 -0.5896
10221TIP3    H130620   3.535   5.778   4.660  1.2481 -1.1828  0.9037
10221TIP3    H230621   3.473   5.673   4.571 -0.8973  1.6796 -1.1423
10222TIP3   OH230622   0.618   2.938   4.668 -0.0818 -0.2027 -0.5112
10222TIP3    H130623   0.546   2.993   4.698  1.2541 -0.2608  3.2458
10222TIP3    H230624   0.648   2.980   4.587 -2.1816  1.7227 -0.3866
10223TIP3   OH230625   8.046   0.403   3.694  0.1283  0.0506  0.3827
10223TIP3    H130626   8.016   0.480   3.742  1.8627  0.0244  1.5722
10223TIP3    H230627   8.095   0.439   3.620  1.0395  0.1063  1.0042
10224TIP3   OH230628   2.620   5.141   4.942 -0.2602 -0.3386 -0.5379
10224TIP3    H130629   2.646   5.085   5.015  1.1942  0.8798 -0.0477
10224TIP3    H230630   2.554   5.200   4.980  0.7301  0.5095 -0.0557
10225TIP3   OH230631   2.756   4.601   5.384  0.1474 -0.3707  0.2777
10225TIP3    H130632   2.750   4.531   5.451  2.4218 -1.1943 -0.3063
10225TIP3    H230633   2.689   4.577   5.320  0.5222 -1.7612  0.3571
10226TIP3   OH230634   1.832   5.488   1.035  0.2900 -0.9205  0.3832
10226TIP3    H130635   1.757   5.518   1.085  0.0680 -1.1205  0.1716
10226TIP3    H230636   1.900   5.554   1.051 -0.0075 -0.6145  0.3772
10227TIP3   OH230637   7.417   0.573   3.696  0.3070 -0.4412  0.3698
10227TIP3    H130638   7.424   0.590   3.790 -1.1483  1.8555  0.1311
10227TIP3    H230639   7.339   0.620   3.668  0.9016 -0.7447 -2.0692
10228TIP3   OH230640   0.113   3.591   6.660  0.5258  0.3921  0.1831
10228TIP3    H130641   0.186   3.589   6.597  0.4969 -0.0688  0.1626
10228TIP3    H230642   0.097   3.684   6.674  0.4450  0.5012 -0.5964
10229TIP3   OH230643   7.364   3.956   6.262  0.1517  0.2639  0.5547
10229TIP3    H130644   7.324   3.992   6.183 -1.3369 -0.8723  0.7457
10229TIP3    H230645   7.303   3.979   6.332  1.0071  0.4776  1.2445
10230TIP3   OH230646   4.931   3.278   0.975 -0.4946  0.1975  0.0025
10230TIP3    H130647   4.925   3.271   1.070  0.3296  1.7064  0.2071
10230TIP3    H230648   4.842   3.299   0.947 -0.5597  0.6970  0.5603
10231TIP3   OH230649   7.650   6.966   0.474 -0.1494 -0.2507 -0.0275
10231TIP3    H130650   7.744   6.951   0.472 -0.0859  0.1958 -1.3432
10231TIP3    H230651   7.640   7.061   0.487 -0.4203 -0.2945  0.1043
10232TIP3   OH230652   7.667   7.470   1.112 -0.1103  0.0366  0.2852
10232TIP3    H130653   7.702   7.383   1.129  0.1060 -0.7887 -3.5600
10232TIP3    H230654   7.743   7.528   1.115  0.0725 -0.2257  0.8639
10233TIP3   OH230655   3.874   0.161   1.419 -0.1398  0.3914 -0.2743
10233TIP3    H130656   3.912   0.086   1.465 -2.5409 -0.3870  0.6387
10233TIP3    H230657   3.901   0.150   1.328  1.4688 -0.2589  0.2518
10234TIP3   OH230658   6.006   2.025   2.597  0.0423 -0.0154 -0.2559
10234TIP3    H130659   6.049   2.092   2.545  0.8922 -0.1376  0.2707
10234TIP3    H230660   5.984   1.956   2.534 -0.2009  0.4435 -0.6787
10235TIP3   OH230661   7.603   0.781   5.746  0.0376  0.5905  0.0799
10235TIP3    H130662   7.607   0.876   5.761 -2.1127  0.5994  1.0574
10235TIP3    H230663   7.593   0.744   5.834  1.0216 -0.5650 -0.2815
10236TIP3   OH230664   3.467   2.862   5.835  0.4044 -0.0070 -0.4805
10236TIP3    H130665   3.532   2.792   5.820 -0.7054 -0.9194 -1.1683
10236TIP3    H230666   3.461   2.867   5.930  1.0307 -0.3475 -0.4103
10237TIP3   OH230667   0.189   3.433   6.270  0.0388 -0.7314  0.1036
10237TIP3    H130668   0.138   3.487   6.330  0.1371 -1.5228  0.9190
10237TIP3    H230669   0.235   3.496   6.214  0.1409  0.0267  1.0121
10238TIP3   OH230670   0.812   5.808   1.494 -0.2684  0.7158  0.0874
10238TIP3    H130671   0.768   5.756   1.561  0.1083 -3.4608 -2.5063
10238TIP3    H230672   0.747   5.817   1.424  1.0062 -0.2245 -1.2994
10239TIP3   OH230673   4.931   0.287   0.838 -0.1988 -0.0072  0.0462
10239TIP3    H130674   4.851   0.338   0.840 -0.1546  0.0583  0.1570
10239TIP3    H230675   4.935   0.245   0.924  0.5098  0.9499  0.5031
10240TIP3   OH230676   7.861   2.539   4.260  0.2741  0.1767  0.0528
10240TIP3    H130677   7.838   2.630   4.277  0.4697  0.2388 -0.0030
10240TIP3    H230678   7.812   2.489   4.324 -0.1072  0.2952 -0.1430
10241TIP3   OH230679   5.911   4.104   5.513  0.0225  0.1015  0.3188
10241TIP3    H130680   5.868   4.124   5.596 -1.7020 -2.4421  0.1641
10241TIP3    H230681   5.939   4.013   5.522  1.1191  0.2274 -1.3687
10242TIP3   OH230682   7.638   1.613   2.639 -0.0046 -0.5962 -0.1685
10242TIP3    H130683   7.655   1.603   2.545 -1.4658 -3.9086 -0.2282
10242TIP3    H230684   7.545   1.593   2.648  0.0185  0.0839  1.9728
10243TIP3   OH230685   1.423   3.837   4.549 -0.1253  0.2277 -0.2492
10243TIP3    H130686   1.487   3.842   4.478 -0.5851  1.5425 -0.6025
10243TIP3    H230687   1.375   3.757   4.532  0.3851  0.0431 -0.8870
10244TIP3   OH230688   7.431   1.409   2.900  0.0240 -0.3948 -0.1735
10244TIP3    H130689   7.506   1.413   2.959 -0.0496 -1.3229  0.0010
10244TIP3    H230690   7.363   1.461   2.944  0.7901  1.0968 -0.7005
10245TIP3   OH230691   4.400   5.304   3.854  0.0008 -0.3067 -0.1395
10245TIP3    H130692   4.427   5.269   3.770  1.2977 -0.6803  0.4131
10245TIP3    H230693   4.444   5.249   3.919 -1.0685 -0.1026  0.7903
10246TIP3   OH230694   3.308   1.668   5.593 -0.2021 -0.4121  0.2930
10246TIP3    H130695   3.382   1.652   5.652  0.3476  0.0439 -0.2632
10246TIP3    H230696   3.237   1.696   5.650  0.0275 -0.9177  0.8402
10247TIP3   OH230697   7.258   2.945   2.303  0.4820 -0.1309 -0.6880
10247TIP3    H130698   7.339   2.994   2.313 -0.8295  2.1752 -0.6293
10247TIP3    H230699   7.217   2.981   2.224 -0.9245 -0.5795 -0.1981
10248TIP3   OH230700   2.533   3.042   4.592 -0.4516  0.1863  0.1049
10248TIP3    H130701   2.527   2.947   4.592 -0.1787  0.1690 -0.1453
10248TIP3    H230702   2.625   3.061   4.573 -0.5292  0.5000  0.0251
10249TIP3   OH230703   1.361   1.075   5.907  0.1817  0.3107  0.1905
10249TIP3    H130704   1.449   1.104   5.930  1.4046 -0.2584 -3.1528
10249TIP3    H230705   1.373   0.986   5.874 -1.4256  0.5878 -1.2741
10250TIP3   OH230706   2.909   7.072   2.449  0.0891 -0.0553  0.2310
10250TIP3    H130707   2.985   7.057   2.505  0.5202  1.7864  0.1818
10250TIP3    H230708   2.941   7.057   2.360 -0.2235 -1.5222  0.3340
10251TIP3   OH230709   1.809   5.103   6.209  0.3089  0.0162 -0.2573
10251TIP3    H130710   1.786   5.196   6.204 -0.5019 -0.1309  0.3602
10251TIP3    H230711   1.890   5.101   6.260 -0.3570  0.3228  0.8721
10252TIP3   OH230712   2.155   2.704   1.564 -0.3189  0.3741 -0.0226
10252TIP3    H130713   2.177   2.702   1.657  1.9758  2.1165 -0.4241
10252TIP3    H230714   2.062   2.681   1.560 -0.2220 -0.7843  2.5723
10253TIP3   OH230715   0.660   0.694   2.971 -0.6849 -0.7232 -0.1565
10253TIP3    H130716   0.584   0.707   2.914 -0.4331 -0.8185 -0.5224
10253TIP3    H230717   0.700   0.781   2.978 -0.3584 -0.8263 -0.6484
10254TIP3   OH230718   3.017   3.905   6.634 -0.0526  0.3387  0.1998
10254TIP3    H130719   3.040   3.892   6.726  0.4828 -2.3624 -0.2307
10254TIP3    H230720   2.933   3.951   6.637 -0.1526  0.1267  2.0646
10255TIP3   OH230721   0.915   5.993   3.175  0.2156  0.5341 -0.6439
10255TIP3    H130722   0.847   6.059   3.190  0.2620  0.2594  1.0030
10255TIP3    H230723   0.997   6.041   3.187  0.2486 -0.0090  1.8178
10256TIP3   OH230724   6.708   0.733   5.453  0.7262 -0.4302 -0.0997
10256TIP3    H130725   6.739   0.796   5.519 -0.7826  0.7306 -0.4375
10256TIP3    H230726   6.637   0.686   5.497  0.6258 -0.6073 -0.4539
10257TIP3   OH230727   7.099   4.964   3.797 -0.2494  0.3625 -0.6049
10257TIP3    H130728   7.067   4.898   3.736 -1.6304 -1.2805  1.6927
10257TIP3    H230729   7.022   5.018   3.816  0.5151  1.7785 -1.3411
10258TIP3   OH230730   4.297   0.141   3.947  0.5689  0.0121  0.0174
10258TIP3    H130731   4.299   0.161   3.854  0.2657  1.5472  0.3192
10258TIP3    H230732   4.287   0.225   3.990  1.2571 -0.6022  1.4747
10259TIP3   OH230733   1.791   6.523   3.578 -0.5908  0.0963 -0.7108
10259TIP3    H130734   1.807   6.611   3.612 -0.4466 -0.2410  0.1096
10259TIP3    H230735   1.803   6.465   3.653 -0.3593 -0.6607 -1.3130
10260TIP3   OH230736   4.905   5.070   2.341  0.1535 -0.0205 -0.1389
10260TIP3    H130737   4.944   4.985   2.320  0.5529 -0.1363  0.9721
10260TIP3    H230738   4.981   5.127   2.357  0.0849 -0.8461  4.4857
10261TIP3   OH230739   5.218   4.653   1.477  0.0893 -0.1150  1.2543
10261TIP3    H130740   5.251   4.728   1.527  0.6046  0.2256  0.4280
10261TIP3    H230741   5.273   4.580   1.506 -0.0011 -0.0453  1.6093
10262TIP3   OH230742   4.346   6.234   2.974 -0.4998 -0.1945  0.3680
10262TIP3    H130743   4.259   6.206   3.002 -1.0802  0.7424 -0.4285
10262TIP3    H230744   4.406   6.191   3.036 -1.5594 -0.2232  1.4157
10263TIP3   OH230745   7.965   6.992   6.532 -0.2230 -0.5020 -0.7089
10263TIP3    H130746   7.889   6.978   6.476 -1.4916  2.2234  0.1357
10263TIP3    H230747   7.929   7.020   6.616  1.6870 -0.0071  0.0052
10264TIP3   OH230748   6.204   1.570   2.390  0.9234 -0.3431  0.1728
10264TIP3    H130749   6.205   1.664   2.371  0.8716 -0.3494  0.1390
10264TIP3    H230750   6.154   1.531   2.318  0.2234 -0.2958  0.6143
10265TIP3   OH230751   0.962   7.732   1.324  0.4753  1.1569  0.1555
10265TIP3    H130752   0.910   7.652   1.319  1.2031  0.5911  1.1923
10265TIP3    H230753   1.053   7.702   1.330  0.7716  2.0544  0.4381
10266TIP3   OH230754   7.268   3.624   4.514  0.4520  0.1169  0.2517
10266TIP3    H130755   7.332   3.599   4.581 -0.3009  0.1918  1.0184
10266TIP3    H230756   7.307   3.702   4.472  0.7128  0.3604  0.9311
10267TIP3   OH230757   4.846   4.758   0.713 -0.0573  0.1438 -0.1780
10267TIP3    H130758   4.874   4.680   0.665 -0.6605  1.0376 -2.0860
10267TIP3    H230759   4.861   4.830   0.652 -1.1855  1.3092  0.8601
10268TIP3   OH230760   4.150   7.315   0.808  0.7675  0.1562 -0.2671
10268TIP3    H130761   4.108   7.384   0.861  1.5566  0.2848  0.2035
10268TIP3    H230762   4.076   7.265   0.773  0.1907 -0.6045  1.8487
10269TIP3   OH230763   1.836   4.862   1.861 -0.0340  0.7465  0.4361
10269TIP3    H130764   1.817   4.769   1.877  0.3400  0.7704  1.0602
10269TIP3    H230765   1.750   4.904   1.863 -0.5161  0.0911 -2.3601
10270TIP3   OH230766   3.213   5.816   6.438  0.0603 -0.5009 -0.6021
10270TIP3    H130767   3.226   5.745   6.501  0.6434  2.3978  2.8534
10270TIP3    H230768   3.301   5.833   6.403  0.1398 -0.6420 -0.4702
10271TIP3   OH230769   0.229   2.284   2.920 -0.1423 -0.1904 -0.2182
10271TIP3    H130770   0.308   2.248   2.881  0.0920  0.3691 -0.2660
10271TIP3    H230771   0.182   2.325   2.847  0.4028  1.0492  0.1015
10272TIP3   OH230772   6.870   3.859   2.598 -0.1478  0.5465  0.1936
10272TIP3    H130773   6.917   3.934   2.634  0.3151  0.5673 -0.4305
10272TIP3    H230774   6.824   3.894   2.522  2.6998 -0.3952 -2.1393
10273TIP3   OH230775   1.090   3.788   6.730  0.1247 -0.5545  0.2992
10273TIP3    H130776   1.117   3.699   6.753  0.5268 -0.6067 -0.3399
10273TIP3    H230777   1.003   3.798   6.768 -0.2897 -1.5311 -0.3482
10274TIP3   OH230778   2.944   5.103   2.893 -0.1388 -0.3921  0.3550
10274TIP3    H130779   2.857   5.107   2.853  0.0383  0.5982  0.0499
10274TIP3    H230780   2.971   5.194   2.901  1.4773 -0.7127 -0.8940
10275TIP3   OH230781   4.087   3.479   0.869 -0.3942 -0.0712  0.1547
10275TIP3    H130782   4.046   3.425   0.937 -1.1940 -0.4387 -0.6051
10275TIP3    H230783   4.047   3.450   0.787  1.7525 -0.7849 -0.7085
10276TIP3   OH230784   5.760   5.850   2.778  0.4780 -0.2231  0.8182
10276TIP3    H130785   5.799   5.934   2.754  2.9444 -1.2692  0.9507
10276TIP3    H230786   5.713   5.868   2.860  0.5648  1.1208  0.5917
10277TIP3   OH230787   0.858   0.067   1.529 -0.6601  0.8812  0.0177
10277TIP3    H130788   0.878   0.152   1.490  0.2824  0.1923 -1.0491
10277TIP3    H230789   0.932   0.049   1.587 -0.8526  0.7852  0.2338
10278TIP3   OH230790   5.417   4.731   5.622 -0.3334 -0.2528 -0.2387
10278TIP3    H130791   5.510   4.709   5.624 -0.5546 -1.2085  0.5864
10278TIP3    H230792   5.413   4.825   5.635  0.4760 -0.3718  0.9547
10279TIP3   OH230793   5.810   0.908   2.903  0.0250  0.4757 -0.3888
10279TIP3    H130794   5.878   0.967   2.935  0.4253  0.1375 -0.6020
10279TIP3    H230795   5.771   0.871   2.983  1.7259 -1.1682 -0.2527
10280TIP3   OH230796   2.711   7.574   2.221  0.5378 -0.3402 -0.2919
10280TIP3    H130797   2.706   7.599   2.313  1.5179 -1.9892  0.2520
10280TIP3    H230798   2.804   7.579   2.200  0.5306 -1.5681 -0.7013
10281TIP3   OH230799   1.734   3.768   4.076 -0.4181  0.6264 -0.2601
10281TIP3    H130800   1.642   3.792   4.064 -1.3858 -1.4929  2.0384
10281TIP3    H230801   1.759   3.727   3.993 -1.3642  1.6353 -1.0871
10282TIP3   OH230802   6.063   1.332   2.569  0.3993  0.2401 -0.3006
10282TIP3    H130803   6.071   1.427   2.555  0.5205  0.3541  0.5230
10282TIP3    H230804   6.151   1.303   2.591  0.2218  0.0604  0.1868
10283TIP3   OH230805   2.221   1.329   5.878 -0.0566 -0.4006 -0.5169
10283TIP3    H130806   2.268   1.325   5.962 -0.5900 -2.3615 -0.2715
10283TIP3    H230807   2.224   1.422   5.854 -2.1987  0.8157  3.0348
10284TIP3   OH230808   3.941   4.063   1.403 -0.4908  0.3081  0.5367
10284TIP3    H130809   4.030   4.031   1.386  0.3482  1.0461  3.1215
10284TIP3    H230810   3.909   4.007   1.474 -1.1230  1.6121  1.3183
10285TIP3   OH230811   5.710   3.413   3.231  0.3985 -0.0707 -0.2077
10285TIP3    H130812   5.681   3.325   3.207 -0.0172  0.2191 -0.7639
10285TIP3    H230813   5.682   3.469   3.159  2.7812  0.1639 -1.0599
10286TIP3   OH230814   7.462   6.260   6.248 -0.1042  0.3479 -0.4501
10286TIP3    H130815   7.451   6.327   6.315 -0.7296  0.2254 -0.4232
10286TIP3    H230816   7.555   6.239   6.250  0.2581  1.7574 -0.9739
10287TIP3   OH230817   2.929   0.425   0.404 -0.9621 -0.0634  0.1683
10287TIP3    H130818   2.848   0.395   0.361 -0.5873  1.1224 -1.4914
10287TIP3    H230819   2.899   0.489   0.469 -1.3642  0.7978 -0.8299
10288TIP3   OH230820   7.746   1.806   3.299  0.1662 -0.2597  0.1319
10288TIP3    H130821   7.691   1.773   3.228  0.5545  0.3385 -0.4600
10288TIP3    H230822   7.831   1.763   3.285  0.6445  0.8519 -0.5836
10289TIP3   OH230823   2.795   5.951   2.274  0.4926 -0.4481  0.6082
10289TIP3    H130824   2.868   6.012   2.259 -0.6068  0.9474  0.7262
10289TIP3    H230825   2.783   5.951   2.369 -0.9485  0.9380  0.4610
10290TIP3   OH230826   7.307   6.916   3.190 -0.5063 -0.5894 -0.3315
10290TIP3    H130827   7.230   6.954   3.149  0.0655 -1.5737 -2.4707
10290TIP3    H230828   7.363   6.991   3.211 -1.7965  0.0943  0.8137
10291TIP3   OH230829   0.776   2.152   0.723 -0.6844  0.3328 -0.1847
10291TIP3    H130830   0.693   2.138   0.678 -0.3596  0.6468 -0.9126
10291TIP3    H230831   0.819   2.221   0.672  0.7952 -1.0753 -0.9391
10292TIP3   OH230832   6.599   3.999   0.326  0.0828  0.0339  0.6249
10292TIP3    H130833   6.558   3.915   0.350 -0.4069 -0.2385 -1.0541
10292TIP3    H230834   6.659   3.976   0.255  0.3925  1.0323  0.5568
10293TIP3   OH230835   5.553   1.190   5.779 -0.5522  0.1009  0.2647
10293TIP3    H130836   5.533   1.209   5.871 -2.0104  0.7361 -0.1637
10293TIP3    H230837   5.524   1.099   5.767 -0.7543  0.1583  0.3179
10294TIP3   OH230838   3.529   0.708   1.414 -0.0205 -0.4934 -0.1065
10294TIP3    H130839   3.589   0.737   1.483  0.0497 -0.4782 -0.1732
10294TIP3    H230840   3.574   0.730   1.332 -0.5483  0.4103 -0.1610
10295TIP3   OH230841   7.265   3.714   3.996  0.2807  0.1842 -0.5872
10295TIP3    H130842   7.197   3.692   3.932 -0.7755 -0.0184  0.5751
10295TIP3    H230843   7.256   3.648   4.064  0.9027  0.8304  0.1350
10296TIP3   OH230844   1.801   3.503   2.640  0.4721 -0.1742  0.0973
10296TIP3    H130845   1.814   3.505   2.734  1.6325  0.4066 -0.0684
10296TIP3    H230846   1.876   3.550   2.603  0.3945 -0.9674 -1.1482
10297TIP3   OH230847   2.914   1.718   6.642 -0.3673 -0.2369 -0.2934
10297TIP3    H130848   2.909   1.623   6.633  0.4294 -0.0979 -3.2847
10297TIP3    H230849   3.008   1.738   6.638 -0.6120  0.7716 -1.5567
10298TIP3   OH230850   4.251   0.628   2.334 -0.0414  0.6311 -0.9895
10298TIP3    H130851   4.247   0.722   2.348  2.5874  0.8232 -0.9854
10298TIP3    H230852   4.287   0.618   2.246 -0.2945 -0.3622 -0.9966
10299TIP3   OH230853   0.831   6.903   2.304  0.4031 -0.4285 -0.6813
10299TIP3    H130854   0.743   6.884   2.334  0.0006  2.1009  0.0014
10299TIP3    H230855   0.886   6.897   2.382  0.4922 -0.1803 -0.7213
10300TIP3   OH230856   6.129   6.729   6.336 -0.3013 -0.5775 -0.3803
10300TIP3    H130857   6.079   6.774   6.404 -1.6402 -1.0209 -1.0407
10300TIP3    H230858   6.196   6.792   6.310 -0.6238  0.1056  0.3986
10301TIP3   OH230859   4.043   5.308   0.136  0.0532 -0.3016 -0.3912
10301TIP3    H130860   4.033   5.385   0.080 -1.3473  0.6487  1.1014
10301TIP3    H230861   3.981   5.245   0.101 -2.2593  0.9915  1.1640
10302TIP3   OH230862   3.559   5.805   2.598  0.1706  0.2865  0.3642
10302TIP3    H130863   3.561   5.844   2.510  1.1568 -0.8041 -0.1260
10302TIP3    H230864   3.642   5.832   2.638 -0.6668  1.5458  1.3455
10303TIP3   OH230865   1.866   1.774   3.488 -0.0737  0.0730  0.3226
10303TIP3    H130866   1.886   1.694   3.439  3.1401  0.7733  0.2888
10303TIP3    H230867   1.926   1.772   3.563 -1.3591  1.5041  1.4587
10304TIP3   OH230868   5.911   5.607   2.384  0.1181  0.1361  0.0634
10304TIP3    H130869   5.993   5.570   2.352 -0.8082 -1.0768 -1.0402
10304TIP3    H230870   5.929   5.700   2.394  1.0863  0.2476 -2.0821
10305TIP3   OH230871   0.188   4.364   2.525 -0.3484 -0.1916  0.4488
10305TIP3    H130872   0.126   4.313   2.578 -0.5978 -1.7027 -1.2029
10305TIP3    H230873   0.247   4.298   2.488  0.3760  0.9174 -0.4188
10306TIP3   OH230874   0.511   5.259   6.365  0.2331  0.0656  0.0353
10306TIP3    H130875   0.589   5.206   6.349  0.2483 -0.3977  1.4387
10306TIP3    H230876   0.503   5.261   6.461 -1.3895  0.2270 -0.0758
10307TIP3   OH230877   1.681   2.937   0.892 -0.6517 -0.6636  0.5008
10307TIP3    H130878   1.629   2.933   0.811 -1.7579 -1.4230  1.2222
10307TIP3    H230879   1.739   3.012   0.880  0.1895 -1.5663 -1.5691
10308TIP3   OH230880   4.526   2.843   5.013 -0.2571  0.2656  0.0342
10308TIP3    H130881   4.609   2.884   4.987  0.4265 -0.7630  0.5406
10308TIP3    H230882   4.459   2.899   4.975  0.6008  2.5619  1.6881
10309TIP3   OH230883   0.667   3.941   5.618 -0.0261  0.4279  0.5061
10309TIP3    H130884   0.749   3.972   5.656 -0.4022 -0.7642  2.3998
10309TIP3    H230885   0.681   3.847   5.603 -1.2427  0.0532  1.5228
10310TIP3   OH230886   3.323   1.884   1.777 -0.1226  0.3559  0.4304
10310TIP3    H130887   3.400   1.830   1.795 -0.9012 -0.6867  0.7485
10310TIP3    H230888   3.283   1.897   1.863 -1.0496 -0.3059  0.1152
10311TIP3   OH230889   5.333   0.311   6.506  0.5779  0.8350  0.2342
10311TIP3    H130890   5.338   0.252   6.582  1.6756  2.7775  1.7718
10311TIP3    H230891   5.243   0.344   6.506  0.9041  1.7878  1.5099
10312TIP3   OH230892   1.870   2.149   1.736  0.5316  0.4367 -0.3677
10312TIP3    H130893   1.935   2.125   1.670  0.3460 -0.3294 -0.2799
10312TIP3    H230894   1.839   2.065   1.771 -0.5887  0.7790 -0.4990
10313TIP3   OH230895   7.458   2.693   3.350  0.2959  0.0788  0.0179
10313TIP3    H130896   7.529   2.752   3.375 -0.5516  0.7425  0.9466
10313TIP3    H230897   7.394   2.702   3.421 -0.3009 -1.2001 -0.3372
10314TIP3   OH230898   3.145   5.808   2.661  0.1321  0.3310  0.2345
10314TIP3    H130899   3.177   5.729   2.703 -1.1550  0.2235  1.0526
10314TIP3    H230900   3.064   5.782   2.618  0.8335  0.7042 -1.3851
10315TIP3   OH230901   0.288   1.342   4.868  0.1403 -0.6011 -0.4104
10315TIP3    H130902   0.267   1.301   4.952 -0.1678  1.0276  0.3384
10315TIP3    H230903   0.260   1.277   4.803 -1.1125 -1.2370  0.7059
10316TIP3   OH230904   3.904   2.878   6.049 -0.3583 -0.1259 -0.2595
10316TIP3    H130905   3.972   2.875   5.982 -1.4413  0.2210 -1.4240
10316TIP3    H230906   3.836   2.934   6.012 -0.8839  0.3007  1.2550
10317TIP3   OH230907   3.203   2.468   2.484 -0.0257  0.2311 -0.1344
10317TIP3    H130908   3.179   2.452   2.576  0.6959  1.0284  0.2103
10317TIP3    H230909   3.299   2.475   2.486 -0.0816  1.3243 -0.7611
10318TIP3   OH230910   1.124   2.184   4.698  0.5202  0.0560 -0.5296
10318TIP3    H130911   1.147   2.277   4.701 -0.1985  0.2413 -0.4731
10318TIP3    H230912   1.037   2.180   4.737  0.7217 -0.7047 -0.1358
10319TIP3   OH230913   4.762   1.461   6.640 -1.1011  0.3783  0.2295
10319TIP3    H130914   4.743   1.368   6.653  0.9125 -0.1204 -0.1514
10319TIP3    H230915   4.713   1.505   6.710 -0.3178 -1.1719  1.8217
10320TIP3   OH230916   5.489   2.812   4.077  0.1256  0.2628  0.4404
10320TIP3    H130917   5.446   2.874   4.017  1.4845 -0.1033 -0.9686
10320TIP3    H230918   5.467   2.726   4.042  1.7939  0.0617 -0.2140
10321TIP3   OH230919   6.269   3.612   5.669 -0.2875  0.1367  0.0292
10321TIP3    H130920   6.287   3.608   5.576 -2.0561 -0.4012 -0.3270
10321TIP3    H230921   6.225   3.696   5.682 -0.9810 -0.2360  0.1705
10322TIP3   OH230922   6.180   6.334   5.112  0.5860 -0.4291 -0.5865
10322TIP3    H130923   6.102   6.297   5.072  0.3612 -1.5782  0.8143
10322TIP3    H230924   6.249   6.321   5.047  0.2990 -2.4848 -0.5371
10323TIP3   OH230925   6.183   2.872   1.163 -0.6709 -0.8735  0.2051
10323TIP3    H130926   6.222   2.892   1.077 -1.2962 -0.5963 -0.0195
10323TIP3    H230927   6.249   2.901   1.226 -0.3061 -0.8526 -0.1795
10324TIP3   OH230928   6.281   6.585   0.423  0.3307 -0.8720  0.4407
10324TIP3    H130929   6.277   6.609   0.331 -1.0694 -4.9641 -0.7808
10324TIP3    H230930   6.222   6.646   0.467  0.4089  0.6462 -1.4322
10325TIP3   OH230931   8.154   4.482   3.911 -0.5966  0.3337  0.0628
10325TIP3    H130932   8.210   4.494   3.834 -1.2035 -0.1400 -0.4680
10325TIP3    H230933   8.198   4.413   3.961 -1.6279 -1.4156 -1.3044
10326TIP3   OH230934   2.977   5.582   1.027 -0.1643 -0.2417  0.1245
10326TIP3    H130935   3.055   5.604   0.977  0.1149 -1.0201  0.1945
10326TIP3    H230936   2.953   5.663   1.071  0.9395 -0.1345  0.5591
10327TIP3   OH230937   3.113   2.376   6.709  0.0934  0.6591 -0.1487
10327TIP3    H130938   3.043   2.339   6.762 -0.2939  1.5608 -0.0153
10327TIP3    H230939   3.068   2.428   6.642  0.6071  0.3222 -0.7688
10328TIP3   OH230940   3.458   2.920   1.148 -0.0282  0.0124  0.3305
10328TIP3    H130941   3.435   2.993   1.205 -1.1713 -0.2751  0.2781
10328TIP3    H230942   3.543   2.943   1.111  0.3248  0.6009  1.4802
10329TIP3   OH230943   3.827   2.637   4.923  0.5276 -0.3086 -0.9373
10329TIP3    H130944   3.882   2.579   4.975  0.9127  0.7892 -0.0754
10329TIP3    H230945   3.834   2.604   4.834  1.5551 -0.9606 -0.6274
10330TIP3   OH230946   0.034   5.286   3.135  0.1437  0.2166 -0.0730
10330TIP3    H130947   0.099   5.251   3.195 -1.6583  0.3589  2.1420
10330TIP3    H230948   0.041   5.381   3.145  1.2862  0.3540 -1.8182
10331TIP3   OH230949   7.228   7.021   2.601  0.5751 -0.0776  0.0744
10331TIP3    H130950   7.172   6.966   2.655  0.0448 -0.2743 -0.6490
10331TIP3    H230951   7.169   7.087   2.565  0.7847 -0.3296 -0.7537
10332TIP3   OH230952   3.398   2.329   3.672 -1.0039  0.4975  0.3004
10332TIP3    H130953   3.360   2.257   3.621  1.8153 -0.3912 -0.7191
10332TIP3    H230954   3.404   2.295   3.761  1.0353 -0.9534 -0.3170
10333TIP3   OH230955   4.213   0.515   2.829  0.4851  0.3594  0.3245
10333TIP3    H130956   4.246   0.529   2.741 -2.1662  1.4956 -0.5852
10333TIP3    H230957   4.250   0.431   2.856  2.4057  0.6133 -1.3080
10334TIP3   OH230958   8.129   6.254   0.568  0.4198 -0.8291  0.4767
10334TIP3    H130959   8.201   6.315   0.577 -1.0931  0.7620  2.8274
10334TIP3    H230960   8.066   6.298   0.511  1.2599 -2.2922 -1.7392
10335TIP3   OH230961   6.135   0.279   4.768  0.5608  0.2375 -0.0591
10335TIP3    H130962   6.170   0.199   4.808  0.1835  0.2685  0.3335
10335TIP3    H230963   6.086   0.322   4.838  2.2679  1.7492  0.2874
10336TIP3   OH230964   4.152   4.562   6.303 -0.1553 -0.0032 -0.6022
10336TIP3    H130965   4.209   4.628   6.344 -0.7435 -0.7878  1.6262
10336TIP3    H230966   4.181   4.479   6.342 -1.3839 -0.6840 -1.1076
10337TIP3   OH230967   0.210   5.599   1.103 -0.2626 -0.0595  0.7794
10337TIP3    H130968   0.262   5.629   1.028 -1.6680  2.1916  0.6193
10337TIP3    H230969   0.274   5.578   1.171  1.0213 -1.6594 -0.8194
10338TIP3   OH230970   4.063   4.732   0.466 -0.4452  0.5406 -0.6377
10338TIP3    H130971   4.117   4.793   0.416 -0.0313  1.1138  0.4878
10338TIP3    H230972   3.975   4.743   0.430 -0.3430  1.6695 -0.5715
10339TIP3   OH230973   7.142   0.771   5.032  0.0791  0.4036  0.5364
10339TIP3    H130974   7.173   0.702   4.973 -0.2548  1.1548 -0.5445
10339TIP3    H230975   7.202   0.768   5.107  1.1589  0.1274 -0.3181
10340TIP3   OH230976   1.210   2.650   4.859  0.0843 -0.4353  0.3501
10340TIP3    H130977   1.176   2.690   4.939 -2.7556 -0.4243 -0.7575
10340TIP3    H230978   1.291   2.698   4.841 -1.4209  2.5584  0.9195
10341TIP3   OH230979   7.900   6.100   2.965 -0.2587 -0.5486  0.2453
10341TIP3    H130980   7.841   6.027   2.984 -0.1236 -0.6859  0.1452
10341TIP3    H230981   7.856   6.150   2.897  0.1061 -1.1047 -0.4124
10342TIP3   OH230982   3.957   1.684   5.554  0.1773 -0.0215 -0.2650
10342TIP3    H130983   4.009   1.756   5.517 -1.9384  1.7677 -0.0022
10342TIP3    H230984   3.886   1.672   5.491 -0.8085 -0.2305  0.8544
10343TIP3   OH230985   4.758   2.648   4.223 -0.2158  0.3877 -0.5059
10343TIP3    H130986   4.793   2.643   4.312 -1.3354  1.6455  0.0425
10343TIP3    H230987   4.690   2.581   4.220  0.8399 -0.7132 -0.9466
10344TIP3   OH230988   2.210   1.042   5.418 -0.4114  0.0928  0.1057
10344TIP3    H130989   2.128   1.076   5.455 -0.3872 -1.2075  1.4360
10344TIP3    H230990   2.265   1.119   5.405 -1.0460  0.7619  1.2522
10345TIP3   OH230991   3.901   6.156   5.856 -0.1826  0.3214 -0.4791
10345TIP3    H130992   3.996   6.157   5.863 -0.2413  1.2516  0.3054
10345TIP3    H230993   3.882   6.085   5.794  1.0698  0.9575 -1.6258
10346TIP3   OH230994   5.190   0.468   4.690  0.6463 -0.0989 -0.3022
10346TIP3    H130995   5.263   0.424   4.734  0.7113  1.0240  0.7869
10346TIP3    H230996   5.137   0.504   4.762 -0.9546 -0.8339 -1.0725
10347TIP3   OH230997   6.046   4.702   4.584 -0.4002 -0.3576  0.1143
10347TIP3    H130998   6.056   4.794   4.559 -0.0874 -0.2670  0.5602
10347TIP3    H230999   6.136   4.669   4.592 -0.4928 -0.4672  0.7829
10348TIP3   OH231000   1.687   7.592   2.122  0.3051 -0.4028  0.5813
10348TIP3    H131001   1.721   7.632   2.203  1.4787  0.6526 -0.3795
10348TIP3    H231002   1.620   7.653   2.092 -0.8982 -1.3350  1.2756
10349TIP3   OH231003   2.604   5.794   5.384 -0.0018 -0.7330 -0.0501
10349TIP3    H131004   2.677   5.824   5.329 -0.0770  2.0184  1.1941
10349TIP3    H231005   2.636   5.712   5.422  2.3714  0.2326  0.2419
10350TIP3   OH231006   0.627   2.736   0.190  0.1644  0.0659  0.1416
10350TIP3    H131007   0.553   2.797   0.198 -1.2538 -1.3823 -1.0983
10350TIP3    H231008   0.667   2.758   0.106  0.6108  0.2660  0.4020
10351TIP3   OH231009   0.611   5.134   3.928 -0.0149 -0.1317  0.3009
10351TIP3    H131010   0.548   5.137   4.001  0.5266 -1.6096  0.8630
10351TIP3    H231011   0.566   5.083   3.861 -0.5051  1.2133 -0.4395
10352TIP3   OH231012   5.448   1.396   3.893  0.1909  0.2515 -0.3001
10352TIP3    H131013   5.500   1.474   3.874  0.4004  0.2824  0.3655
10352TIP3    H231014   5.499   1.323   3.859  1.2734  0.1640  1.3985
10353TIP3   OH231015   0.116   6.301   4.826  0.0722  0.1842  0.1538
10353TIP3    H131016   0.027   6.266   4.836  0.1321  0.0550  0.2436
10353TIP3    H231017   0.121   6.328   4.734 -1.2707  3.5862  0.9408
10354TIP3   OH231018   0.297   1.086   4.327 -0.0717  1.0286 -0.4467
10354TIP3    H131019   0.210   1.076   4.288 -0.0158 -0.7250 -0.2025
10354TIP3    H231020   0.280   1.108   4.418 -0.3606 -1.0811  0.0734
10355TIP3   OH231021   6.644   5.851   4.688 -0.1271  0.1920  0.3617
10355TIP3    H131022   6.604   5.808   4.612  0.6357 -3.1444  1.6668
10355TIP3    H231023   6.738   5.851   4.669  0.0199 -0.1953  1.0692
10356TIP3   OH231024   4.264   0.892   1.567 -0.4505  0.0739  0.1502
10356TIP3    H131025   4.208   0.886   1.644 -1.4560 -0.5379 -0.5996
10356TIP3    H231026   4.281   0.985   1.556 -0.5944  0.1925  0.8988
10357TIP3   OH231027   5.749   7.494   4.510 -0.1273 -0.1000 -0.1951
10357TIP3    H131028   5.807   7.419   4.521  0.6529  0.5058 -0.0972
10357TIP3    H231029   5.691   7.490   4.586  1.4884  0.7593  1.1544
10358TIP3   OH231030   1.970   2.737   5.660 -0.0669 -0.2519  0.4794
10358TIP3    H131031   1.960   2.832   5.658 -1.8735 -0.3720  1.2815
10358TIP3    H231032   2.032   2.721   5.731  0.0684  0.3335  0.4960
10359TIP3   OH231033   1.667   1.702   6.602  0.4775  0.3900  0.3733
10359TIP3    H131034   1.647   1.791   6.571  0.9324  0.9462  1.5944
10359TIP3    H231035   1.643   1.704   6.695 -0.8343 -1.2003  0.1104
10360TIP3   OH231036   2.068   3.548   6.521  0.4099 -0.0372 -0.2149
10360TIP3    H131037   2.029   3.607   6.585  0.6689 -0.0564 -0.0398
10360TIP3    H231038   2.153   3.587   6.500  0.7863 -0.5958  0.2515
10361TIP3   OH231039   8.152   2.949   3.855  0.2918 -0.7111  0.0436
10361TIP3    H131040   8.059   2.971   3.851 -0.1236 -2.4075 -0.6897
10361TIP3    H231041   8.153   2.858   3.884  1.6958 -0.9171 -0.5997
10362TIP3   OH231042   4.359   4.794   5.035 -0.0219  0.1693 -0.0518
10362TIP3    H131043   4.285   4.834   5.079  0.6196  1.8608 -0.4596
10362TIP3    H231044   4.335   4.701   5.028  0.4803 -0.6269  5.1925
10363TIP3   OH231045   6.297   2.486   6.492 -0.3008 -0.6600  0.2554
10363TIP3    H131046   6.222   2.427   6.485 -1.0452  0.4217 -2.0349
10363TIP3    H231047   6.373   2.428   6.497 -1.1303 -1.7812  0.2546
10364TIP3   OH231048   4.982   5.499   0.921  0.3894 -0.1395 -0.1016
10364TIP3    H131049   5.071   5.464   0.929  1.4621  2.5985  1.4867
10364TIP3    H231050   4.927   5.436   0.967  2.1247 -0.1353  2.1907
10365TIP3   OH231051   6.426   4.830   4.162 -0.1634 -0.3155  0.6884
10365TIP3    H131052   6.347   4.787   4.129  0.2121 -0.3166 -0.2119
10365TIP3    H231053   6.490   4.824   4.091 -0.0574  1.6566  0.5408
10366TIP3   OH231054   1.739   4.073   0.345  0.3054 -0.1104  0.1882
10366TIP3    H131055   1.756   4.160   0.309 -1.6648  0.0486 -0.4741
10366TIP3    H231056   1.663   4.085   0.402  0.2279 -1.3420  0.3663
10367TIP3   OH231057   6.152   7.134   6.414 -1.1903 -0.1226  0.9184
10367TIP3    H131058   6.133   7.107   6.325  1.6906  1.6250 -0.3827
10367TIP3    H231059   6.178   7.053   6.459  1.5955 -0.5417 -1.1741
10368TIP3   OH231060   1.000   2.101   3.010  0.3858 -0.0473  0.6230
10368TIP3    H131061   0.905   2.118   3.014  0.5613  0.8147  2.1622
10368TIP3    H231062   1.008   2.017   2.967 -1.0236  0.3612 -0.5169
10369TIP3   OH231063   4.218   3.923   2.213  0.0662  0.3151  0.2803
10369TIP3    H131064   4.133   3.954   2.183  0.1178  1.1502  0.9697
10369TIP3    H231065   4.203   3.831   2.236 -0.1806 -0.0894 -1.3978
10370TIP3   OH231066   4.832   7.107   1.980 -0.6479 -0.2031 -0.1607
10370TIP3    H131067   4.816   7.061   2.062 -1.4497 -0.9978 -0.7420
10370TIP3    H231068   4.859   7.195   2.007 -0.4701 -0.5809  0.9510
10371TIP3   OH231069   5.847   3.949   3.031 -0.2252 -0.0969  0.4113
10371TIP3    H131070   5.826   4.036   2.998  2.8051  0.3270 -0.7953
10371TIP3    H231071   5.811   3.889   2.966  2.1032  0.5700 -1.6678
10372TIP3   OH231072   4.684   6.381   6.060  0.2629 -0.3815  0.2939
10372TIP3    H131073   4.708   6.445   5.994 -1.6707 -1.4383 -1.5289
10372TIP3    H231074   4.744   6.307   6.044  0.3885 -0.2834  0.3121
10373TIP3   OH231075   2.964   6.678   3.670  0.0763 -0.0594 -0.1471
10373TIP3    H131076   3.046   6.706   3.710 -0.2010 -0.0679  0.4505
10373TIP3    H231077   2.905   6.664   3.745 -0.0978 -1.2481 -0.4770
10374TIP3   OH231078   6.722   0.349   4.033  0.0322  0.2982 -0.0928
10374TIP3    H131079   6.666   0.300   3.972  0.6124  0.8439 -1.0917
10374TIP3    H231080   6.804   0.301   4.034  0.3805  0.8700 -0.5681
10375TIP3   OH231081   2.898   5.027   1.569  0.0503  0.0205  0.1546
10375TIP3    H131082   2.887   5.014   1.663  0.6983  0.7465  0.3438
10375TIP3    H231083   2.916   5.121   1.560 -1.6195  0.2873 -0.8532
10376TIP3   OH231084   5.541   4.647   0.917  0.0268 -0.4142  0.0247
10376TIP3    H131085   5.525   4.622   0.826  0.2383 -2.6350  0.5409
10376TIP3    H231086   5.526   4.567   0.967 -2.2453  1.2498  2.2501
10377TIP3   OH231087   1.615   6.105   0.941 -0.1387 -0.3643 -0.0937
10377TIP3    H131088   1.623   6.130   1.033 -0.6255 -2.2884  0.5092
10377TIP3    H231089   1.543   6.159   0.908  1.0999  1.5415  0.1560
10378TIP3   OH231090   7.433   7.301   3.975 -0.0813  0.0807  0.0320
10378TIP3    H131091   7.458   7.218   3.933 -1.6073 -0.7394  0.6702
10378TIP3    H231092   7.375   7.275   4.046 -1.9412  1.7839 -0.7700
10379TIP3   OH231093   4.806   4.678   1.662  0.6090  0.0705 -0.4450
10379TIP3    H131094   4.780   4.723   1.581 -0.0976  1.7513  0.6370
10379TIP3    H231095   4.855   4.602   1.633  0.2494  0.5389 -2.4553
10380TIP3   OH231096   2.006   0.067   4.749 -0.0643 -0.3734 -0.7871
10380TIP3    H131097   1.983  -0.025   4.761  0.6904 -0.6290 -1.1928
10380TIP3    H231098   1.972   0.089   4.662 -0.2940 -0.2527 -0.6670
10381TIP3   OH231099   1.149   7.195   5.811 -0.2578  0.9361 -0.6323
10381TIP3    H131100   1.151   7.250   5.889  0.5280 -2.1378  1.7078
10381TIP3    H231101   1.237   7.201   5.774  0.8090 -0.8754  1.3673
10382TIP3   OH231102   1.145   5.593   4.525 -0.0215 -0.3864 -0.2634
10382TIP3    H131103   1.074   5.603   4.462 -0.4335  1.9777  0.5066
10382TIP3    H231104   1.102   5.591   4.610  0.8005  1.0128  0.2157
10383TIP3   OH231105   6.710   1.926   2.079  0.0851 -0.0405 -0.2721
10383TIP3    H131106   6.767   1.905   2.153 -0.6499  1.0943  0.6679
10383TIP3    H231107   6.662   1.845   2.062 -0.8168  0.0541  1.5351
10384TIP3   OH231108   3.518   4.926   6.679  0.1928 -0.0237  0.1423
10384TIP3    H131109   3.556   4.970   6.755  0.8538 -0.6237  0.1722
10384TIP3    H231110   3.590   4.922   6.616 -0.1699 -0.1018 -0.2650
10385TIP3   OH231111   2.043   7.661   3.506  0.1323 -0.2122  0.1858
10385TIP3    H131112   2.094   7.657   3.425 -0.2338  0.6585 -0.1045
10385TIP3    H231113   2.099   7.710   3.567 -1.4624  3.4991 -1.0651
10386TIP3   OH231114   0.814   4.922   5.993  0.6688  0.3300 -0.3568
10386TIP3    H131115   0.820   4.885   5.905 -1.0051 -0.5708 -0.1215
10386TIP3    H231116   0.779   4.851   6.047  0.5554  1.2344  0.8036
10387TIP3   OH231117   6.103   7.549   1.015 -0.1808 -0.4275 -0.3801
10387TIP3    H131118   6.110   7.455   1.000 -3.2750 -0.8015 -0.2492
10387TIP3    H231119   6.066   7.584   0.934  2.0023  0.9207 -0.8663
10388TIP3   OH231120   0.388   6.820   5.224  0.0452 -0.0022 -0.4288
10388TIP3    H131121   0.369   6.793   5.134 -0.7636  0.1182 -0.3032
10388TIP3    H231122   0.302   6.822   5.267  0.0607  2.4949 -0.3454
10389TIP3   OH231123   3.575   6.495   3.355 -0.1692 -1.1658 -0.1210
10389TIP3    H131124   3.543   6.524   3.270 -0.9751 -1.0733  0.2074
10389TIP3    H231125   3.589   6.401   3.344  0.4612 -1.0260 -0.5722
10390TIP3   OH231126   4.464   0.634   5.664  0.3170  0.5632 -0.1934
10390TIP3    H131127   4.503   0.709   5.619  0.4419  0.4394 -0.2938
10390TIP3    H231128   4.444   0.666   5.751  4.3539 -0.4057  1.3217
10391TIP3   OH231129   2.929   1.276   4.218 -0.0977 -0.3433 -0.0937
10391TIP3    H131130   2.904   1.244   4.132 -0.7118 -0.9931  0.3098
10391TIP3    H231131   3.019   1.308   4.208 -0.6479  0.9130 -1.2982
10392TIP3   OH231132   0.430   4.892   6.639  0.1787 -0.2615 -0.1186
10392TIP3    H131133   0.364   4.960   6.654 -0.7131 -1.1295 -0.0157
10392TIP3    H231134   0.503   4.918   6.696  0.2649  1.1314 -0.8171
10393TIP3   OH231135   6.608   4.142   3.188  0.0854 -0.1559  0.0011
10393TIP3    H131136   6.696   4.106   3.175  0.2337  0.0687  0.3694
10393TIP3    H231137   6.555   4.068   3.217  0.3226 -0.1389  0.4801
10394TIP3   OH231138   6.417   2.028   1.446 -1.2297  0.1386  0.2665
10394TIP3    H131139   6.509   2.027   1.471 -1.0124 -1.2619 -0.4898
10394TIP3    H231140   6.375   2.085   1.511  0.0475  0.2299  1.0394
10395TIP3   OH231141   7.504   4.553   5.390 -0.6021  0.6640 -0.0099
10395TIP3    H131142   7.431   4.519   5.339  0.2542 -0.2936 -0.6255
10395TIP3    H231143   7.576   4.561   5.328  0.4600 -0.5080  1.0066
10396TIP3   OH231144   2.939   1.216   5.375 -0.1707  0.3945  0.0048
10396TIP3    H131145   2.961   1.216   5.282 -0.7730  0.3416 -0.1435
10396TIP3    H231146   2.922   1.124   5.396 -0.3604  0.4446  0.0794
10397TIP3   OH231147   5.950   5.571   5.899 -0.4959  0.0293 -0.3007
10397TIP3    H131148   6.019   5.535   5.954 -1.0711 -1.8766 -0.7350
10397TIP3    H231149   5.936   5.504   5.832 -2.2637  0.6795 -0.6320
10398TIP3   OH231150   4.979   0.760   3.028 -0.0166  0.0553  0.2997
10398TIP3    H131151   5.014   0.672   3.036  1.1619  0.4895  0.1243
10398TIP3    H231152   4.906   0.752   2.966  0.3594 -0.7176 -0.0496
10399TIP3   OH231153   0.663   7.367   5.294  0.6498  0.2547 -0.1268
10399TIP3    H131154   0.750   7.361   5.332  0.4766  0.1191  0.2527
10399TIP3    H231155   0.604   7.336   5.363  0.3912 -0.6768 -0.7584
10400TIP3   OH231156   7.497   2.420   0.182 -0.5096 -0.6190 -0.0043
10400TIP3    H131157   7.471   2.366   0.107 -1.2970  0.3607 -0.4586
10400TIP3    H231158   7.574   2.468   0.152 -1.8850  1.1560 -0.8867
10401TIP3   OH231159   5.041   3.032   0.405 -0.3665 -0.6091 -0.0710
10401TIP3    H131160   4.956   3.059   0.440  0.4106 -0.0053  1.4481
10401TIP3    H231161   5.029   2.940   0.381 -1.7366 -0.2307 -0.8806
10402TIP3   OH231162   5.090   2.821   4.333 -0.3383 -0.2327  0.0754
10402TIP3    H131163   5.134   2.883   4.275 -0.7029 -0.1353 -0.1014
10402TIP3    H231164   5.030   2.875   4.384 -0.0396 -0.3217  0.5266
10403TIP3   OH231165   7.902   7.299   6.315 -0.6217 -0.4156 -0.0438
10403TIP3    H131166   7.900   7.331   6.225  1.4212  2.0325  0.6597
10403TIP3    H231167   7.994   7.279   6.332 -0.9073 -0.5044  1.5786
10404TIP3   OH231168   6.804   2.757   5.519 -0.6033 -0.1699  0.6722
10404TIP3    H131169   6.814   2.845   5.482 -0.4354 -1.0162 -1.4651
10404TIP3    H231170   6.813   2.769   5.613 -0.9705  2.1458  0.4681
10405TIP3   OH231171   1.155   1.538   2.001  0.1167  0.0812 -0.0541
10405TIP3    H131172   1.225   1.540   2.066  0.3217 -1.8827 -0.1564
10405TIP3    H231173   1.113   1.623   2.009  2.4749  1.3231  0.0196
10406TIP3   OH231174   5.227   3.556   1.138 -0.5400 -0.6210 -0.1796
10406TIP3    H131175   5.164   3.518   1.077  1.4509 -0.5400 -2.4625
10406TIP3    H231176   5.302   3.497   1.135 -0.2106 -0.3949  1.9807
10407TIP3   OH231177   4.647   5.639   6.373  0.0410 -0.4781  0.5540
10407TIP3    H131178   4.612   5.669   6.456  0.3289  1.4905  0.0232
10407TIP3    H231179   4.635   5.714   6.314  1.5121 -1.1565 -0.6711
10408TIP3   OH231180   0.782   1.958   2.161  0.0446 -0.0796  0.0400
10408TIP3    H131181   0.837   1.962   2.083  1.6677  0.0299  1.1526
10408TIP3    H231182   0.694   1.942   2.126  0.9431 -1.6379 -1.7358
10409TIP3   OH231183   3.245   0.892   0.066 -0.2272  0.0892 -0.0434
10409TIP3    H131184   3.214   0.813   0.111 -0.8272  0.7209  0.6872
10409TIP3    H231185   3.340   0.891   0.078 -0.2458 -0.4601  0.0747
10410TIP3   OH231186   0.116   4.488   4.291  0.9872 -0.0825 -0.2003
10410TIP3    H131187   0.034   4.442   4.274 -0.4839  3.1741 -2.9768
10410TIP3    H231188   0.111   4.513   4.384 -0.0660 -1.7880  0.2388
10411TIP3   OH231189   2.839   2.517   0.344  0.2117  0.3996 -0.1712
10411TIP3    H131190   2.743   2.511   0.337 -0.0667  1.0425  2.2799
10411TIP3    H231191   2.858   2.610   0.328  0.5429  0.1268 -1.4567
10412TIP3   OH231192   2.238   1.433   6.701  0.4929  0.4900  0.1535
10412TIP3    H131193   2.261   1.510   6.649  1.5424 -0.2294 -0.4740
10412TIP3    H231194   2.188   1.378   6.641  2.2000 -0.6084 -0.3239
10413TIP3   OH231195   6.910   1.731   3.829  0.2964  0.0540  0.0763
10413TIP3    H131196   6.959   1.702   3.906 -0.0144 -3.2502 -0.7943
10413TIP3    H231197   6.831   1.770   3.865  1.2601  0.8454  1.4363
10414TIP3   OH231198   5.385   5.369   3.376  0.0738  0.1945 -0.1518
10414TIP3    H131199   5.458   5.431   3.383 -1.2563  1.7428  0.9319
10414TIP3    H231200   5.320   5.416   3.323 -0.8400 -0.4082  0.4142
10415TIP3   OH231201   4.818   1.060   2.993 -0.1506 -0.0599 -0.7011
10415TIP3    H131202   4.799   1.012   3.074  1.7957 -0.7923 -0.6277
10415TIP3    H231203   4.913   1.075   2.996 -0.0245 -0.1311 -2.8549
10416TIP3   OH231204   5.890   1.940   3.086  0.2292 -0.1804  0.3670
10416TIP3    H131205   5.900   1.847   3.065 -2.0489 -0.3005 -0.4139
10416TIP3    H231206   5.893   1.984   3.001 -1.5266  0.1287  0.4316
10417TIP3   OH231207   4.522   6.067   3.189  0.0614 -0.2349 -0.1535
10417TIP3    H131208   4.442   6.103   3.227 -1.4438 -2.0567 -1.3696
10417TIP3    H231209   4.536   5.984   3.236 -0.1969 -1.1125 -1.5522
10418TIP3   OH231210   2.275   5.563   4.595 -0.1020  0.0014  0.0785
10418TIP3    H131211   2.307   5.653   4.595  1.3153 -0.3820  2.9345
10418TIP3    H231212   2.342   5.515   4.546 -0.8814  0.4495 -1.4871
10419TIP3   OH231213   1.404   3.572   6.362  0.3277  0.3516  0.7485
10419TIP3    H131214   1.478   3.526   6.323  0.1626 -0.4519  1.3572
10419TIP3    H231215   1.414   3.557   6.456 -1.7073 -1.5179  0.7412
10420TIP3   OH231216   0.114   5.050   5.470  0.1023  0.3207  0.6152
10420TIP3    H131217   0.170   5.054   5.548 -0.8468  0.3992  1.3141
10420TIP3    H231218   0.053   5.123   5.481 -0.1248  0.2493 -0.1388
10421TIP3   OH231219   7.082   1.132   0.412  0.2662 -0.6062  0.0453
10421TIP3    H131220   7.117   1.137   0.323 -0.7624 -0.2718 -0.3523
10421TIP3    H231221   7.159   1.129   0.468  0.9265 -0.6594 -0.8492
10422TIP3   OH231222   3.287   2.246   4.553  0.0660  0.2262  0.4612
10422TIP3    H131223   3.238   2.233   4.473  1.8607  1.3682 -0.9168
10422TIP3    H231224   3.255   2.330   4.588  0.5009  0.5995 -0.0277
10423TIP3   OH231225   2.232   5.814   3.582  0.4280  0.1768 -0.0494
10423TIP3    H131226   2.198   5.885   3.527  0.8872  0.2416 -0.2579
10423TIP3    H231227   2.293   5.767   3.525  0.0323 -0.4652  0.0473
10424TIP3   OH231228   6.364   6.536   2.859  0.0689  0.3030 -0.1185
10424TIP3    H131229   6.333   6.504   2.774 -0.7484 -1.5639  0.8300
10424TIP3    H231230   6.386   6.456   2.908  1.0416  1.3605  1.2531
10425TIP3   OH231231   4.229   1.418   1.365  0.6955 -0.0093 -0.4995
10425TIP3    H131232   4.227   1.324   1.383  1.2581 -0.4140 -2.3565
10425TIP3    H231233   4.252   1.424   1.272  0.8581  1.9724 -0.3666
10426TIP3   OH231234   2.473   4.994   0.934 -0.7767 -0.2480  0.0997
10426TIP3    H131235   2.530   5.039   0.872 -0.1081  1.5231  1.9073
10426TIP3    H231236   2.520   4.997   1.017 -2.2371 -1.3401  1.0147
10427TIP3   OH231237   3.984   2.993   4.633  0.2821  0.1785  0.6050
10427TIP3    H131238   3.996   2.899   4.627  0.3830  0.0889  1.9136
10427TIP3    H231239   3.893   3.008   4.605  0.7266 -0.1081 -1.0800
10428TIP3   OH231240   4.260   6.266   0.512 -0.1109  0.1105 -0.0826
10428TIP3    H131241   4.215   6.190   0.549 -0.8840  0.2797 -0.6507
10428TIP3    H231242   4.199   6.339   0.523  0.1896  0.4321 -0.4870
10429TIP3   OH231243   2.926   1.428   3.821 -0.6722 -1.1330  0.0724
10429TIP3    H131244   3.013   1.391   3.835 -0.4934 -0.9336 -0.4742
10429TIP3    H231245   2.912   1.420   3.727  0.1379  1.7908 -0.4146
10430TIP3   OH231246   1.078   0.405   6.342 -0.0240 -0.1310  0.6453
10430TIP3    H131247   1.060   0.447   6.258  3.4203  0.5970  0.1021
10430TIP3    H231248   1.119   0.474   6.395 -0.4745 -1.0550  2.2707
10431TIP3   OH231249   7.693   2.821   6.266  0.1822  0.2708 -0.0340
10431TIP3    H131250   7.598   2.822   6.254  0.2091  1.3206 -0.2268
10431TIP3    H231251   7.729   2.812   6.178  0.2663 -1.3135  0.1322
10432TIP3   OH231252   2.112   3.192   4.086 -0.1519  0.6429 -0.2797
10432TIP3    H131253   2.156   3.225   4.165 -0.1232 -1.0027  0.4499
10432TIP3    H231254   2.019   3.194   4.108 -0.3949  2.7889 -1.2913
10433TIP3   OH231255   7.092   1.496   1.015 -0.3391  0.0736  0.5660
10433TIP3    H131256   7.183   1.521   1.004  0.0479 -0.7608  1.6754
10433TIP3    H231257   7.083   1.414   0.967 -0.9688  0.9764 -0.9549
10434TIP3   OH231258   5.764   5.473   4.637  0.4020  0.5227 -0.3314
10434TIP3    H131259   5.714   5.411   4.583 -0.2171  0.3554  0.4110
10434TIP3    H231260   5.839   5.423   4.667 -0.4856 -0.1338  0.8888
10435TIP3   OH231261   6.934   7.387   6.134  0.2899 -0.3038  0.5862
10435TIP3    H131262   6.902   7.300   6.110  1.7135 -0.8090  0.4245
10435TIP3    H231263   6.969   7.375   6.222  0.9118 -0.0093  0.3811
10436TIP3   OH231264   6.526   4.865   2.407 -0.0485  0.4590 -0.1415
10436TIP3    H131265   6.543   4.901   2.493 -2.2666  0.2894  0.4302
10436TIP3    H231266   6.465   4.927   2.366  0.5452  0.2619 -1.3988
10437TIP3   OH231267   4.364   3.467   6.349  0.4115  0.2777 -0.0974
10437TIP3    H131268   4.303   3.505   6.287  1.0465  1.9596  0.2459
10437TIP3    H231269   4.451   3.492   6.316  0.8244 -0.2441  0.5579
10438TIP3   OH231270   6.838   3.327   0.593 -0.1408 -0.7587  0.0292
10438TIP3    H131271   6.868   3.345   0.682 -0.1128 -0.2945 -0.0733
10438TIP3    H231272   6.750   3.365   0.590  1.3690  3.1576 -1.4182
10439TIP3   OH231273   1.884   6.227   1.443 -0.3689 -0.0517 -0.1800
10439TIP3    H131274   1.832   6.294   1.486 -1.2167 -0.2365 -0.9079
10439TIP3    H231275   1.825   6.152   1.433  0.5165 -0.8720  0.4902
10440TIP3   OH231276   0.346   3.287   3.951  0.3255 -0.0864 -0.9177
10440TIP3    H131277   0.386   3.201   3.967 -1.4801 -0.9101 -0.4876
10440TIP3    H231278   0.257   3.266   3.922 -1.3163  1.5948  2.3086
10441TIP3   OH231279   7.914   5.271   2.302 -0.0980  0.2432  0.4244
10441TIP3    H131280   7.912   5.364   2.325 -1.5343  0.3722 -0.1535
10441TIP3    H231281   7.902   5.226   2.386  0.5113  0.5663  0.6958
10442TIP3   OH231282   2.254   1.892   1.556  0.2387 -0.1159  0.0455
10442TIP3    H131283   2.344   1.924   1.567 -0.0861  1.9145 -2.2917
10442TIP3    H231284   2.244   1.879   1.462 -1.6386 -1.2613  0.3482
10443TIP3   OH231285   4.392   5.827   0.390  0.5555 -0.3556 -0.3946
10443TIP3    H131286   4.328   5.763   0.420  1.3505 -0.5115  1.0846
10443TIP3    H231287   4.366   5.909   0.434 -0.2512  0.2844 -1.9949
10444TIP3   OH231288   0.620   4.280   3.386  0.2811 -0.3210  0.1416
10444TIP3    H131289   0.671   4.328   3.451  1.1781  0.1259 -0.8548
10444TIP3    H231290   0.574   4.213   3.436 -1.5245  1.9272  1.6960
10445TIP3   OH231291   1.756   4.445   2.637  0.4025  0.3760 -0.2431
10445TIP3    H131292   1.803   4.482   2.712 -0.2074  1.1549 -0.2367
10445TIP3    H231293   1.733   4.520   2.584  0.2588 -0.1210 -0.8911
10446TIP3   OH231294   1.278   1.789   4.300  0.1368 -0.1852 -0.2506
10446TIP3    H131295   1.235   1.733   4.366  0.7229  0.9935  1.1882
10446TIP3    H231296   1.237   1.875   4.311  0.8428  0.2370 -0.8633
10447TIP3   OH231297   1.288   6.592   4.520 -0.2605 -0.4591 -0.0436
10447TIP3    H131298   1.378   6.589   4.553 -0.6050 -1.2056  0.8891
10447TIP3    H231299   1.296   6.618   4.428  0.8599  0.0492  0.1866
10448TIP3   OH231300   7.137   1.854   6.421 -0.2930 -0.0604  0.1774
10448TIP3    H131301   7.146   1.763   6.393 -1.7838 -0.5259  1.1168
10448TIP3    H231302   7.175   1.855   6.509 -2.8435 -0.4951  1.3718
10449TIP3   OH231303   4.783   2.948   0.487  0.7123 -0.0411  0.8065
10449TIP3    H131304   4.783   2.953   0.392  0.7998  1.4931  0.8754
10449TIP3    H231305   4.814   2.859   0.506  0.2520 -0.5286 -0.5817
10450TIP3   OH231306   5.512   6.027   5.809  0.0780  0.3795 -0.3952
10450TIP3    H131307   5.581   5.969   5.840 -1.2080 -1.2548 -0.4731
10450TIP3    H231308   5.468   5.977   5.740 -3.4754 -0.1830  2.0562
10451TIP3   OH231309   7.911   0.339   5.128 -0.2638  0.3524  0.0198
10451TIP3    H131310   7.838   0.286   5.096  0.1482  0.6220 -1.4166
10451TIP3    H231311   7.893   0.427   5.095  0.7929  0.3872 -0.4973
10452TIP3   OH231312   1.463   6.481   5.951  0.6161 -0.2419  0.6075
10452TIP3    H131313   1.508   6.542   5.892 -0.8739 -0.3372 -0.6809
10452TIP3    H231314   1.387   6.530   5.982  1.2472 -0.2790  2.3268
10453TIP3   OH231315   6.769   0.428   3.543  0.0600 -0.2335  0.5830
10453TIP3    H131316   6.861   0.446   3.525  0.2096 -0.4728  1.1054
10453TIP3    H231317   6.740   0.504   3.595 -0.2692  0.2662 -0.3114
10454TIP3   OH231318   3.242   2.536   4.359  0.4097  0.2442  0.5506
10454TIP3    H131319   3.241   2.541   4.455 -2.0817  2.4579  0.5287
10454TIP3    H231320   3.154   2.503   4.337  0.3163  1.4358 -0.9849
10455TIP3   OH231321   5.550   3.109   1.025  0.6251 -0.0408 -0.3601
10455TIP3    H131322   5.565   3.118   0.931 -0.3144  0.6736 -0.4560
10455TIP3    H231323   5.597   3.029   1.049  0.2970 -0.6174 -1.5639
10456TIP3   OH231324   6.995   2.669   5.125 -0.4377 -0.5575  0.0254
10456TIP3    H131325   7.052   2.654   5.200  0.9996  2.1004 -0.4269
10456TIP3    H231326   7.051   2.708   5.058 -2.4694  0.9357 -0.9514
10457TIP3   OH231327   4.504   3.822   5.750 -0.0930 -0.5228 -0.3892
10457TIP3    H131328   4.583   3.771   5.770 -0.2448 -1.6225 -2.2818
10457TIP3    H231329   4.513   3.843   5.657 -1.8055 -0.2710 -0.5256
10458TIP3   OH231330   4.779   2.988   3.809  0.0765 -0.3281 -0.7076
10458TIP3    H131331   4.744   3.032   3.732  0.7707 -0.9519 -1.4020
10458TIP3    H231332   4.789   3.057   3.875 -0.3986  0.2339 -1.2173
10459TIP3   OH231333   3.684   1.593   2.996  0.3332 -0.2449  0.4996
10459TIP3    H131334   3.768   1.633   2.974 -0.0830  2.1128  2.7410
10459TIP3    H231335   3.657   1.636   3.077 -2.3963 -1.9255  0.6172
10460TIP3   OH231336   2.875   3.589   5.344  0.5874 -0.1609  0.1433
10460TIP3    H131337   2.901   3.679   5.323 -0.0408  0.0282  0.1490
10460TIP3    H231338   2.845   3.594   5.435  1.2634 -0.5364  0.3957
10461TIP3   OH231339   1.338   1.445   5.289  0.4874  0.0509 -0.0753
10461TIP3    H131340   1.275   1.374   5.278  0.9984 -0.2776 -1.0224
10461TIP3    H231341   1.285   1.524   5.285  0.0881 -0.2282 -0.5105
10462TIP3   OH231342   3.906   1.520   5.111 -0.0086 -0.1852 -0.4886
10462TIP3    H131343   3.888   1.578   5.184 -0.9828 -1.6339  0.4726
10462TIP3    H231344   3.910   1.578   5.035 -2.0130  1.0509  0.2571
10463TIP3   OH231345   5.180   4.620   3.029  0.5067  0.5732  0.2809
10463TIP3    H131346   5.128   4.693   3.061 -1.4575 -1.0535  1.0145
10463TIP3    H231347   5.265   4.631   3.071 -0.7776  0.6304  3.1187
10464TIP3   OH231348   1.933   4.169   3.477 -1.1653 -0.2146 -0.0821
10464TIP3    H131349   1.984   4.219   3.413  0.5219 -1.3648  0.3004
10464TIP3    H231350   1.916   4.085   3.434 -0.2648 -0.8873  0.8376
10465TIP3   OH231351   6.134   3.128   5.558  0.0374  0.1721  0.2720
10465TIP3    H131352   6.110   3.209   5.603  2.5336  1.9416 -1.3199
10465TIP3    H231353   6.063   3.113   5.496  0.5491  2.4993 -0.9857
10466TIP3   OH231354   2.568   0.194   3.234  0.1802  0.2085 -0.4621
10466TIP3    H131355   2.504   0.127   3.208  0.8202 -0.2449 -0.8968
10466TIP3    H231356   2.607   0.160   3.314  0.5648  0.0252 -0.7287
10467TIP3   OH231357   4.753   0.943   0.718  0.1030  0.2210  0.5256
10467TIP3    H131358   4.691   0.875   0.747  1.2533 -1.1319 -0.0659
10467TIP3    H231359   4.698   1.007   0.674 -0.8083 -1.6282 -1.2268
10468TIP3   OH231360   4.166   0.838   6.032  0.8825 -0.2461 -0.6855
10468TIP3    H131361   4.170   0.853   6.127  1.0568  2.1597 -1.0065
10468TIP3    H231362   4.104   0.766   6.022 -0.2081  0.3436  1.1945
10469TIP3   OH231363   4.303   7.517   3.191 -0.2194  0.6151  0.3513
10469TIP3    H131364   4.368   7.563   3.244 -0.7245  0.2835  1.2786
10469TIP3    H231365   4.227   7.508   3.249 -0.6333 -0.1175 -0.2975
10470TIP3   OH231366   4.434   6.116   0.065  0.0466  0.4129  0.0262
10470TIP3    H131367   4.378   6.088   0.137 -1.2195  0.3038 -0.9726
10470TIP3    H231368   4.392   6.195   0.031  0.9481  0.7942 -0.2331
10471TIP3   OH231369   1.341   6.601   1.527  0.5266 -0.4345 -0.0852
10471TIP3    H131370   1.371   6.692   1.518 -2.5076  0.8219  0.9534
10471TIP3    H231371   1.257   6.609   1.572 -0.2355 -3.7578 -0.7018
10472TIP3   OH231372   2.296   7.473   6.414 -0.3470  0.1339  0.2246
10472TIP3    H131373   2.387   7.499   6.430 -0.2194  0.4545 -0.9344
10472TIP3    H231374   2.248   7.555   6.408 -1.1332 -0.0393  2.8644
10473TIP3   OH231375   7.360   5.539   4.590 -0.6430  0.1162 -0.2304
10473TIP3    H131376   7.425   5.609   4.596  1.8010 -2.0594  0.4827
10473TIP3    H231377   7.393   5.481   4.521  0.2582 -2.8801  2.4560
10474TIP3   OH231378   0.706   0.419   4.835 -0.5435  0.9928 -0.2374
10474TIP3    H131379   0.725   0.461   4.752  0.7293  0.4876 -0.2221
10474TIP3    H231380   0.610   0.417   4.840 -0.6728 -0.2265 -2.3301
10475TIP3   OH231381   2.684   3.130   6.367  0.4540 -0.1623  0.3372
10475TIP3    H131382   2.631   3.181   6.427 -0.4085 -1.7096  0.9630
10475TIP3    H231383   2.688   3.042   6.406  0.0512 -1.1704 -1.7244
10476TIP3   OH231384   2.705   1.956   0.877 -0.4097  0.8837 -0.2405
10476TIP3    H131385   2.729   1.911   0.796  0.5806 -0.1495  0.6069
10476TIP3    H231386   2.652   1.893   0.925 -0.4686  1.2597  0.1972
10477TIP3   OH231387   6.004   1.139   3.279 -0.1875  0.3661  0.4826
10477TIP3    H131388   5.996   1.122   3.185  0.3723 -1.1596  0.6835
10477TIP3    H231389   5.962   1.224   3.292  0.8412  1.2097 -1.3450
10478TIP3   OH231390   3.449   2.555   0.975  0.2476 -0.3902 -0.1249
10478TIP3    H131391   3.429   2.520   1.062  0.0886  0.2282  0.0962
10478TIP3    H231392   3.390   2.631   0.966  2.4671  1.5222  0.5689
10479TIP3   OH231393   5.230   5.675   2.480 -0.0573  0.1305 -0.5642
10479TIP3    H131394   5.268   5.756   2.444  0.6412  0.1468  0.1777
10479TIP3    H231395   5.157   5.655   2.421  1.3778 -0.1549 -2.3356
10480TIP3   OH231396   7.339   7.569   2.554  0.2173  0.3509  0.2171
10480TIP3    H131397   7.361   7.477   2.569 -0.9184  0.1956  1.0700
10480TIP3    H231398   7.372   7.588   2.466  0.6649 -0.7987  0.1216
10481TIP3   OH231399   8.172   3.045   0.019  0.3470  0.2321  0.5773
10481TIP3    H131400   8.157   3.088   0.103 -1.2718 -0.0569  0.4593
10481TIP3    H231401   8.167   2.951   0.039 -0.6694  0.1687  0.0634
10482TIP3   OH231402   0.756   7.663   2.078 -0.0807  0.3885  0.1511
10482TIP3    H131403   0.780   7.681   2.169 -2.8712 -0.8712  1.2850
10482TIP3    H231404   0.725   7.572   2.079 -2.1413  0.9881 -1.5627
10483TIP3   OH231405   7.144   0.036   0.147 -0.2386 -0.1729 -0.2009
10483TIP3    H131406   7.109   0.125   0.150  1.0653  0.4703 -1.9285
10483TIP3    H231407   7.124   0.005   0.058 -0.8819 -1.7199  0.4490
10484TIP3   OH231408   6.646   1.890   2.684  0.3389 -0.1071  0.0746
10484TIP3    H131409   6.669   1.826   2.616  1.0087  1.1171 -0.8846
10484TIP3    H231410   6.554   1.909   2.669  0.3735 -0.1634 -0.2107
10485TIP3   OH231411   5.989   0.874   3.878  0.7316  0.3410  0.2239
10485TIP3    H131412   5.939   0.887   3.797 -0.5801 -2.4324  0.4828
10485TIP3    H231413   5.922   0.872   3.947  1.2106 -2.5162  0.7064
10486TIP3   OH231414   6.796   2.237   6.587 -0.1110  0.1889 -0.4251
10486TIP3    H131415   6.829   2.301   6.524 -0.2554  0.4673 -0.2163
10486TIP3    H231416   6.873   2.185   6.611  0.1869  0.8514  0.0794
10487TIP3   OH231417   0.757   6.106   5.670 -0.0825  0.1096  0.1349
10487TIP3    H131418   0.821   6.039   5.698  2.0017  1.5022 -1.0517
10487TIP3    H231419   0.801   6.189   5.686 -2.3216  1.2436  0.8372
10488TIP3   OH231420   7.874   4.155   4.766  0.4713 -0.1153 -0.5206
10488TIP3    H131421   7.969   4.164   4.766  0.8532 -3.0296 -0.9424
10488TIP3    H231422   7.858   4.076   4.818 -1.7242  0.2753 -0.5048
10489TIP3   OH231423   2.627   5.597   2.882  0.0876 -0.3303 -0.2145
10489TIP3    H131424   2.646   5.578   2.790 -3.3437 -3.2316 -0.5774
10489TIP3    H231425   2.568   5.672   2.879 -0.4791 -0.7746 -0.4885
10490TIP3   OH231426   6.401   3.195   0.698  0.3263 -0.2754  0.0884
10490TIP3    H131427   6.351   3.222   0.621  0.5772 -0.0983 -0.0138
10490TIP3    H231428   6.492   3.196   0.669  0.5085  0.6995  0.6459
10491TIP3   OH231429   6.773   5.002   6.353 -0.2184 -0.0918 -0.6676
10491TIP3    H131430   6.746   5.055   6.428 -1.1325 -0.0080 -1.0475
10491TIP3    H231431   6.866   4.986   6.368  0.1390  1.8145 -0.6691
10492TIP3   OH231432   6.764   2.405   6.171  0.0541 -0.0796 -0.5387
10492TIP3    H131433   6.850   2.393   6.130  0.0309  0.1946 -0.6753
10492TIP3    H231434   6.742   2.320   6.207  0.9355  0.1284  0.5572
10493TIP3   OH231435   2.890   7.449   3.707  0.0360  0.0197  0.0699
10493TIP3    H131436   2.886   7.487   3.794  0.6822 -0.2894  0.2424
10493TIP3    H231437   2.868   7.522   3.648 -1.3006  0.0109  0.5191
10494TIP3   OH231438   1.388   6.258   5.670 -0.4629  0.2700  0.0351
10494TIP3    H131439   1.363   6.241   5.760 -0.9247  0.3220 -0.0804
10494TIP3    H231440   1.317   6.220   5.618 -0.4313  0.6507 -0.2907
10495TIP3   OH231441   1.848   1.077   3.321  0.2619  0.0542 -0.1734
10495TIP3    H131442   1.918   1.135   3.292 -0.1654 -0.0662 -1.5373
10495TIP3    H231443   1.893   1.001   3.356  0.8396  1.2388  1.8105
10496TIP3   OH231444   2.495   5.174   1.729 -0.0923  0.6545 -0.0700
10496TIP3    H131445   2.432   5.242   1.755 -0.7750  0.3770 -0.9327
10496TIP3    H231446   2.462   5.095   1.771  0.0972  0.6475  0.0656
10497TIP3   OH231447   6.220   0.675   5.684 -0.2225  0.8260  0.4402
10497TIP3    H131448   6.271   0.756   5.681 -0.5901  1.0398 -0.4569
10497TIP3    H231449   6.135   0.701   5.719 -0.1602  0.7175  0.6771
10498TIP3   OH231450   7.301   1.067   0.600 -0.4687  0.8347  0.4231
10498TIP3    H131451   7.320   1.035   0.688 -0.4601 -2.0842 -0.5393
10498TIP3    H231452   7.387   1.095   0.566  0.5436 -2.5862 -0.2461
10499TIP3   OH231453   8.040   0.792   5.972 -0.4661  0.1207 -0.0560
10499TIP3    H131454   8.057   0.760   5.884 -0.7066 -1.0356  0.2912
10499TIP3    H231455   7.989   0.872   5.960 -0.6334 -0.1113 -0.9629
10500TIP3   OH231456   1.545   2.681  -0.004  0.6331 -0.3030 -0.3644
10500TIP3    H131457   1.600   2.707   0.070  0.1420 -1.6391  0.5044
10500TIP3    H231458   1.596   2.614  -0.049  0.6279 -0.0025 -0.8179
10501TIP3   OH231459   1.192   3.666   0.467  0.0921  0.1695  0.1386
10501TIP3    H131460   1.200   3.745   0.414  2.1799  0.0885  0.2216
10501TIP3    H231461   1.197   3.594   0.404  0.4490  0.0933  0.2511
10502TIP3   OH231462   2.501   6.922   0.091  0.0450  0.1282  0.2710
10502TIP3    H131463   2.567   6.965   0.036  0.9801 -0.3811  0.9545
10502TIP3    H231464   2.509   6.829   0.069  0.3381 -0.0652  1.1491
10503TIP3   OH231465   5.218   3.815   1.961  0.4155  0.5235  0.2112
10503TIP3    H131466   5.207   3.742   2.023  3.0563  0.3783  0.6315
10503TIP3    H231467   5.246   3.889   2.015 -0.7469  1.4539 -0.4100
10504TIP3   OH231468   3.979   1.022   6.618 -0.2105 -0.2646  0.9216
10504TIP3    H131469   3.921   1.070   6.677 -1.5412 -0.1890 -0.3932
10504TIP3    H231470   4.036   1.089   6.581 -0.3446 -0.0868  1.0340
10505TIP3   OH231471   7.116   5.698   0.062  0.3582  0.1976  0.5786
10505TIP3    H131472   7.106   5.774   0.005 -1.5837 -0.4074  0.0382
10505TIP3    H231473   7.209   5.698   0.086  0.5369  2.3511  0.0834
10506TIP3   OH231474   2.188   3.348   4.307 -0.0344  0.1914 -0.4622
10506TIP3    H131475   2.114   3.298   4.342  0.4737 -0.7922 -0.7718
10506TIP3    H231476   2.264   3.315   4.355  0.4401 -0.0045 -1.3441
10507TIP3   OH231477   0.441   7.694   5.657 -0.3785 -0.4770 -0.3038
10507TIP3    H131478   0.517   7.751   5.651 -1.0690  0.4207 -0.8370
10507TIP3    H231479   0.474   7.606   5.639  0.8780 -0.4065  1.4651
10508TIP3   OH231480   8.008   0.403   1.918  0.0217  0.4642  0.2131
10508TIP3    H131481   8.057   0.468   1.867 -0.2572  1.2650  0.9577
10508TIP3    H231482   8.075   0.361   1.972  0.2263  0.0075 -0.3771
10509TIP3   OH231483   6.742   4.786   4.144 -0.9694 -0.2693 -0.3603
10509TIP3    H131484   6.780   4.869   4.170  0.9436 -0.7862 -1.3163
10509TIP3    H231485   6.689   4.806   4.067 -0.7673  0.1168 -0.3993
10510TIP3   OH231486   2.926   4.982   1.829  0.3900  0.4886 -0.0114
10510TIP3    H131487   3.014   4.953   1.852 -0.3375  0.4786  3.2672
10510TIP3    H231488   2.871   4.952   1.901 -2.1708  1.3037 -1.4905
10511TIP3   OH231489   6.532   2.880   5.645 -0.0954  0.6272  0.3375
10511TIP3    H131490   6.444   2.844   5.633 -0.1494  1.0558 -0.6528
10511TIP3    H231491   6.553   2.921   5.561  0.6093  1.4853  0.9116
10512TIP3   OH231492   0.372   3.736   4.760 -0.4415  0.3440 -0.9645
10512TIP3    H131493   0.323   3.769   4.685 -1.9578 -1.9057 -1.0697
10512TIP3    H231494   0.433   3.672   4.723 -0.8677 -0.4326 -0.3732
10513TIP3   OH231495   6.720   5.400   5.632 -0.8041  0.0486  0.9081
10513TIP3    H131496   6.704   5.494   5.626  0.6754  0.2833  0.1922
10513TIP3    H231497   6.752   5.386   5.721 -1.3178  0.1546  1.1148
10514TIP3   OH231498   1.894   2.562   4.780 -0.3796 -0.0843  0.3287
10514TIP3    H131499   1.946   2.482   4.769  1.4404  0.9207  1.1162
10514TIP3    H231500   1.846   2.571   4.698  0.5806 -1.1828 -0.3866
10515TIP3   OH231501   7.219   5.219   4.130  0.0663  0.3345 -0.1570
10515TIP3    H131502   7.290   5.162   4.098 -1.0729 -1.1019 -0.2190
10515TIP3    H231503   7.200   5.186   4.218  0.1186  1.3610  0.2549
10516TIP3   OH231504   4.475   6.721   4.474 -1.1081  0.0514 -0.3105
10516TIP3    H131505   4.492   6.626   4.477  2.1504  0.4896 -0.8178
10516TIP3    H231506   4.507   6.753   4.558  1.5108  1.0568 -1.5645
10517TIP3   OH231507   6.639   4.116   4.325 -0.1106 -0.2725  0.4206
10517TIP3    H131508   6.629   4.026   4.294  3.4371 -0.3801 -0.8199
10517TIP3    H231509   6.646   4.168   4.244  0.3127  0.7747  1.1167
10518TIP3   OH231510   1.002   4.273   1.952 -0.9449  0.6555  0.0721
10518TIP3    H131511   0.913   4.300   1.932 -1.3727  0.3319  1.4700
10518TIP3    H231512   1.057   4.327   1.894 -2.0066  1.2565 -0.3976
10519TIP3   OH231513   3.159   3.496   5.421  0.1133  0.0208 -0.1428
10519TIP3    H131514   3.214   3.572   5.441  1.3678 -0.8645 -0.1167
10519TIP3    H231515   3.111   3.521   5.341  0.5904  0.7863 -0.1988
10520TIP3   OH231516   1.641   3.151   6.420 -0.5824 -0.2498 -0.7951
10520TIP3    H131517   1.559   3.142   6.370 -1.7890  1.6516  0.6749
10520TIP3    H231518   1.624   3.224   6.480  1.3496 -1.3779  1.2709
10521TIP3   OH231519   6.189   5.253   5.565  0.1759  0.1997  0.3078
10521TIP3    H131520   6.158   5.344   5.574  0.1907  0.1186  1.3718
10521TIP3    H231521   6.280   5.262   5.538 -0.1168  0.4723 -0.6464
10522TIP3   OH231522   7.204   2.320   5.908  0.1565  0.4552  0.4469
10522TIP3    H131523   7.299   2.325   5.920  0.2733  1.1564 -0.6788
10522TIP3    H231524   7.190   2.340   5.816 -1.0103 -0.8037  0.3183
10523TIP3   OH231525   4.439   1.536   2.735 -0.3365  0.6314 -0.2987
10523TIP3    H131526   4.478   1.608   2.686 -1.5115  0.9989 -0.7220
10523TIP3    H231527   4.348   1.563   2.750 -0.0015  0.5842  2.2121
10524TIP3   OH231528   3.536   6.996   3.533 -0.0114 -0.2661 -0.3486
10524TIP3    H131529   3.587   7.062   3.487 -0.3512 -0.6978 -1.3597
10524TIP3    H231530   3.482   6.955   3.466 -0.0528 -1.3483  0.3200
10525TIP3   OH231531   0.264   1.821   1.678 -0.5072  0.0792  0.4436
10525TIP3    H131532   0.253   1.814   1.773  0.1828 -1.5656  0.4436
10525TIP3    H231533   0.176   1.808   1.643 -0.3309 -2.5489  0.7840
10526TIP3   OH231534   5.740   6.090   0.111 -0.0592 -0.2909  0.4378
10526TIP3    H131535   5.730   6.050   0.198 -1.6067 -2.3281 -0.5924
10526TIP3    H231536   5.735   6.016   0.050  0.4537  1.1434 -1.4344
10527TIP3   OH231537   5.279   7.748   5.912  0.3314  0.1140  0.6532
10527TIP3    H131538   5.316   7.671   5.869  1.0026  0.0060  1.4007
10527TIP3    H231539   5.236   7.714   5.990 -2.8639  0.0072 -0.9510
10528TIP3   OH231540   4.172   7.130   2.027 -0.2340  0.4513  0.4523
10528TIP3    H131541   4.215   7.209   2.059  1.5961  0.5010 -1.8832
10528TIP3    H231542   4.148   7.082   2.107  2.2483  1.4767  1.9312
10529TIP3   OH231543   5.635   1.318   4.171 -0.2555 -0.1575  0.4949
10529TIP3    H131544   5.608   1.228   4.192  1.4702 -1.0645 -0.9411
10529TIP3    H231545   5.652   1.317   4.077 -2.1461  2.2569  0.0300
10530TIP3   OH231546   4.307   4.792   0.673  0.0514  0.0863  0.7857
10530TIP3    H131547   4.393   4.779   0.633 -0.2562 -2.9045  0.9178
10530TIP3    H231548   4.245   4.762   0.606 -0.7856  0.2540  1.4707
10531TIP3   OH231549   7.274   3.548   1.157  0.3962 -0.4201  0.0395
10531TIP3    H131550   7.226   3.473   1.191  2.1545 -1.5957  0.0789
10531TIP3    H231551   7.240   3.623   1.205 -2.3027 -0.9561 -0.8880
10532TIP3   OH231552   6.242   0.950   5.673 -0.1451 -1.1980 -0.3224
10532TIP3    H131553   6.192   0.920   5.597 -0.6383  0.0797 -0.5205
10532TIP3    H231554   6.176   0.972   5.738  0.2772 -2.5045  0.6068
10533TIP3   OH231555   2.709   3.823   4.664  0.3271 -0.4182  0.3169
10533TIP3    H131556   2.789   3.862   4.700  0.3109  0.4775 -0.5905
10533TIP3    H231557   2.653   3.897   4.643 -1.1396 -1.0663  1.7570
10534TIP3   OH231558   4.081   5.895   5.212  0.0254 -0.2316 -0.2353
10534TIP3    H131559   4.122   5.971   5.173  0.5041  0.6150  1.8215
10534TIP3    H231560   4.144   5.862   5.276 -1.1361 -0.8898  0.6340
10535TIP3   OH231561   3.201   0.437   4.949 -0.1516 -0.1314 -0.4879
10535TIP3    H131562   3.134   0.468   5.009  0.8465  0.8307  0.1751
10535TIP3    H231563   3.202   0.342   4.961  1.4864  0.1452  2.7216
10536TIP3   OH231564   1.792   6.484   0.639  0.3797 -0.3356  0.0680
10536TIP3    H131565   1.702   6.517   0.641  0.8911  1.0966  0.2027
10536TIP3    H231566   1.807   6.450   0.727  0.1855  0.0133  0.2372
10537TIP3   OH231567   1.374   2.461   4.602 -0.1017  0.5033 -0.0432
10537TIP3    H131568   1.281   2.446   4.618 -0.0559 -0.9384 -0.9274
10537TIP3    H231569   1.378   2.500   4.515  0.1190  0.3782 -0.0909
10538TIP3   OH231570   6.731   2.674   2.073  0.0201  0.4860 -0.1112
10538TIP3    H131571   6.700   2.745   2.129 -1.2657 -0.7721  0.8421
10538TIP3    H231572   6.701   2.594   2.116  1.1163 -0.6456 -1.3339
10539TIP3   OH231573   2.234   2.253   4.355 -0.1373 -0.1418  0.1502
10539TIP3    H131574   2.222   2.175   4.302 -1.7383  0.8251 -0.9895
10539TIP3    H231575   2.147   2.273   4.389  0.4309  0.6056  1.2372
10540TIP3   OH231576   3.943   5.557   5.077 -0.0310  0.3939 -0.2520
10540TIP3    H131577   3.876   5.527   5.138  1.8231  0.1682  1.7896
10540TIP3    H231578   3.939   5.495   5.004  0.1715 -1.6404  1.4071
10541TIP3   OH231579   1.412   4.854   0.933  0.0429  0.2357 -0.6951
10541TIP3    H131580   1.418   4.785   0.867 -0.2899 -0.5168  0.0450
10541TIP3    H231581   1.465   4.822   1.006 -1.0805  0.2031  0.1279
10542TIP3   OH231582   5.555   6.684   2.564  0.1879 -0.2640  0.1704
10542TIP3    H131583   5.579   6.762   2.514 -0.9842  0.8145  1.2087
10542TIP3    H231584   5.611   6.687   2.641 -0.2769 -0.0996  0.5072
10543TIP3   OH231585   6.886   1.734   1.157  0.2143  0.4564 -0.4488
10543TIP3    H131586   6.845   1.734   1.243  2.2243 -1.0711  0.5746
10543TIP3    H231587   6.907   1.642   1.140  1.5065  0.9514 -1.7272
10544TIP3   OH231588   1.655   7.091   1.855  0.6144  0.0780  0.4611
10544TIP3    H131589   1.594   7.037   1.804  3.9429 -1.5690 -2.1540
10544TIP3    H231590   1.598   7.151   1.903 -3.0369 -1.0068 -2.0316
10545TIP3   OH231591   6.547   6.297   1.293 -0.0604  0.1776  0.8535
10545TIP3    H131592   6.634   6.335   1.282 -0.1605  0.2773  0.3864
10545TIP3    H231593   6.545   6.224   1.231 -0.8317  1.0941 -0.2616
10546TIP3   OH231594   3.581   6.169   0.585  0.3822  0.2753 -0.3350
10546TIP3    H131595   3.546   6.246   0.629  0.0035  0.5611 -1.1167
10546TIP3    H231596   3.564   6.185   0.492 -1.4253 -1.6043 -0.3804
10547TIP3   OH231597   7.507   0.523   0.403 -0.2503  0.6868  0.2512
10547TIP3    H131598   7.516   0.428   0.397  0.1833  0.5516  2.2990
10547TIP3    H231599   7.413   0.539   0.400 -0.5475 -0.1338  2.9212
10548TIP3   OH231600   0.327   6.072   3.088  0.1289  0.1875 -0.2258
10548TIP3    H131601   0.235   6.074   3.060  0.0922  1.4739 -0.0843
10548TIP3    H231602   0.353   5.981   3.077 -0.6868  0.1051 -1.8352
10549TIP3   OH231603   3.082   6.944   4.526  0.1271  0.4068 -0.2823
10549TIP3    H131604   3.093   6.852   4.501  0.2459 -0.0164  1.2605
10549TIP3    H231605   3.117   6.993   4.451  1.3233 -0.8122 -0.5631
10550TIP3   OH231606   4.699   1.363   4.157  0.1185 -0.3959  0.1339
10550TIP3    H131607   4.721   1.437   4.101  1.0273  0.0408  1.0495
10550TIP3    H231608   4.619   1.327   4.119 -0.3011  1.0158 -0.3608
10551TIP3   OH231609   2.393   7.406   0.545  0.4716  0.0005  0.3886
10551TIP3    H131610   2.420   7.495   0.525  0.7543  0.1838  1.5313
10551TIP3    H231611   2.471   7.353   0.527  0.8334  0.2082  1.2775
10552TIP3   OH231612   0.489   5.592   0.542 -0.2974  0.0918 -0.3242
10552TIP3    H131613   0.548   5.573   0.614  0.5061  1.0904 -0.6902
10552TIP3    H231614   0.449   5.508   0.520 -0.6700 -0.2053  1.3596
10553TIP3   OH231615   6.909   1.110   4.063 -0.4825  0.1303  0.6378
10553TIP3    H131616   6.813   1.109   4.070 -0.8755  1.7067 -2.5286
10553TIP3    H231617   6.936   1.189   4.111 -1.2033  1.4699 -1.0325
10554TIP3   OH231618   7.619   4.172   1.317  0.3282 -0.5153 -0.0736
10554TIP3    H131619   7.619   4.266   1.336 -1.4561 -0.8290  1.8467
10554TIP3    H231620   7.712   4.148   1.313  0.8303  0.9577  1.5971
10555TIP3   OH231621   4.031   1.769   1.132  0.4645  0.2649 -0.0226
10555TIP3    H131622   4.096   1.751   1.200 -0.8486 -1.5264  0.8236
10555TIP3    H231623   4.043   1.699   1.069  0.5591  0.9868 -0.8253
10556TIP3   OH231624   0.009   3.261   2.400 -0.4105  0.6940  0.5177
10556TIP3    H131625   0.011   3.170   2.431 -1.0051  0.7492  0.7349
10556TIP3    H231626   0.100   3.281   2.380 -0.3611 -0.2005 -0.2603
10557TIP3   OH231627   4.460   7.702   3.948 -0.5585 -0.2719 -0.1544
10557TIP3    H131628   4.442   7.673   3.859  0.0592 -0.5632 -0.1931
10557TIP3    H231629   4.556   7.702   3.954 -0.5295  1.5364 -0.0775
10558TIP3   OH231630   6.810   5.262   0.563 -0.0207  0.0626  0.2694
10558TIP3    H131631   6.759   5.212   0.626  0.8706  1.3673  2.0943
10558TIP3    H231632   6.758   5.339   0.544 -0.0421 -0.0624 -0.2103
10559TIP3   OH231633   5.275   6.766   0.518  0.2269 -0.3920  0.1811
10559TIP3    H131634   5.292   6.672   0.507  0.2886 -0.4824  0.9557
10559TIP3    H231635   5.209   6.787   0.452  1.3827 -0.6223 -1.0921
10560TIP3   OH231636   1.104   3.209   0.356  0.2048 -0.7589 -0.7376
10560TIP3    H131637   1.009   3.221   0.364  0.2430 -0.9829  0.3024
10560TIP3    H231638   1.137   3.294   0.326 -0.1912 -0.2298  0.2644
10561TIP3   OH231639   4.886   6.885   3.623 -0.6375 -0.2327  0.1018
10561TIP3    H131640   4.927   6.971   3.618 -2.8442  0.8410 -0.6421
10561TIP3    H231641   4.864   6.863   3.532 -3.7982  0.3971  0.5840
10562TIP3   OH231642   4.674   3.276   6.055 -0.0977 -0.1834 -0.3005
10562TIP3    H131643   4.710   3.295   5.968  0.2144  2.6258  0.3429
10562TIP3    H231644   4.580   3.294   6.046 -0.1968 -0.6425 -0.2213
10563TIP3   OH231645   7.519   0.256   0.375 -0.0439 -0.6790 -0.2786
10563TIP3    H131646   7.537   0.211   0.293  1.1695 -0.6688 -0.0447
10563TIP3    H231647   7.528   0.188   0.442 -0.4232 -0.5587 -0.1046
10564TIP3   OH231648   5.700   0.824   3.159  0.3927 -0.0947  0.1204
10564TIP3    H131649   5.616   0.780   3.168 -0.8208  2.0160 -0.2741
10564TIP3    H231650   5.700   0.891   3.227  1.5063  0.3128 -0.2558
10565TIP3   OH231651   8.258   6.258   3.592  0.3977  0.4310  0.0145
10565TIP3    H131652   8.173   6.302   3.596 -0.5024 -1.0784 -1.2817
10565TIP3    H231653   8.288   6.273   3.503  2.1205  1.9856  0.8044
10566TIP3   OH231654   5.544   4.831   0.198  0.4245 -0.0624  0.0980
10566TIP3    H131655   5.620   4.856   0.249 -0.4872  1.0426  0.9698
10566TIP3    H231656   5.505   4.914   0.170  0.2851 -0.6151 -1.4991
10567TIP3   OH231657   1.315   4.663   3.149 -0.0014  0.0196 -0.3310
10567TIP3    H131658   1.391   4.667   3.208  0.2856  0.9847 -0.7421
10567TIP3    H231659   1.267   4.586   3.178  1.9129 -1.5269 -1.0276
10568TIP3   OH231660   7.567   3.944   6.694 -0.0211 -0.0029 -0.5427
10568TIP3    H131661   7.559   3.939   6.598  0.1371 -3.6597 -0.5173
10568TIP3    H231662   7.495   4.000   6.721 -0.7947  0.1761 -2.7272
10569TIP3   OH231663   5.064   1.848   5.542  0.0673  0.8027 -0.0396
10569TIP3    H131664   4.991   1.888   5.494  0.7947  1.3148 -0.7277
10569TIP3    H231665   5.130   1.917   5.547  0.8916  0.0449 -0.2439
10570TIP3   OH231666   1.974   2.990   6.000  0.3316 -0.3794  0.3381
10570TIP3    H131667   1.958   3.036   6.082  0.4250  0.8687 -0.3305
10570TIP3    H231668   2.039   3.042   5.955  1.3427 -1.8141  0.0643
10571TIP3   OH231669   4.431   4.485   3.524 -0.1196  0.0702  0.7356
10571TIP3    H131670   4.420   4.569   3.480 -0.2682 -0.2371  0.1696
10571TIP3    H231671   4.454   4.507   3.614  1.5809  0.7416  0.1762
10572TIP3   OH231672   5.603   5.637   6.576 -0.1198  0.2440 -0.2469
10572TIP3    H131673   5.681   5.691   6.566 -1.4202  2.5006  0.8578
10572TIP3    H231674   5.618   5.588   6.657  0.3615  0.2548 -0.3262
10573TIP3   OH231675   7.799   0.999   1.363  0.0907 -0.5667 -0.1436
10573TIP3    H131676   7.780   1.092   1.357 -0.4906 -0.7339 -1.3218
10573TIP3    H231677   7.776   0.975   1.452 -0.1156  0.3399  0.0600
10574TIP3   OH231678   2.441   7.767   0.890 -0.3863 -0.1037  0.0875
10574TIP3    H131679   2.433   7.827   0.817  0.1439  0.6870  0.6570
10574TIP3    H231680   2.410   7.683   0.856 -0.3999  0.3066 -0.9520
10575TIP3   OH231681   5.625   0.206   5.940 -0.1091 -0.0206  0.4220
10575TIP3    H131682   5.592   0.129   5.985  1.0267 -1.2232 -0.7149
10575TIP3    H231683   5.687   0.245   6.001 -0.2813 -0.3224  0.7878
10576TIP3   OH231684   4.245   6.804   5.146  0.2806  0.0797 -0.1142
10576TIP3    H131685   4.319   6.751   5.116  0.1228 -0.3425  0.2317
10576TIP3    H231686   4.261   6.891   5.108 -0.3984 -0.6462 -2.1881
10577TIP3   OH231687   7.110   6.328   3.276 -0.0778 -0.0668  0.0861
10577TIP3    H131688   7.042   6.395   3.273  1.2346  1.3312  0.3989
10577TIP3    H231689   7.080   6.260   3.217 -2.9187 -0.6497  2.0068
10578TIP3   OH231690   0.071   1.285   3.251  0.6547  0.6102 -0.1972
10578TIP3    H131691   0.093   1.327   3.334 -2.1552  0.3300  0.7873
10578TIP3    H231692   0.113   1.340   3.185  4.0102  0.1735  1.3444
10579TIP3   OH231693   6.271   6.887   1.947  0.0766  0.3657 -0.6163
10579TIP3    H131694   6.303   6.831   1.877  0.0034  0.2913 -0.5903
10579TIP3    H231695   6.230   6.961   1.902  0.5011  0.5825 -0.6484
10580TIP3   OH231696   1.971   0.419   5.129 -0.1098 -0.1618 -0.1875
10580TIP3    H131697   1.953   0.412   5.223 -1.0655  0.4331 -0.3130
10580TIP3    H231698   2.025   0.343   5.109  1.2145  0.3908  1.0948
10581TIP3   OH231699   5.342   5.639   6.451 -0.9348  0.4662  0.1193
10581TIP3    H131700   5.296   5.635   6.535  0.8068 -0.1824  1.0808
10581TIP3    H231701   5.435   5.642   6.474 -0.3774 -0.5088 -1.7858
10582TIP3   OH231702   3.114   0.496   6.099 -0.2749  0.2338 -0.3780
10582TIP3    H131703   3.193   0.539   6.133 -0.8233 -0.2394  1.6457
10582TIP3    H231704   3.143   0.454   6.018  1.5525  0.1302  0.2636
10583TIP3   OH231705   8.141   0.090   2.051  0.6771 -0.0507  0.0073
10583TIP3    H131706   8.055   0.119   2.022  1.6809  1.1904 -1.9253
10583TIP3    H231707   8.145   0.118   2.143 -0.7974  0.2401  0.0144
10584TIP3   OH231708   0.690   4.697   6.129  0.1992 -0.0492 -0.2958
10584TIP3    H131709   0.619   4.647   6.089 -0.8290  0.5274  0.7685
10584TIP3    H231710   0.765   4.637   6.129 -0.8623 -1.4049  0.4947
10585TIP3   OH231711   3.127   7.264   3.227 -0.1384  0.4495 -0.2025
10585TIP3    H131712   3.087   7.281   3.312 -0.0045 -1.6379  0.3164
10585TIP3    H231713   3.064   7.207   3.182  0.7026 -0.0846 -0.7219
10586TIP3   OH231714   2.768   4.250   3.003  0.4616 -0.2035  0.0176
10586TIP3    H131715   2.676   4.274   3.013  0.5703  0.3410 -0.2423
10586TIP3    H231716   2.785   4.188   3.073 -0.2973 -0.8609 -0.3639
10587TIP3   OH231717   1.132   5.521   1.655 -0.7200 -0.2420  0.7942
10587TIP3    H131718   1.128   5.615   1.640  1.2357 -0.3714 -1.1020
10587TIP3    H231719   1.047   5.488   1.627 -0.4053  0.6771 -1.4176
10588TIP3   OH231720   2.399   7.529   3.102  0.3276  0.2396 -0.7244
10588TIP3    H131721   2.460   7.535   3.176 -1.7466 -0.9339  1.2293
10588TIP3    H231722   2.333   7.596   3.121 -0.1560  0.0257 -1.6091
10589TIP3   OH231723   4.006   2.061   3.475 -0.1010  0.0824 -0.0066
10589TIP3    H131724   3.976   1.984   3.523  0.6312 -0.1821  0.0496
10589TIP3    H231725   4.061   2.025   3.405 -0.6869  0.4965 -0.6807
10590TIP3   OH231726   3.796   6.035   3.567  0.2572  0.5797 -0.1336
10590TIP3    H131727   3.803   6.071   3.655 -2.9275  2.1339 -0.3785
10590TIP3    H231728   3.814   6.109   3.509  1.3187 -0.1878 -0.8362
10591TIP3   OH231729   0.291   2.271   3.782  0.0493  0.4616 -0.2643
10591TIP3    H131730   0.206   2.231   3.764 -0.1096  1.0456 -0.8474
10591TIP3    H231731   0.349   2.197   3.798 -0.5389  0.0544  0.0232
10592TIP3   OH231732   2.374   4.338   5.756 -0.2002  0.1195 -0.3401
10592TIP3    H131733   2.351   4.370   5.669 -3.0288 -0.9381 -0.0790
10592TIP3    H231734   2.369   4.415   5.812 -1.6901  0.2252 -0.5864
10593TIP3   OH231735   5.220   2.767   1.749  0.0111 -0.3815  0.1378
10593TIP3    H131736   5.255   2.841   1.698 -0.3724 -0.7086 -0.6143
10593TIP3    H231737   5.256   2.689   1.707  0.7116 -0.6217  1.1588
10594TIP3   OH231738   2.578   5.051   1.205 -0.1595 -0.4380 -0.3209
10594TIP3    H131739   2.511   5.118   1.193 -0.4205 -0.6365 -0.0055
10594TIP3    H231740   2.628   5.081   1.281  1.5551  0.8721 -1.9083
10595TIP3   OH231741   0.465   3.377   0.021  0.1393  0.0335  0.2858
10595TIP3    H131742   0.539   3.316   0.015  0.2201  0.2734 -1.3909
10595TIP3    H231743   0.388   3.321   0.014  0.0937 -0.2508  2.3026
10596TIP3   OH231744   4.198   2.374   1.633  0.4237 -1.0810 -0.2425
10596TIP3    H131745   4.205   2.309   1.704  0.2536 -2.6011 -1.5567
10596TIP3    H231746   4.277   2.362   1.582  0.0256 -0.7939 -0.9345
10597TIP3   OH231747   4.933   0.516   6.135  0.2182 -0.2895 -0.3447
10597TIP3    H131748   5.003   0.580   6.151 -0.0617  0.1295 -0.7609
10597TIP3    H231749   4.889   0.548   6.056 -2.2083  1.0027  1.3911
10598TIP3   OH231750   8.001   0.835   0.106  0.0829  0.1188  0.0338
10598TIP3    H131751   7.947   0.756   0.113  0.4817 -0.1190  0.4053
10598TIP3    H231752   7.987   0.881   0.188  2.6524 -1.3561  1.4493
10599TIP3   OH231753   2.191   4.911   0.432  0.0126  0.5492  0.4597
10599TIP3    H131754   2.130   4.945   0.367  0.7566 -0.0419 -0.5758
10599TIP3    H231755   2.202   4.982   0.495  0.1864  1.5684 -0.7002
10600TIP3   OH231756   6.934   2.082   0.142  0.7163 -0.4198 -0.1601
10600TIP3    H131757   6.885   2.099   0.222 -0.0426 -0.4005 -0.6069
10600TIP3    H231758   7.020   2.120   0.157 -0.3057  2.1889 -0.4075
10601TIP3   OH231759   6.025   5.377   4.461 -0.5444  0.1748 -0.3827
10601TIP3    H131760   5.931   5.359   4.458 -0.8545  1.7099 -0.7436
10601TIP3    H231761   6.066   5.297   4.428 -1.5330 -1.5807  2.3040
10602TIP3   OH231762   4.009   6.108   6.221 -0.0715  0.4239  0.0552
10602TIP3    H131763   4.059   6.067   6.151  0.5544  0.6136  0.3892
10602TIP3    H231764   3.972   6.187   6.182 -0.3952  0.1153 -0.2824
10603TIP3   OH231765   0.202   7.792   6.585  0.2443  0.1140  0.7123
10603TIP3    H131766   0.122   7.819   6.629  0.3538 -0.8631  1.5579
10603TIP3    H231767   0.191   7.698   6.570  0.9237  0.1083  0.1570
10604TIP3   OH231768   1.938   5.315   6.346  0.4526  0.0762 -0.1196
10604TIP3    H131769   1.944   5.397   6.394 -2.6589  0.5757 -0.4036
10604TIP3    H231770   1.900   5.253   6.408 -1.4169  0.1009 -1.1845
10605TIP3   OH231771   4.053   6.286   4.003  0.7481  0.4918 -0.7201
10605TIP3    H131772   4.144   6.299   3.974  0.6146 -0.1464 -1.4660
10605TIP3    H231773   4.051   6.196   4.036  0.1654  0.1366 -1.6620
10606TIP3   OH231774   0.629   4.445   2.983  0.0738 -0.2609 -0.1749
10606TIP3    H131775   0.565   4.473   3.047 -1.3809  0.0918 -1.7246
10606TIP3    H231776   0.616   4.350   2.977  0.4171 -0.3388  0.2446
10607TIP3   OH231777   4.895   1.490   6.397 -0.0411  0.7317 -0.4622
10607TIP3    H131778   4.849   1.474   6.480 -0.2791  1.4800 -0.4375
10607TIP3    H231779   4.973   1.539   6.422  0.5433 -0.1363 -0.5568
10608TIP3   OH231780   1.598   6.709   5.496 -0.0379  0.0903 -0.5104
10608TIP3    H131781   1.573   6.616   5.489 -1.4513  0.3276  0.8486
10608TIP3    H231782   1.560   6.749   5.418  0.9014 -0.4969 -1.3082
10609TIP3   OH231783   8.024   1.443   0.881  0.1640 -0.5229 -0.2436
10609TIP3    H131784   7.933   1.472   0.894  0.0605 -0.6647 -0.6421
10609TIP3    H231785   8.016   1.358   0.837  0.5009  0.5069 -2.4413
10610TIP3   OH231786   2.138   5.892   1.523  0.3940  0.3051 -0.0895
10610TIP3    H131787   2.186   5.911   1.442  0.7377  0.2098  0.0900
10610TIP3    H231788   2.119   5.978   1.560 -0.9596  0.4119 -0.9521
10611TIP3   OH231789   3.932   0.803   4.070  0.1989  0.0838  0.2141
10611TIP3    H131790   3.950   0.843   3.985 -0.2980 -0.9361 -0.3996
10611TIP3    H231791   3.891   0.872   4.122 -0.7803  0.3515 -0.8631
10612TIP3   OH231792   6.229   2.897   3.991  0.3081  0.0186  0.1449
10612TIP3    H131793   6.133   2.899   3.992  0.2651  2.6179  1.1053
10612TIP3    H231794   6.252   2.835   4.059 -0.7837  1.1568  1.6321
10613TIP3   OH231795   5.857   5.602   0.156  0.7471  0.0404  0.1691
10613TIP3    H131796   5.766   5.592   0.185 -0.0893  2.6288 -1.3105
10613TIP3    H231797   5.871   5.530   0.095 -1.0841  0.8544 -1.2815
10614TIP3   OH231798   1.280   5.641   5.483 -0.1108 -0.1098  0.5458
10614TIP3    H131799   1.237   5.580   5.423 -0.1894  0.2515  0.2320
10614TIP3    H231800   1.316   5.709   5.426  0.1800  0.0112  0.8745
10615TIP3   OH231801   6.922   2.990   4.940 -0.2366 -0.0193 -1.1936
10615TIP3    H131802   6.836   3.028   4.925 -1.1774 -1.2844  0.5419
10615TIP3    H231803   6.954   3.033   5.020 -1.0347 -2.2162  0.4228
10616TIP3   OH231804   3.577   2.050   2.080  0.6258 -0.4106 -0.0801
10616TIP3    H131805   3.666   2.076   2.107  0.8912 -0.9505 -0.4175
10616TIP3    H231806   3.540   2.129   2.041  0.7733 -0.0374  0.5140
10617TIP3   OH231807   2.024   1.395   0.166  0.0578  0.3898  0.1024
10617TIP3    H131808   2.038   1.371   0.074  0.1701  0.0190  0.2152
10617TIP3    H231809   2.097   1.453   0.187  1.2115 -1.1622  0.5499
10618TIP3   OH231810   5.599   1.318   0.397 -0.1638 -0.0541 -0.9900
10618TIP3    H131811   5.531   1.253   0.385  0.0938 -0.2647 -1.3017
10618TIP3    H231812   5.623   1.346   0.309 -1.3460  1.5936 -0.8343
10619TIP3   OH231813   6.429   3.185   1.821 -0.4248 -0.1525  0.1544
10619TIP3    H131814   6.427   3.280   1.805 -0.9608 -0.1940 -0.0364
10619TIP3    H231815   6.476   3.176   1.904  0.4725  0.2111 -0.2934
10620TIP3   OH231816   6.953   6.961   2.515  0.0030 -0.4563  0.0043
10620TIP3    H131817   6.968   7.055   2.522  0.0854 -0.5233  0.7135
10620TIP3    H231818   6.902   6.938   2.592 -2.0853 -0.5823 -1.3216
10621TIP3   OH231819   6.272   5.251   3.372  0.1219 -0.2115 -0.0714
10621TIP3    H131820   6.337   5.316   3.349 -0.5091 -0.1008 -1.6996
10621TIP3    H231821   6.284   5.237   3.466  2.7410 -0.5165 -0.3761
10622TIP3   OH231822   2.824   5.750   3.021  0.7847  0.5015 -0.5193
10622TIP3    H131823   2.907   5.718   3.057  1.6540 -0.3370 -3.1068
10622TIP3    H231824   2.785   5.674   2.978 -2.2742  0.3901  2.0172
10623TIP3   OH231825   0.751   7.096   2.037  0.0496  0.0922  0.2430
10623TIP3    H131826   0.686   7.028   2.054  0.3371 -0.4185 -0.6423
10623TIP3    H231827   0.831   7.065   2.079  0.5289 -0.7614 -1.2184
10624TIP3   OH231828   1.203   5.959   2.331 -0.0853 -0.4754 -0.1298
10624TIP3    H131829   1.109   5.963   2.311 -0.0935  0.6428  0.0285
10624TIP3    H231830   1.231   5.874   2.298 -1.1000 -0.7176 -0.4247
10625TIP3   OH231831   4.047   5.100   6.563 -0.5284 -0.1313 -0.5805
10625TIP3    H131832   3.988   5.168   6.530  0.2748  0.5005 -0.7535
10625TIP3    H231833   4.116   5.149   6.608  0.3205 -0.8044 -1.1299
10626TIP3   OH231834   2.793   1.249   3.975  0.1975 -0.0684 -0.4315
10626TIP3    H131835   2.789   1.188   3.901  0.7567  0.3158 -0.7851
10626TIP3    H231836   2.820   1.332   3.936  0.6366  0.1026  0.2292
10627TIP3   OH231837   6.755   1.990   2.926  0.2900  0.0042 -0.9425
10627TIP3    H131838   6.759   2.018   2.835  0.0640  1.8512 -0.4259
10627TIP3    H231839   6.668   2.017   2.956  0.2172 -0.9103 -0.2608
10628TIP3   OH231840   1.286   6.659   2.703  0.4039  0.2041 -0.5481
10628TIP3    H131841   1.308   6.726   2.639  1.4807 -0.3330 -0.7691
10628TIP3    H231842   1.370   6.616   2.722  0.3326  0.9764  1.9413
10629TIP3   OH231843   6.174   3.855   0.165 -0.2150  0.3166 -0.3873
10629TIP3    H131844   6.139   3.862   0.076  1.6386  0.0305 -1.1886
10629TIP3    H231845   6.107   3.807   0.213 -1.9664  1.8179 -1.1928
10630TIP3   OH231846   4.985   3.457   0.161  0.0097 -0.0578 -0.9189
10630TIP3    H131847   5.030   3.403   0.226 -0.1305 -0.3967 -1.1024
10630TIP3    H231848   4.938   3.394   0.107 -0.8126  0.3043 -0.6315
10631TIP3   OH231849   8.010   5.637   1.939  0.2372  0.1035  0.5165
10631TIP3    H131850   8.019   5.606   1.848 -1.2375  0.8325  0.0987
10631TIP3    H231851   8.002   5.557   1.991  3.9941 -0.5200  0.4637
10632TIP3   OH231852   4.124   7.386   1.763  0.4815  0.4805 -0.2649
10632TIP3    H131853   4.092   7.334   1.690  0.0077  0.4631 -0.0540
10632TIP3    H231854   4.197   7.436   1.728 -0.0617  0.8558 -0.8883
10633TIP3   OH231855   0.680   4.131   1.033 -0.2291  0.6801 -0.3681
10633TIP3    H131856   0.682   4.040   1.003 -0.9728  0.2254  0.8835
10633TIP3    H231857   0.620   4.174   0.972  1.5493  0.8295 -2.1425
10634TIP3   OH231858   2.692   0.634   3.285 -0.6124  0.4938 -0.0248
10634TIP3    H131859   2.621   0.621   3.348 -1.9574  0.4434 -1.4752
10634TIP3    H231860   2.661   0.706   3.230  0.3299  0.2465 -0.9004
10635TIP3   OH231861   3.778   3.537   5.485 -0.2450 -0.5907 -0.4513
10635TIP3    H131862   3.834   3.536   5.563  1.0211 -2.0512 -1.3058
10635TIP3    H231863   3.829   3.488   5.419 -1.6780 -0.2080 -1.8991
10636TIP3   OH231864   7.981   0.705   3.188 -0.7362 -0.1805 -0.3574
10636TIP3    H131865   8.056   0.645   3.191 -0.0222  0.6735 -0.5359
10636TIP3    H231866   7.972   0.727   3.095  0.0020  1.1748 -0.1339
10637TIP3   OH231867   0.332   1.290   2.289  0.0500  0.0417  0.0220
10637TIP3    H131868   0.236   1.296   2.295 -0.1086 -0.2677 -1.6749
10637TIP3    H231869   0.359   1.259   2.376 -1.3807  0.1803  0.5493
10638TIP3   OH231870   4.008   3.302   0.294 -0.3384  0.1201  0.0094
10638TIP3    H131871   4.064   3.326   0.220 -1.2211  1.4105 -0.2648
10638TIP3    H231872   3.972   3.384   0.325 -0.3245 -0.4530  1.6269
10639TIP3   OH231873   8.117   6.458   4.709  0.6938  0.2768 -0.2283
10639TIP3    H131874   8.081   6.546   4.720  3.9155  1.7253 -0.2157
10639TIP3    H231875   8.088   6.411   4.788 -0.4694  1.5288  0.1427
10640TIP3   OH231876   0.747   1.601   3.815 -0.1177  0.5052 -0.0352
10640TIP3    H131877   0.829   1.599   3.865 -2.1457  0.4559  3.6671
10640TIP3    H231878   0.750   1.685   3.768  1.1049  1.6416  1.9025
10641TIP3   OH231879   6.322   4.447   6.210 -0.2278  0.0696  0.0546
10641TIP3    H131880   6.380   4.411   6.143 -1.0339  0.8515 -1.0920
10641TIP3    H231881   6.326   4.383   6.281 -0.6421 -1.6538 -1.3961
10642TIP3   OH231882   3.959   2.444   5.382  0.4059 -0.0231  0.1769
10642TIP3    H131883   3.880   2.481   5.422 -0.7347 -1.1453 -0.9554
10642TIP3    H231884   4.030   2.500   5.414 -0.6742  0.3215  2.1681
10643TIP3   OH231885   7.972   5.848   4.518 -0.1512 -0.0401 -0.1619
10643TIP3    H131886   7.970   5.851   4.614 -1.2924 -1.5172 -0.0985
10643TIP3    H231887   8.055   5.805   4.498  0.6904  1.4011  0.0804
10644TIP3   OH231888   1.649   6.670   1.359  0.2139  0.2201  0.2011
10644TIP3    H131889   1.564   6.649   1.396  0.2137  1.2141  0.8053
10644TIP3    H231890   1.633   6.747   1.304  0.8076  0.7502  0.7497
10645TIP3   OH231891   3.747   6.314   2.150 -0.6531  0.5619 -0.1827
10645TIP3    H131892   3.782   6.336   2.063 -0.9958 -0.1226 -0.5075
10645TIP3    H231893   3.712   6.226   2.139 -0.3690  0.3190  0.7564
10646TIP3   OH231894   0.337   2.534   2.804 -0.2221 -0.1267  0.3063
10646TIP3    H131895   0.332   2.524   2.899 -1.6696 -2.3672  0.0858
10646TIP3    H231896   0.247   2.553   2.777 -0.4413 -2.3833 -0.7876
10647TIP3   OH231897   4.448   5.989   5.075  0.2188  0.7030 -0.4544
10647TIP3    H131898   4.458   6.053   5.146  1.8174 -0.1237  0.1128
10647TIP3    H231899   4.529   5.996   5.025  0.0158 -0.2214 -0.9232
10648TIP3   OH231900   7.859   3.997   0.733  0.3228 -0.0882 -0.3432
10648TIP3    H131901   7.948   4.032   0.727  0.4716 -0.4936 -0.5775
10648TIP3    H231902   7.833   3.982   0.642  1.4953 -3.5889 -0.2902
10649TIP3   OH231903   4.292   0.420   4.000  0.0866 -0.2464 -0.0372
10649TIP3    H131904   4.328   0.506   3.980 -2.7834  0.7252 -1.5758
10649TIP3    H231905   4.279   0.420   4.094  0.5325  0.8412  0.0367
10650TIP3   OH231906   6.343   1.884   1.209 -0.5373  0.2381  0.1276
10650TIP3    H131907   6.390   1.805   1.234 -0.1733  0.5880  0.5753
10650TIP3    H231908   6.371   1.950   1.272 -0.0223  1.0050 -0.8671
10651TIP3   OH231909   4.293   3.051   2.331  0.0441  0.0186  0.2415
10651TIP3    H131910   4.274   3.140   2.360  0.0005  0.0190  0.2109
10651TIP3    H231911   4.277   3.052   2.237 -0.0080 -0.0359  0.2498
10652TIP3   OH231912   4.185   0.474   1.862  0.1265  0.1119  0.0366
10652TIP3    H131913   4.104   0.493   1.910  0.2630 -1.0746  0.7892
10652TIP3    H231914   4.155   0.435   1.779 -0.0850  0.0887  0.1244
10653TIP3   OH231915   1.890   3.811   2.944 -0.0091 -0.3512 -0.3774
10653TIP3    H131916   1.948   3.830   3.018  2.1747  1.3681 -2.3682
10653TIP3    H231917   1.817   3.871   2.955  0.4178  0.0661  0.2663
10654TIP3   OH231918   5.759   5.299   3.478  0.2557  0.6345 -0.2039
10654TIP3    H131919   5.840   5.316   3.525 -1.7194  0.4203  3.7111
10654TIP3    H231920   5.749   5.203   3.482 -0.9580  0.7783  0.9845
10655TIP3   OH231921   0.709   7.218   2.569 -0.0640 -0.0860  0.5121
10655TIP3    H131922   0.630   7.219   2.515 -0.7255 -1.1284  1.4268
10655TIP3    H231923   0.781   7.227   2.506 -0.8625 -0.0575 -0.4201
10656TIP3   OH231924   5.685   6.024   0.368 -0.6908  0.2551 -0.1640
10656TIP3    H131925   5.605   6.075   0.383  0.6345  2.0475  1.2856
10656TIP3    H231926   5.722   6.012   0.456  0.8255 -0.2063 -0.8337
10657TIP3   OH231927   4.339   2.194   3.654 -0.1971 -0.4441 -0.0840
10657TIP3    H131928   4.419   2.194   3.707  0.4495 -1.7577 -1.0059
10657TIP3    H231929   4.288   2.121   3.687 -0.5059 -0.3071 -0.2528
10658TIP3   OH231930   3.147   0.896   2.317  0.3216  0.2269  0.2884
10658TIP3    H131931   3.209   0.963   2.345  1.6036 -0.7582 -0.0853
10658TIP3    H231932   3.061   0.937   2.327  1.0142  1.6006  0.9082
10659TIP3   OH231933   6.794   4.128   3.559  0.7026 -0.0868  0.0644
10659TIP3    H131934   6.850   4.126   3.482  0.7790  3.2249 -0.0794
10659TIP3    H231935   6.850   4.159   3.630 -0.3664  1.0310  0.4598
10660TIP3   OH231936   3.924   0.585   6.585  0.1489  0.1873 -0.2837
10660TIP3    H131937   4.010   0.577   6.627  0.5271  2.5908 -0.4668
10660TIP3    H231938   3.876   0.509   6.615  1.5739 -0.0130  1.7021
10661TIP3   OH231939   2.210   5.993   1.275 -0.2934  0.3867  0.0996
10661TIP3    H131940   2.127   5.979   1.229 -1.4948 -2.4424  2.7423
10661TIP3    H231941   2.226   6.087   1.267 -3.0076  0.8190 -1.7085
10662TIP3   OH231942   0.038   0.492   5.218  0.3081 -0.1284  0.3793
10662TIP3    H131943   0.087   0.416   5.248  0.2169 -0.9880 -1.4872
10662TIP3    H231944   0.056   0.560   5.282  1.0587 -1.4772  1.6473
10663TIP3   OH231945   0.443   4.929   5.131 -0.0873 -0.3989  0.5943
10663TIP3    H131946   0.521   4.905   5.180  0.0109 -0.5757  0.3560
10663TIP3    H231947   0.414   4.847   5.092  0.0818 -0.1864  0.0084
10664TIP3   OH231948   5.707   3.819   2.483 -0.2665 -0.2799  0.3307
10664TIP3    H131949   5.756   3.742   2.452 -0.0010 -0.0703  0.2271
10664TIP3    H231950   5.760   3.853   2.555 -0.1404  0.0796  0.0712
10665TIP3   OH231951   5.844   3.425   0.424 -0.3026  0.3203 -0.1169
10665TIP3    H131952   5.936   3.446   0.438 -0.4206  0.7060  0.0997
10665TIP3    H231953   5.835   3.334   0.452  0.0361  0.2491 -0.2435
10666TIP3   OH231954   2.882   6.756   5.310 -0.7800 -0.5153  0.0183
10666TIP3    H131955   2.879   6.834   5.254 -2.3786  0.8216  1.8420
10666TIP3    H231956   2.808   6.703   5.280  0.0787 -1.2015 -0.9677
10667TIP3   OH231957   0.085   0.284   6.537 -0.6016 -0.0741  0.1632
10667TIP3    H131958  -0.008   0.289   6.516 -0.1070  2.0746 -1.9775
10667TIP3    H231959   0.093   0.329   6.621 -1.5396 -0.7377  0.6211
10668TIP3   OH231960   0.628   3.785   2.871  0.1493 -0.7893 -0.5478
10668TIP3    H131961   0.620   3.697   2.908  1.4015 -0.0012  1.8485
10668TIP3    H231962   0.623   3.844   2.947  1.6585  1.0585 -1.7607
10669TIP3   OH231963   6.025   7.529   6.192 -0.2965 -0.2850  0.0253
10669TIP3    H131964   6.057   7.535   6.282  1.2190  0.3744 -0.5235
10669TIP3    H231965   5.964   7.456   6.193  0.5338 -1.0021  1.3524
10670TIP3   OH231966   3.258   3.363   1.115 -0.1758  0.4830 -0.4560
10670TIP3    H131967   3.208   3.329   1.189  0.0778 -1.0692 -0.9578
10670TIP3    H231968   3.216   3.446   1.093 -0.9855  0.3873  0.6716
10671TIP3   OH231969   5.759   0.404   0.724 -0.8144  0.0820  0.0440
10671TIP3    H131970   5.785   0.364   0.641  1.1125  1.0894  0.1039
10671TIP3    H231971   5.697   0.473   0.700 -0.1186  0.4938 -0.6127
10672TIP3   OH231972   4.923   2.706   2.425 -0.5954  0.4441 -0.0574
10672TIP3    H131973   4.942   2.672   2.512  0.9952  0.3745 -0.3965
10672TIP3    H231974   4.859   2.775   2.439  0.3985  1.1313  1.3148
10673TIP3   OH231975   3.171   3.442   5.878  0.1154 -0.2475  0.2118
10673TIP3    H131976   3.238   3.403   5.934 -0.2065  0.2927  0.9836
10673TIP3    H231977   3.203   3.530   5.860 -0.2036 -0.1168  0.2764
10674TIP3   OH231978   4.546   5.179   3.652  0.3687  0.2916 -0.4980
10674TIP3    H131979   4.524   5.158   3.561  2.5380 -0.4303 -0.9133
10674TIP3    H231980   4.635   5.214   3.648  0.3366  0.6630  1.3059
10675TIP3   OH231981   5.781   7.660   1.854 -0.1007 -0.2007 -0.0020
10675TIP3    H131982   5.859   7.714   1.837 -0.1303 -0.8266 -2.4061
10675TIP3    H231983   5.708   7.715   1.828 -0.2661 -0.6455 -0.4845
10676TIP3   OH231984   2.095   4.577   0.710 -0.3341  0.0892  0.4269
10676TIP3    H131985   2.128   4.511   0.771  1.5509 -0.7224 -1.3513
10676TIP3    H231986   2.158   4.649   0.716  0.1508 -0.2064 -0.8798
10677TIP3   OH231987   4.673   0.497   3.475  0.2297 -0.5330 -0.6113
10677TIP3    H131988   4.701   0.413   3.439 -0.5444 -0.6742 -0.9177
10677TIP3    H231989   4.645   0.548   3.399  0.4115 -0.1071 -0.3984
10678TIP3   OH231990   2.293   0.137   5.871 -0.2170  0.1388 -0.0201
10678TIP3    H131991   2.375   0.141   5.822 -0.5523 -0.4630 -0.6354
10678TIP3    H231992   2.232   0.188   5.819 -0.3743  0.1595  0.1815
10679TIP3   OH231993   1.234   1.981   3.942 -0.1043  0.1483  0.4675
10679TIP3    H131994   1.214   2.036   3.866 -3.6075  1.6837  2.2681
10679TIP3    H231995   1.283   2.039   4.000 -0.9893  0.3676  1.0180
10680TIP3   OH231996   6.713   2.527   4.372  0.1952 -0.3622  0.1011
10680TIP3    H131997   6.742   2.617   4.358 -0.6816  0.0983  1.1049
10680TIP3    H231998   6.764   2.496   4.447  0.5014 -0.7021 -0.2475
10681TIP3   OH231999   6.130   4.256   5.401 -0.1434  0.2922  0.2017
10681TIP3    H132000   6.087   4.281   5.319 -0.6258 -0.7327  0.1177
10681TIP3    H232001   6.066   4.199   5.445  0.7274 -0.4487  0.5480
10682TIP3   OH232002   0.195   0.850   2.543  0.0871  0.0983  0.1730
10682TIP3    H132003   0.286   0.882   2.549 -0.1646  0.7188  0.9004
10682TIP3    H232004   0.152   0.887   2.620 -1.4388  1.9563 -1.4470
10683TIP3   OH232005   6.535   5.717   4.441 -0.0600  0.1319  0.4952
10683TIP3    H132006   6.523   5.622   4.437 -1.6527  0.2375  1.7283
10683TIP3    H232007   6.446   5.752   4.442  0.5050  1.6610 -0.0172
10684TIP3   OH232008   0.531   5.676   0.803  0.6444 -0.0468 -0.4348
10684TIP3    H132009   0.523   5.764   0.839  2.3546 -0.3703  0.8264
10684TIP3    H232010   0.586   5.686   0.726  1.0031 -0.0468 -0.1773
10685TIP3   OH232011   2.086   4.503   0.150 -0.3172 -0.6591  0.1570
10685TIP3    H132012   2.054   4.442   0.083 -1.8952 -0.1230  0.4044
10685TIP3    H232013   2.012   4.515   0.209  0.0939  1.2080  0.3353
10686TIP3   OH232014   2.140   0.265   5.687 -0.0251 -0.0844 -0.4882
10686TIP3    H132015   2.133   0.241   5.594 -0.1203 -2.4988  0.0719
10686TIP3    H232016   2.060   0.314   5.706 -0.8093 -1.0145 -1.3041
10687TIP3   OH232017   5.197   3.119   4.898 -0.2042  0.6804  0.4709
10687TIP3    H132018   5.271   3.147   4.845  0.4298 -1.9118 -0.1434
10687TIP3    H232019   5.123   3.116   4.838  0.1254 -0.5759  0.1023
10688TIP3   OH232020   3.767   5.077   5.273  0.5503 -0.0089 -0.0117
10688TIP3    H132021   3.829   5.147   5.293 -0.8661  1.2961  0.0148
10688TIP3    H232022   3.784   5.055   5.182 -0.7795  2.3762 -0.9313
10689TIP3   OH232023   5.143   1.703   3.763 -0.2461 -0.0956  0.1572
10689TIP3    H132024   5.095   1.757   3.701 -2.2731 -1.0800  0.7697
10689TIP3    H232025   5.226   1.683   3.719 -0.8488  0.7558 -1.4283
10690TIP3   OH232026   7.436   5.367   3.165 -0.5831  0.4521 -0.5091
10690TIP3    H132027   7.348   5.358   3.129 -0.3483 -1.9965 -0.6829
10690TIP3    H232028   7.436   5.310   3.242  1.1829 -0.6743 -1.2617
10691TIP3   OH232029   5.715   2.241   3.525 -0.2624 -0.3217 -0.0487
10691TIP3    H132030   5.785   2.274   3.581  0.2270 -0.0800 -0.7896
10691TIP3    H232031   5.757   2.225   3.440 -1.1084 -0.1372 -0.5182
10692TIP3   OH232032   1.358   4.056   3.694 -0.0811 -0.4118 -0.4345
10692TIP3    H132033   1.313   4.004   3.762  0.1444 -0.2653 -0.1689
10692TIP3    H232034   1.321   4.144   3.703  1.2742  0.0706  0.7597
10693TIP3   OH232035   5.034   6.187   5.056  0.1875 -0.2186 -0.0281
10693TIP3    H132036   4.982   6.180   5.136 -0.0584  0.7256 -0.0837
10693TIP3    H232037   4.975   6.229   4.993 -0.2716 -2.6616 -1.3346
10694TIP3   OH232038   0.903   2.182   5.919 -0.1741  0.0123  0.6129
10694TIP3    H132039   0.847   2.161   5.844  0.7601  0.4177 -0.2318
10694TIP3    H232040   0.906   2.102   5.971 -0.5316 -0.3946  0.0165
10695TIP3   OH232041   4.151   4.699   4.591 -0.1659 -0.5324  0.2881
10695TIP3    H132042   4.077   4.758   4.598 -0.1019 -0.3656 -0.4204
10695TIP3    H232043   4.224   4.747   4.630 -0.0679 -0.0537 -0.4689
10696TIP3   OH232044   2.500   5.390   3.021 -0.0833  0.1262 -0.1542
10696TIP3    H132045   2.522   5.466   2.968 -2.0925  0.7915 -0.1106
10696TIP3    H232046   2.460   5.329   2.960 -2.0178  0.7188  0.4623
10697TIP3   OH232047   1.939   7.373   4.221 -0.1910  0.2510 -0.6919
10697TIP3    H132048   2.003   7.414   4.163  1.1378 -1.5445 -0.6105
10697TIP3    H232049   1.993   7.322   4.282 -1.6384  0.4374  0.7980
10698TIP3   OH232050   2.937   4.171   1.276  0.0600 -0.0798 -0.4787
10698TIP3    H132051   2.935   4.226   1.354  0.1816 -0.5201 -0.1620
10698TIP3    H232052   2.945   4.233   1.203  0.3513  0.3136 -0.1171
10699TIP3   OH232053   0.751   3.093   1.672 -0.3111  0.2282 -0.4603
10699TIP3    H132054   0.783   3.138   1.594  1.7723 -0.7601 -0.2388
10699TIP3    H232055   0.787   3.004   1.666 -0.0242  0.1333  1.6400
10700TIP3   OH232056   0.292   0.602   0.174  0.0922 -0.2782 -0.0149
10700TIP3    H132057   0.294   0.598   0.078  0.9947 -0.5125  0.0044
10700TIP3    H232058   0.374   0.561   0.201 -0.8082 -1.5622  0.9111
10701TIP3   OH232059   5.594   2.760   1.792  0.3155 -0.4868  0.0603
10701TIP3    H132060   5.633   2.673   1.791  0.4020 -0.4605 -1.4688
10701TIP3    H232061   5.538   2.760   1.870  0.7583 -1.6985  0.4064
10702TIP3   OH232062   2.721   0.360   4.446  0.2958 -0.2648  0.4358
10702TIP3    H132063   2.717   0.275   4.490 -0.0486 -0.6277 -0.2852
10702TIP3    H232064   2.637   0.402   4.467  0.0813 -0.4881  0.0257
10703TIP3   OH232065   1.734   3.018   0.595 -0.1021 -0.3924  0.2281
10703TIP3    H132066   1.671   3.076   0.638  1.3479  0.5471  1.1812
10703TIP3    H232067   1.815   3.069   0.590  0.1519 -0.8581 -2.6563
10704TIP3   OH232068   5.855   4.144   6.517  0.5071 -0.1016  0.0961
10704TIP3    H132069   5.929   4.099   6.557  1.1031  0.4701 -0.3447
10704TIP3    H232070   5.778   4.103   6.556  0.9303 -2.9956 -1.7519
10705TIP3   OH232071   2.710   5.608   2.391  0.6082  0.1314  0.0064
10705TIP3    H132072   2.693   5.514   2.392 -1.1485  0.4217  0.1919
10705TIP3    H232073   2.752   5.624   2.307  0.3722 -0.7330 -0.2843
10706TIP3   OH232074   5.492   5.484   4.876 -0.1330  0.1502 -0.1225
10706TIP3    H132075   5.498   5.510   4.784  0.9569  0.2082 -0.0511
10706TIP3    H232076   5.398   5.480   4.894 -0.4079 -1.0341 -1.5654
10707TIP3   OH232077   2.020   2.790   2.438  0.0079 -0.1654  0.3268
10707TIP3    H132078   2.090   2.773   2.501 -1.7299 -0.4987  2.2834
10707TIP3    H232079   1.944   2.744   2.473 -1.6383  1.4824 -0.8425
10708TIP3   OH232080   2.756   1.837   0.630  0.2186  0.1878 -0.1448
10708TIP3    H132081   2.838   1.808   0.590  0.1158 -0.6311  0.2033
10708TIP3    H232082   2.701   1.863   0.556  1.9680  4.1959 -0.2635
10709TIP3   OH232083   6.490   5.682   0.488  0.2136 -0.1679 -0.5326
10709TIP3    H132084   6.454   5.694   0.400 -2.6984  0.4250  0.6458
10709TIP3    H232085   6.498   5.770   0.524 -3.2668 -0.4783  1.4164
10710TIP3   OH232086   1.718   6.654   3.071 -0.5636  0.0867 -0.5490
10710TIP3    H132087   1.771   6.590   3.023  1.8604  1.6509 -0.1237
10710TIP3    H232088   1.726   6.627   3.163  1.5252  1.6179 -0.2206
10711TIP3   OH232089   3.161   0.873   6.516  0.0118  0.2192  0.2297
10711TIP3    H132090   3.101   0.895   6.587 -0.1889 -1.5671  0.6665
10711TIP3    H232091   3.207   0.795   6.547  0.3839 -0.2206 -1.3363
10712TIP3   OH232092   4.217   3.833   4.549 -0.0936 -0.3780  0.2865
10712TIP3    H132093   4.298   3.849   4.501  1.4176  1.1875  3.1206
10712TIP3    H232094   4.155   3.896   4.512  1.6235  2.2825  1.6222
10713TIP3   OH232095   5.289   0.346   3.055  0.6336 -0.0402 -0.4729
10713TIP3    H132096   5.276   0.291   2.977  0.2841  1.3923 -1.4579
10713TIP3    H232097   5.268   0.288   3.128  1.6763 -1.6440 -1.3795
10714TIP3   OH232098   6.296   7.636   2.884 -0.2742 -0.1217 -0.1285
10714TIP3    H132099   6.354   7.633   2.807 -0.7327  0.0210 -0.4837
10714TIP3    H232100   6.356   7.645   2.958  0.1658 -0.0483 -0.4845
10715TIP3   OH232101   8.045   6.474   3.600 -0.2939  0.1930  0.3824
10715TIP3    H132102   8.027   6.545   3.663 -1.4047  0.2870 -0.0128
10715TIP3    H232103   7.959   6.452   3.564  0.1166 -0.9793  0.0784
10716TIP3   OH232104   6.280   0.358   4.523 -0.0730  0.1694  0.1570
10716TIP3    H132105   6.240   0.359   4.610  0.1276  1.2073  0.2511
10716TIP3    H232106   6.332   0.277   4.521 -1.9088 -1.0646  0.1324
10717TIP3   OH232107   6.501   0.084   1.224  0.2396  0.3635  0.0819
10717TIP3    H132108   6.473   0.159   1.172 -0.9434  0.4805  0.8472
10717TIP3    H232109   6.422   0.055   1.269  0.6075 -1.5053 -0.3746
10718TIP3   OH232110   0.653   0.670   4.960 -0.5595 -0.0004 -0.4436
10718TIP3    H132111   0.734   0.619   4.957 -0.9750 -0.6417 -1.0118
10718TIP3    H232112   0.610   0.652   4.877 -0.0601  2.3881 -1.2788
10719TIP3   OH232113   5.741   7.773   3.217  1.0714  0.1050  0.0737
10719TIP3    H132114   5.804   7.703   3.200 -1.9411 -2.2824 -2.6872
10719TIP3    H232115   5.737   7.779   3.312  3.0218 -2.0053  0.3821
10720TIP3   OH232116   3.083   6.954   5.156  0.0168  0.6170  0.1788
10720TIP3    H132117   3.110   6.999   5.236 -1.1775 -0.2734  1.1263
10720TIP3    H232118   3.082   7.022   5.089 -0.1152  1.6379  1.1849
10721TIP3   OH232119   1.208   7.491   2.919  0.1679  0.4344  0.4967
10721TIP3    H132120   1.300   7.482   2.894  0.1027  1.5742 -0.2566
10721TIP3    H232121   1.167   7.412   2.887  0.9223 -0.2114  1.0704
10722TIP3   OH232122   7.392   4.589   3.853 -0.3246 -0.1443  0.4301
10722TIP3    H132123   7.319   4.563   3.797  0.9550 -3.5069  0.1158
10722TIP3    H232124   7.351   4.608   3.938 -1.7547  0.2473 -0.3144
10723TIP3   OH232125   2.852   4.862   0.421  0.0663  0.0773 -0.6752
10723TIP3    H132126   2.778   4.894   0.472 -0.1853  0.1970 -1.1137
10723TIP3    H232127   2.829   4.881   0.330  0.1662 -0.8205 -0.9048
10724TIP3   OH232128   4.228   2.849   5.185  0.3220  0.3029 -0.0413
10724TIP3    H132129   4.189   2.804   5.110  0.9896 -0.8235  0.2492
10724TIP3    H232130   4.184   2.811   5.261  0.2487  0.8198  0.1805
10725TIP3   OH232131   5.117   3.087   3.300 -0.5397  0.1794  0.5723
10725TIP3    H132132   5.137   3.022   3.233  1.2621  1.0778  0.1789
10725TIP3    H232133   5.188   3.079   3.363 -0.6043  1.3613  0.8159
10726TIP3   OH232134   7.678   6.227   5.118 -0.0094  0.0148  0.0949
10726TIP3    H132135   7.695   6.247   5.026 -1.2247 -0.3654 -0.2324
10726TIP3    H232136   7.583   6.236   5.128  0.2020  1.1162  1.5854
10727TIP3   OH232137   3.029   1.868   0.618  0.3564 -0.7406 -1.2923
10727TIP3    H132138   3.017   1.963   0.630  0.1094 -0.9612  0.5657
10727TIP3    H232139   3.123   1.858   0.602  0.7125 -0.3047  0.3428
10728TIP3   OH232140   7.651   6.703   6.541 -0.3100  0.4699 -0.0698
10728TIP3    H132141   7.602   6.762   6.597  0.8524  1.7289 -0.3225
10728TIP3    H232142   7.712   6.760   6.493  1.3071 -0.9915  0.1476
10729TIP3   OH232143   1.927   1.923   6.613 -0.0630  0.0576 -0.5160
10729TIP3    H132144   1.888   1.881   6.690 -0.3315  1.8884  0.3920
10729TIP3    H232145   1.863   1.990   6.587  1.2265  1.2603 -0.6852
10730TIP3   OH232146   3.510   4.495   3.404  0.2812 -0.2438 -0.1193
10730TIP3    H132147   3.593   4.534   3.431  0.3243 -0.0810 -0.4900
10730TIP3    H232148   3.451   4.511   3.478  0.4554  0.0326 -0.0408
10731TIP3   OH232149   1.171   6.203   4.516 -0.2471 -0.5108 -0.1105
10731TIP3    H132150   1.222   6.227   4.439 -0.9521  0.7898 -0.2080
10731TIP3    H232151   1.098   6.265   4.516 -1.2670 -1.6810  0.5790
10732TIP3   OH232152   7.064   3.795   4.907 -0.0712 -0.3636 -0.0054
10732TIP3    H132153   7.080   3.797   5.001 -0.4890 -1.0012  0.0826
10732TIP3    H232154   6.989   3.737   4.896  0.1210 -0.4817 -0.7545
10733TIP3   OH232155   8.243   6.014   2.558  0.1299 -0.3513  0.4777
10733TIP3    H132156   8.302   5.939   2.564  1.2492  0.4820  0.2929
10733TIP3    H232157   8.225   6.023   2.464 -1.6789 -1.6040  0.6504
10734TIP3   OH232158   5.516   1.844   5.572  0.0602  0.0567 -0.6372
10734TIP3    H132159   5.591   1.901   5.587 -1.2569  1.6824  0.0110
10734TIP3    H232160   5.446   1.881   5.625 -1.1486 -1.5788 -1.0007
10735TIP3   OH232161   5.124   0.584   0.337 -0.3398 -0.0107 -0.1170
10735TIP3    H132162   5.172   0.652   0.385 -0.9860  0.2048  0.2405
10735TIP3    H232163   5.118   0.512   0.400  0.8559 -0.6385 -0.6960
10736TIP3   OH232164   5.288   2.526   2.607 -0.2197 -0.4945  0.1658
10736TIP3    H132165   5.311   2.619   2.615  0.9658 -0.8850  1.7331
10736TIP3    H232166   5.360   2.488   2.558  0.5129 -0.9833  1.5642
10737TIP3   OH232167   3.781   1.095   0.768  0.5715  0.0080  0.0647
10737TIP3    H132168   3.700   1.047   0.756  0.7973 -0.1138 -1.0036
10737TIP3    H232169   3.759   1.186   0.746  0.0895  0.5080  2.2807
10738TIP3   OH232170   3.828   6.392   3.763 -0.0652 -0.6720  0.4745
10738TIP3    H132171   3.840   6.297   3.765 -0.6964 -0.7712 -0.1982
10738TIP3    H232172   3.824   6.417   3.856 -1.8438 -1.5603  0.6702
10739TIP3   OH232173   8.035   4.232   5.909  0.8303  0.0577  0.3700
10739TIP3    H132174   7.986   4.181   5.974 -0.6913  1.3230  0.2750
10739TIP3    H232175   8.019   4.188   5.826 -0.0821  0.3922  0.3591
10740TIP3   OH232176   2.462   4.330   2.421  0.3530  0.0804 -0.1640
10740TIP3    H132177   2.508   4.250   2.395  0.3497  0.2700 -0.7484
10740TIP3    H232178   2.509   4.360   2.499 -0.9916 -1.7298  1.4743
10741TIP3   OH232179   3.773   1.310   4.746  0.2635 -0.2970 -0.0324
10741TIP3    H132180   3.762   1.278   4.836 -0.7081  1.9016  0.6994
10741TIP3    H232181   3.840   1.377   4.753  0.9929 -0.8832 -1.1912
10742TIP3   OH232182   1.711   0.972   1.696 -0.4549  0.1047 -0.0550
10742TIP3    H132183   1.702   0.989   1.790 -0.1093  0.3358 -0.0613
10742TIP3    H232184   1.757   1.049   1.662  1.7189 -1.0905  0.0209
10743TIP3   OH232185   1.211   1.953   5.191 -0.6426 -0.5266 -0.1967
10743TIP3    H132186   1.297   1.992   5.204 -0.3603 -0.1882 -2.5833
10743TIP3    H232187   1.208   1.932   5.097 -3.4162  0.1652 -0.3610
10744TIP3   OH232188   1.490   1.896   5.178 -0.1456 -0.4074 -0.2414
10744TIP3    H132189   1.498   1.860   5.090  1.1767 -0.8230  0.0272
10744TIP3    H232190   1.477   1.820   5.235  0.0019 -0.2265  0.0379
10745TIP3   OH232191   7.252   4.243   5.462 -0.2331 -0.2729  0.0061
10745TIP3    H132192   7.241   4.304   5.389  1.3262  0.9960  0.7682
10745TIP3    H232193   7.165   4.208   5.477 -0.7122 -0.0950 -2.0445
10746TIP3   OH232194   6.496   6.688   2.104 -0.0970  0.5766 -0.8595
10746TIP3    H132195   6.521   6.674   2.013 -0.4167  0.3034 -0.9055
10746TIP3    H232196   6.411   6.733   2.099 -2.0883 -2.8776 -0.7190
10747TIP3   OH232197   4.032   6.020   4.655 -0.0711 -0.0147  0.4526
10747TIP3    H132198   4.085   5.993   4.729 -0.9677 -0.1807  1.0476
10747TIP3    H232199   3.951   5.971   4.664 -0.2681  0.0962 -0.5420
10748TIP3   OH232200   0.499   6.508   0.700 -0.8283  0.3584 -0.0012
10748TIP3    H132201   0.484   6.538   0.610 -2.4082 -0.4026 -0.0128
10748TIP3    H232202   0.580   6.553   0.726  0.3561 -0.3499 -2.1990
10749TIP3   OH232203   7.439   4.483   5.091 -0.1793 -0.1473 -0.4363
10749TIP3    H132204   7.395   4.462   5.009 -1.0628 -1.2930  0.3057
10749TIP3    H232205   7.516   4.427   5.091 -0.9020 -1.1661  0.1233
10750TIP3   OH232206   3.964   1.114   1.595 -0.3180 -0.3814  0.2833
10750TIP3    H132207   4.030   1.063   1.642  1.2330 -0.1404 -1.4592
10750TIP3    H232208   4.014   1.188   1.559 -1.6933  0.1782 -0.5387
10751TIP3   OH232209   3.743   1.385   4.129  0.0667 -0.3378  0.1185
10751TIP3    H132210   3.795   1.310   4.157 -0.4118 -0.4800  0.6454
10751TIP3    H232211   3.711   1.424   4.211  0.2868  0.4237 -0.1503
10752TIP3   OH232212   0.843   0.483   0.263 -0.4232 -0.1557  0.7746
10752TIP3    H132213   0.834   0.515   0.173 -0.2423 -0.9801  0.4539
10752TIP3    H232214   0.822   0.559   0.318  0.7394  0.7331  0.0414
10753TIP3   OH232215   5.410   0.171   4.580  0.5641  0.1939  0.2696
10753TIP3    H132216   5.420   0.264   4.565 -2.2532  0.5522  0.0316
10753TIP3    H232217   5.387   0.164   4.673  3.1231 -0.5708  0.9282
10754TIP3   OH232218   5.599   6.708   2.977 -0.0757 -0.1778  0.2187
10754TIP3    H132219   5.625   6.759   2.900 -1.3128 -0.7673 -0.6288
10754TIP3    H232220   5.640   6.753   3.051 -0.1935  1.3662 -0.6133
10755TIP3   OH232221   0.745   4.272   6.426 -0.3403 -0.3063  0.4181
10755TIP3    H132222   0.837   4.276   6.398 -0.8789 -1.2525 -1.6763
10755TIP3    H232223   0.735   4.184   6.463 -0.5088 -0.3744  0.2127
10756TIP3   OH232224   7.466   2.285   4.742  0.2659 -0.2788  0.2266
10756TIP3    H132225   7.504   2.198   4.734 -0.7635 -0.9187  1.8341
10756TIP3    H232226   7.387   2.282   4.688  0.2092 -0.3575  0.3140
10757TIP3   OH232227   5.180   0.654   1.326  0.9682 -0.3472 -0.8164
10757TIP3    H132228   5.164   0.699   1.242 -0.4638  0.0944 -0.3487
10757TIP3    H232229   5.164   0.562   1.306  1.7096 -0.3856 -1.2714
10758TIP3   OH232230   2.812   3.488   1.727  0.0790 -0.0849 -0.2038
10758TIP3    H132231   2.774   3.512   1.812 -0.9428  0.2864 -0.7487
10758TIP3    H232232   2.803   3.568   1.674 -0.2283 -0.6285 -0.9821
10759TIP3   OH232233   4.124   1.375   5.909  0.9941 -0.9447 -0.1318
10759TIP3    H132234   4.116   1.448   5.969 -0.9359 -1.3634  0.2140
10759TIP3    H232235   4.098   1.411   5.824  4.1420 -0.2409 -0.9300
10760TIP3   OH232236   8.059   0.639   2.299 -0.1911  0.1035  0.4058
10760TIP3    H132237   8.000   0.570   2.270 -0.0243 -0.0342  0.3908
10760TIP3    H232238   8.010   0.720   2.287  0.1756  0.1355 -1.1110
10761TIP3   OH232239   6.574   5.887   4.211  0.0119  0.6253 -0.2163
10761TIP3    H132240   6.631   5.964   4.212  1.5533 -0.4503 -0.8667
10761TIP3    H232241   6.599   5.838   4.289 -0.2405  0.3024 -0.3353
10762TIP3   OH232242   7.867   5.569   6.545 -0.0666 -0.6796 -0.6933
10762TIP3    H132243   7.815   5.623   6.605 -1.1120 -1.8873 -0.4545
10762TIP3    H232244   7.874   5.620   6.465  0.6681  0.6301  0.1727
10763TIP3   OH232245   7.326   2.660   0.659 -0.4381  0.2521  0.4016
10763TIP3    H132246   7.368   2.578   0.633 -0.9611 -0.7906  2.6228
10763TIP3    H232247   7.296   2.699   0.577 -2.0560 -2.8251 -0.6101
10764TIP3   OH232248   2.021   1.624   4.260  0.0086 -0.2367 -0.5161
10764TIP3    H132249   1.933   1.658   4.270 -0.3984 -0.4457 -2.7409
10764TIP3    H232250   2.039   1.633   4.166  1.3868 -2.4909 -0.5305
10765TIP3   OH232251   0.754   4.628   1.749  0.1402 -0.4414  0.2519
10765TIP3    H132252   0.684   4.604   1.811  1.5026 -2.3832  1.1318
10765TIP3    H232253   0.835   4.604   1.794  1.2147 -1.4900 -2.0970
10766TIP3   OH232254   6.120   2.756   0.478  0.0569 -0.6544  0.3241
10766TIP3    H132255   6.125   2.795   0.390 -1.5261 -1.2814 -0.0886
10766TIP3    H232256   6.141   2.663   0.463 -1.8283 -1.1143  0.2816
10767TIP3   OH232257   6.776   4.011   1.413 -0.0675 -0.6412  0.1657
10767TIP3    H132258   6.804   4.000   1.504 -2.2387 -1.0747  0.8468
10767TIP3    H232259   6.681   4.017   1.418 -0.1684  0.4322 -1.9995
10768TIP3   OH232260   5.973   7.118   3.761  0.3649  0.4991  0.1646
10768TIP3    H132261   6.025   7.043   3.731 -1.5829 -0.9972  0.3578
10768TIP3    H232262   5.897   7.079   3.804 -1.5644  2.5527 -1.1844
10769TIP3   OH232263   1.647   3.465   5.539  0.0517  0.0105  0.0925
10769TIP3    H132264   1.603   3.391   5.581 -0.0584  0.0589  0.0646
10769TIP3    H232265   1.705   3.500   5.606 -1.3537  1.1315  0.7907
10770TIP3   OH232266   1.483   6.613   2.149 -0.2781  0.3881  0.0738
10770TIP3    H132267   1.457   6.703   2.169  1.4028  0.8730  0.2292
10770TIP3    H232268   1.578   6.617   2.140 -0.1703 -1.3820  0.1023
10771TIP3   OH232269   3.815   5.001   2.244 -0.2171  0.4893 -0.3693
10771TIP3    H132270   3.756   5.069   2.275 -1.2204 -1.0907  1.4117
10771TIP3    H232271   3.758   4.937   2.202  0.5846  0.2567 -1.1337
10772TIP3   OH232272   6.306   2.678   4.875 -0.0370  0.5760 -0.4735
10772TIP3    H132273   6.302   2.648   4.784 -0.1459 -0.9488  0.0081
10772TIP3    H232274   6.399   2.674   4.897 -0.1338 -0.1778 -0.1740
10773TIP3   OH232275   1.189   4.703   4.010  0.3853 -0.0726 -0.3575
10773TIP3    H132276   1.240   4.731   3.935 -0.9731 -0.2128 -1.3717
10773TIP3    H232277   1.222   4.755   4.083  0.4699  1.4258 -1.4332
10774TIP3   OH232278   7.909   3.560   2.888  0.1678 -0.7751  0.1870
10774TIP3    H132279   7.877   3.580   2.976  1.7981 -2.4900  1.2338
10774TIP3    H232280   7.955   3.639   2.861 -1.3093  0.1907  0.3643
10775TIP3   OH232281   3.083   1.146   0.569  0.4111 -0.3687  0.1943
10775TIP3    H132282   3.045   1.133   0.482  0.8938  1.5966 -0.3572
10775TIP3    H232283   3.035   1.221   0.605 -0.9051 -2.1130  2.3434
10776TIP3   OH232284   3.165   1.897   1.471  0.0682  0.3179  0.3104
10776TIP3    H132285   3.229   1.852   1.417 -0.2343 -0.4032  0.5438
10776TIP3    H232286   3.144   1.835   1.540 -0.0897  0.9560  0.8435
10777TIP3   OH232287   4.676   6.390   4.043 -0.0087  0.5303  0.3076
10777TIP3    H132288   4.658   6.416   3.953 -1.7273 -1.1143  0.1050
10777TIP3    H232289   4.745   6.324   4.036  1.1837  1.7289  0.4087
10778TIP3   OH232290   7.258   2.592   4.786 -0.0465 -0.2556 -0.1907
10778TIP3    H132291   7.214   2.508   4.800  0.0482 -0.2648  0.0656
10778TIP3    H232292   7.351   2.571   4.785 -0.0731 -0.4816 -2.4167
10779TIP3   OH232293   2.563   0.681   6.448  0.2191 -0.1816  0.1618
10779TIP3    H132294   2.616   0.647   6.521  0.6925 -1.1785 -0.6267
10779TIP3    H232295   2.561   0.610   6.384 -4.1738 -1.2725  1.1332
10780TIP3   OH232296   4.754   7.762   4.229  0.1680 -0.0808  0.0745
10780TIP3    H132297   4.718   7.674   4.235 -0.3021  0.0128 -1.0862
10780TIP3    H232298   4.811   7.770   4.306  0.9670 -1.7343 -0.2928
10781TIP3   OH232299   3.271   1.799   3.898 -0.2731 -0.0476  0.2271
10781TIP3    H132300   3.229   1.856   3.962  1.2798  0.5174  0.7722
10781TIP3    H232301   3.312   1.859   3.835  3.7483 -0.3002  2.2806
10782TIP3   OH232302   0.507   7.322   4.419  0.3621 -0.1406  0.2571
10782TIP3    H132303   0.573   7.382   4.383 -0.6736  0.6387 -0.4104
10782TIP3    H232304   0.439   7.380   4.453 -0.3901 -0.9438  0.1367
10783TIP3   OH232305   0.218   5.909   3.340  0.4981 -0.9428  0.3418
10783TIP3    H132306   0.275   5.972   3.384  0.6514 -0.9510  0.1575
10783TIP3    H232307   0.134   5.955   3.330  0.7105 -0.6461 -0.0956
10784TIP3   OH232308   7.595   2.654   6.592 -0.3026  0.1311  0.2107
10784TIP3    H132309   7.560   2.614   6.671  0.4166 -0.6234  0.1514
10784TIP3    H232310   7.535   2.727   6.574  0.8968  1.9010  2.8454
10785TIP3   OH232311   8.228   3.844   0.466 -0.6580 -0.2334  0.7516
10785TIP3    H132312   8.174   3.920   0.448  0.9837  0.8712  0.2730
10785TIP3    H232313   8.251   3.852   0.558 -0.5974 -0.2225  0.7357
10786TIP3   OH232314   1.776   5.613   6.036 -0.2389 -0.4684 -0.4487
10786TIP3    H132315   1.686   5.609   6.003 -0.6190  2.3241 -0.0174
10786TIP3    H232316   1.827   5.648   5.963  0.2502 -0.7662 -0.2581
10787TIP3   OH232317   4.715   4.117   5.913 -0.0788 -0.2033  0.3684
10787TIP3    H132318   4.741   4.146   6.001  1.7783 -0.9264  0.1106
10787TIP3    H232319   4.623   4.142   5.906  0.2810  1.7363  1.7304
10788TIP3   OH232320   1.795   7.089   2.249 -0.0792 -0.7707 -0.3075
10788TIP3    H132321   1.846   7.084   2.168  1.0298  0.0301  0.2966
10788TIP3    H232322   1.771   7.182   2.256  0.1064 -0.7712  0.4253
10789TIP3   OH232323   0.877   5.040   3.862  0.5022  0.0414 -0.2490
10789TIP3    H132324   0.782   5.051   3.868  0.7333  2.7719 -0.4241
10789TIP3    H232325   0.903   5.005   3.948 -0.3631  2.3174  1.0182
10790TIP3   OH232326   5.131   0.777   1.076 -0.4403 -0.1748  0.1779
10790TIP3    H132327   5.047   0.735   1.062  0.6819 -1.9813 -1.6203
10790TIP3    H232328   5.145   0.831   0.998  0.3983 -0.5360  0.0591
10791TIP3   OH232329   8.229   2.804   1.684  0.1392  0.5501  0.0905
10791TIP3    H132330   8.215   2.720   1.640 -0.3643 -0.2237  1.6506
10791TIP3    H232331   8.149   2.854   1.667 -0.0987  0.2155  0.2302
10792TIP3   OH232332   5.143   0.603   4.365  0.1116 -0.8084  0.1202
10792TIP3    H132333   5.063   0.611   4.313 -1.0563  1.3570  2.0923
10792TIP3    H232334   5.184   0.690   4.359  0.1928 -0.6352  2.3186
10793TIP3   OH232335   3.784   2.665   3.156 -0.0949  0.0701  0.3017
10793TIP3    H132336   3.848   2.658   3.085  1.6180  0.2368  1.7657
10793TIP3    H232337   3.822   2.616   3.228 -0.7506  1.6480  1.8009
10794TIP3   OH232338   6.537   0.598   6.015 -0.5808 -0.4066 -0.1102
10794TIP3    H132339   6.460   0.655   6.019  0.6015  1.2203  0.7655
10794TIP3    H232340   6.600   0.647   5.963 -0.1351 -1.7353 -0.8536
10795TIP3   OH232341   1.669   2.000   2.664 -0.1005  0.0379 -0.2826
10795TIP3    H132342   1.633   1.916   2.691 -0.0183  0.4350  1.1494
10795TIP3    H232343   1.681   1.992   2.570  1.9115 -2.3158  0.0719
10796TIP3   OH232344   7.742   4.282   3.534  0.1673 -0.1518  0.4447
10796TIP3    H132345   7.716   4.353   3.475 -1.0704 -0.4762  0.5721
10796TIP3    H232346   7.729   4.203   3.483  0.0677 -0.3764  0.8162
10797TIP3   OH232347  -0.014   1.404   5.019  0.0512 -0.1454  0.3966
10797TIP3    H132348   0.075   1.419   5.052  0.1672  0.7812 -0.3110
10797TIP3    H232349  -0.016   1.447   4.933 -0.1268 -2.7764 -1.0309
10798TIP3   OH232350   7.841   4.945   6.404 -0.5540 -0.4994 -0.4013
10798TIP3    H132351   7.915   4.893   6.372 -0.6443 -1.4461  0.8249
10798TIP3    H232352   7.764   4.893   6.380 -0.8218  0.2826 -1.3107
10799TIP3   OH232353   3.410   5.320   4.617  0.2181 -0.0592 -0.2286
10799TIP3    H132354   3.497   5.305   4.579  1.1792  0.5503  1.6354
10799TIP3    H232355   3.385   5.407   4.586  1.3242  0.7529  1.0272
10800TIP3   OH232356   6.521   2.863   4.372  0.5485 -0.1254 -0.9853
10800TIP3    H132357   6.468   2.943   4.372  0.7695  0.0242 -0.5952
10800TIP3    H232358   6.502   2.823   4.457  4.5059  2.2603  1.3618
10801TIP3   OH232359   2.478   2.111   0.874  0.4750 -0.2934  0.2722
10801TIP3    H132360   2.511   2.200   0.885 -0.9336  0.0743  2.0518
10801TIP3    H232361   2.545   2.055   0.913  1.1623  0.0218 -0.4531
10802TIP3   OH232362   4.477   2.603   1.472 -0.5891 -0.0488 -0.6208
10802TIP3    H132363   4.417   2.530   1.456 -1.7345  0.0988  2.4190
10802TIP3    H232364   4.422   2.670   1.512  1.1259  1.1598 -0.2289
10803TIP3   OH232365   3.320   6.788   3.074  0.4044  0.2274 -0.4837
10803TIP3    H132366   3.393   6.847   3.092  0.3042 -0.0700  1.0647
10803TIP3    H232367   3.246   6.827   3.121  0.2207 -0.8606  0.1488
10804TIP3   OH232368   6.121   6.016   1.015 -0.3322 -0.4125  0.3026
10804TIP3    H132369   6.099   6.105   1.040 -2.3094 -1.1254  1.2826
10804TIP3    H232370   6.110   5.964   1.095  2.3891 -1.3442  0.1868
10805TIP3   OH232371   2.618   2.553   5.082  0.2991  0.2003  0.3415
10805TIP3    H132372   2.630   2.640   5.121  0.5984  0.4703 -0.3411
10805TIP3    H232373   2.528   2.530   5.104  0.1204  0.8121  0.2746
10806TIP3   OH232374   0.484   2.758   2.103 -0.3395  0.1266  0.8276
10806TIP3    H132375   0.463   2.758   2.010  1.1301  0.6699  0.4649
10806TIP3    H232376   0.455   2.673   2.135 -2.0095  0.4090  0.1743
10807TIP3   OH232377   1.992   3.268   2.838 -0.1968  0.3173  0.7151
10807TIP3    H132378   1.991   3.174   2.853  0.0299  0.3238  0.7713
10807TIP3    H232379   1.918   3.301   2.890  0.4960  0.3232  1.7396
10808TIP3   OH232380   4.747   4.466   5.755 -0.2637 -0.5217  0.0278
10808TIP3    H132381   4.790   4.403   5.812  0.6735 -0.8091 -0.9707
10808TIP3    H232382   4.656   4.469   5.787 -0.4028 -2.5646 -0.0511
10809TIP3   OH232383   6.436   2.971   5.077 -0.4754  0.2328  0.1125
10809TIP3    H132384   6.461   2.882   5.056 -1.4924 -0.0928  0.2393
10809TIP3    H232385   6.368   2.962   5.143  0.4859  1.1478  1.2816
10810TIP3   OH232386   2.536   3.713   1.368 -0.1987 -0.5078 -0.5409
10810TIP3    H132387   2.581   3.781   1.318  0.5936 -0.8669 -0.3255
10810TIP3    H232388   2.464   3.759   1.411 -0.3047 -0.0095 -1.2272
10811TIP3   OH232389   6.659   4.111   1.876  0.6429  0.1435  0.1145
10811TIP3    H132390   6.619   4.198   1.878 -0.8454 -0.4685 -0.9097
10811TIP3    H232391   6.638   4.073   1.961 -0.7013 -0.0101 -0.2488
10812TIP3   OH232392   5.989   4.098   5.992 -0.1623  0.1065 -0.3372
10812TIP3    H132393   6.020   4.167   6.050 -0.0098 -0.9902  0.9332
10812TIP3    H232394   6.039   4.110   5.911  2.7302 -0.8258  1.1782
10813TIP3   OH232395   5.262   3.404   5.295  0.9939 -0.4260 -0.2736
10813TIP3    H132396   5.261   3.321   5.249  1.4893 -0.9954  0.7128
10813TIP3    H232397   5.249   3.381   5.387  0.9793  0.5966 -0.0053
10814TIP3   OH232398   0.630   3.044   2.797  0.7464 -0.1894 -0.2385
10814TIP3    H132399   0.561   2.980   2.776  0.4604  0.0958 -0.1861
10814TIP3    H232400   0.692   3.036   2.725  0.2653  0.0910 -0.6963
10815TIP3   OH232401   6.504   4.975   6.545 -0.2015 -0.2024 -0.2770
10815TIP3    H132402   6.541   4.910   6.486 -1.9627  2.4074 -4.7045
10815TIP3    H232403   6.421   4.937   6.574  0.0953 -1.0314 -0.4983
10816TIP3   OH232404   4.315   4.491   5.601  0.1753  0.2872 -0.1183
10816TIP3    H132405   4.291   4.575   5.561 -1.8224 -0.9868 -1.7541
10816TIP3    H232406   4.250   4.477   5.669 -1.0692 -1.0460 -1.5184
10817TIP3   OH232407   0.045   3.069   4.383  0.2252  0.4797  0.8044
10817TIP3    H132408   0.060   2.987   4.431 -0.4020  0.8016  1.5618
10817TIP3    H232409   0.133   3.097   4.356  0.2910 -2.6742 -3.3499
10818TIP3   OH232410   6.700   6.259   6.142 -0.5848  0.4104 -0.0720
10818TIP3    H132411   6.778   6.246   6.088 -0.4042  0.0629  0.2624
10818TIP3    H232412   6.642   6.313   6.088 -1.3253 -1.6995 -1.4955
10819TIP3   OH232413   7.360   1.477   3.544  0.0730  0.1851 -0.4437
10819TIP3    H132414   7.283   1.527   3.572 -1.2151 -1.5334 -0.7145
10819TIP3    H232415   7.393   1.525   3.468 -0.8343  0.8843 -0.4216
10820TIP3   OH232416   7.434   1.080   3.728 -0.3209 -0.5925 -0.2037
10820TIP3    H132417   7.396   1.107   3.644  0.6798  1.9014  0.0567
10820TIP3    H232418   7.517   1.039   3.704  0.2938  0.7347 -0.4675
10821TIP3   OH232419   4.717   2.138   4.445  0.0998 -1.0148 -0.8073
10821TIP3    H132420   4.621   2.134   4.452  0.1117 -1.4769 -0.8714
10821TIP3    H232421   4.738   2.229   4.464 -0.3951 -0.7972 -1.2567
10822TIP3   OH232422   6.985   4.831   4.740 -0.4104  0.1214  0.1531
10822TIP3    H132423   6.891   4.826   4.724 -0.3704  1.5845 -0.7392
10822TIP3    H232424   7.002   4.765   4.807 -2.4447  1.3720  2.0110
10823TIP3   OH232425   8.042   1.861   3.754 -0.5921 -0.6357  0.2654
10823TIP3    H132426   8.054   1.949   3.718 -1.0703 -1.1442 -1.2209
10823TIP3    H232427   7.967   1.870   3.813  0.2995  0.2498  1.3255
10824TIP3   OH232428   4.491   5.835   2.841 -0.3222 -0.1755 -0.0486
10824TIP3    H132429   4.419   5.895   2.855 -0.0536 -0.2968  2.0947
10824TIP3    H232430   4.453   5.748   2.854  0.1130 -0.2601  0.6812
10825TIP3   OH232431   1.015   1.457   6.725  0.1439 -0.3025  0.0729
10825TIP3    H132432   0.994   1.517   6.797  3.1491 -0.5503  1.2605
10825TIP3    H232433   0.966   1.377   6.745 -0.0662  0.0782  1.1156
10826TIP3   OH232434   5.248   6.036   2.954 -0.1281 -0.2918  0.2739
10826TIP3    H132435   5.162   5.996   2.953 -1.9385  3.1897  0.9777
10826TIP3    H232436   5.272   6.040   3.047 -0.1544  0.5026  0.2553
10827TIP3   OH232437   6.330   1.170   3.143  0.6231  0.0378 -0.0669
10827TIP3    H132438   6.384   1.108   3.094 -1.0944 -0.8985 -0.8950
10827TIP3    H232439   6.295   1.229   3.076  0.2850  0.3530  0.3796
10828TIP3   OH232440   5.986   0.909   2.317 -0.0835 -0.0367 -0.1896
10828TIP3    H132441   5.955   0.984   2.368  1.0965 -1.0187  2.1255
10828TIP3    H232442   5.954   0.832   2.365  1.8113 -1.0204 -0.4057
10829TIP3   OH232443   4.415   5.485   2.017  0.2646  0.0913  0.4781
10829TIP3    H132444   4.421   5.573   2.054 -0.5199  1.0235 -1.4416
10829TIP3    H232445   4.502   5.468   1.981  1.3326 -1.2211  3.3937
10830TIP3   OH232446   2.703   6.763   5.647  0.6052 -0.2978 -0.3200
10830TIP3    H132447   2.754   6.794   5.722 -0.5894  1.0327 -0.0244
10830TIP3    H232448   2.693   6.840   5.591  0.2467 -0.9347 -1.1457
10831TIP3   OH232449   6.823   6.608   4.239 -0.2392 -0.1004  0.2139
10831TIP3    H132450   6.770   6.540   4.281 -0.4885  1.6429  2.9704
10831TIP3    H232451   6.913   6.585   4.263 -0.2159 -0.1475  0.0800
10832TIP3   OH232452   4.408   0.527   1.699  0.4491 -0.4694  0.8197
10832TIP3    H132453   4.378   0.555   1.612  2.5603 -0.6420 -0.0359
10832TIP3    H232454   4.328   0.515   1.750 -0.9812 -2.0158 -1.5945
10833TIP3   OH232455   4.518   7.415   2.312 -0.2515  0.0915  0.6251
10833TIP3    H132456   4.598   7.363   2.312  0.1128  0.6333  0.0091
10833TIP3    H232457   4.539   7.491   2.257 -1.1422  0.3051  0.5680
10834TIP3   OH232458   1.763   4.300   3.632  0.0499  0.2855 -0.0845
10834TIP3    H132459   1.824   4.241   3.586 -1.3640 -1.2077 -0.1442
10834TIP3    H232460   1.807   4.385   3.631  1.2643 -0.2913 -1.8475
10835TIP3   OH232461   2.454   4.562   0.417  0.0088  0.1331 -0.4938
10835TIP3    H132462   2.480   4.488   0.362 -1.2514 -1.7675  1.2980
10835TIP3    H232463   2.359   4.563   0.412  0.0330  2.1646 -1.0771
10836TIP3   OH232464   0.448   2.789   2.721  0.0936 -0.8822  0.1557
10836TIP3    H132465   0.363   2.830   2.734  0.5084  1.3639 -3.1693
10836TIP3    H232466   0.427   2.698   2.701 -1.6929 -0.1161 -1.8040
10837TIP3   OH232467   4.309   5.934   6.222  0.1036  1.3258  0.2297
10837TIP3    H132468   4.268   5.886   6.293 -0.0028  0.8201 -0.1727
10837TIP3    H232469   4.241   5.943   6.156  0.7135  0.2193 -0.5706
10838TIP3   OH232470   5.684   5.373   0.423 -0.4461 -0.6861  0.0475
10838TIP3    H132471   5.660   5.462   0.449  0.5691 -0.1064 -0.9356
10838TIP3    H232472   5.628   5.354   0.348  0.6925 -0.0915 -0.9920
10839TIP3   OH232473   7.557   6.820   0.774 -0.0208 -0.2376  0.2608
10839TIP3    H132474   7.599   6.851   0.694 -2.6573  1.3413 -0.6615
10839TIP3    H232475   7.519   6.899   0.812 -1.6258 -1.4532  1.2910
10840TIP3   OH232476   7.341   2.478   3.196  0.2238 -0.1121 -0.2074
10840TIP3    H132477   7.354   2.521   3.281  1.7326  0.2834 -0.6042
10840TIP3    H232478   7.345   2.549   3.132 -0.7512 -0.4266 -0.6357
10841TIP3   OH232479   6.349   2.533   1.313  0.4971 -0.1289  0.2515
10841TIP3    H132480   6.423   2.528   1.373 -0.4423  0.6586  1.5412
10841TIP3    H232481   6.317   2.443   1.306  0.8967 -0.2957  0.5689
10842TIP3   OH232482   7.033   1.322   3.219 -0.3914 -0.1112  0.0134
10842TIP3    H132483   6.986   1.389   3.170  0.8079  0.3541 -0.5568
10842TIP3    H232484   7.124   1.353   3.220  0.1910 -1.7241 -0.2464
10843TIP3   OH232485   2.740   5.508   0.833 -0.2598  0.0567 -0.1219
10843TIP3    H132486   2.826   5.507   0.875 -0.6354  0.4744  0.6706
10843TIP3    H232487   2.678   5.521   0.905 -0.9027  1.0737 -0.8327
10844TIP3   OH232488   7.937   4.935   3.240 -0.1624  0.2804  0.5419
10844TIP3    H132489   7.861   4.983   3.273  0.2403  2.0255 -0.8989
10844TIP3    H232490   7.927   4.937   3.144  1.4687  0.1842  0.3381
10845TIP3   OH232491   7.555   1.741   6.564 -0.4127  0.3154  0.2260
10845TIP3    H132492   7.650   1.750   6.572 -0.5454  0.8017  1.5491
10845TIP3    H232493   7.533   1.785   6.482  0.7983 -2.3652 -1.6723
10846TIP3   OH232494   1.784   6.451   6.050  0.0296 -0.3828 -0.1834
10846TIP3    H132495   1.819   6.495   6.128  0.5978 -1.0807 -0.0259
10846TIP3    H232496   1.725   6.384   6.084 -1.7243  0.9686 -0.4635
10847TIP3   OH232497   3.839   4.358   3.314 -0.0207  0.5414 -0.1200
10847TIP3    H132498   3.770   4.415   3.347  0.0633  0.1215  0.7867
10847TIP3    H232499   3.792   4.291   3.263 -0.5365 -0.9987  2.2259
10848TIP3   OH232500   4.091   4.155   6.353 -0.0134  0.3108  0.0765
10848TIP3    H132501   4.107   4.085   6.415  0.1280  0.1232 -0.1694
10848TIP3    H232502   4.033   4.116   6.287 -0.5758  0.6580  0.3649
10849TIP3   OH232503   2.383   5.031   3.829  0.0044  0.5162 -0.0912
10849TIP3    H132504   2.443   5.025   3.754  0.4252 -0.9452  0.3481
10849TIP3    H232505   2.354   4.942   3.844 -0.6058  0.8969  1.0846
10850TIP3   OH232506   1.228   1.383   3.132  0.8205  0.6941 -0.0963
10850TIP3    H132507   1.167   1.387   3.058  0.9692  1.0052 -0.2027
10850TIP3    H232508   1.172   1.384   3.209  0.7220  2.5522 -0.1463
10851TIP3   OH232509   5.239   1.642   2.397  0.1630  0.5965 -0.0883
10851TIP3    H132510   5.305   1.628   2.329 -2.0176 -0.6557 -2.1203
10851TIP3    H232511   5.223   1.736   2.395  1.9266  0.9428  0.5413
10852TIP3   OH232512   1.581   1.137   0.554 -0.7385 -0.6219 -0.3186
10852TIP3    H132513   1.552   1.144   0.645 -0.1789 -0.1873 -0.1625
10852TIP3    H232514   1.649   1.205   0.545  1.4081 -2.6120 -0.2005
10853TIP3   OH232515   7.258   0.533   3.922  0.0201  0.4307  0.3149
10853TIP3    H132516   7.219   0.603   3.975  1.4500  1.3959  0.1576
10853TIP3    H232517   7.184   0.490   3.880 -1.1678 -0.2176  2.8675
10854TIP3   OH232518   2.452   4.411   6.725 -0.0580  0.0876  0.7535
10854TIP3    H132519   2.504   4.467   6.668 -0.3608 -0.0542  0.3347
10854TIP3    H232520   2.409   4.349   6.666 -1.1782  0.5782  1.0213
10855TIP3   OH232521   2.295   4.661   2.353 -0.4554  0.4776  0.4348
10855TIP3    H132522   2.203   4.645   2.372 -0.2400 -1.1195  0.2766
10855TIP3    H232523   2.341   4.587   2.394  0.6704  0.7883 -0.2235
10856TIP3   OH232524   1.919   1.082   4.921  0.4064 -0.5637  0.2672
10856TIP3    H132525   1.993   1.135   4.949  0.5665 -1.6162  1.9723
10856TIP3    H232526   1.844   1.120   4.965  0.3401 -1.0312  0.5665
10857TIP3   OH232527   4.813   3.665   2.731 -0.2339  0.7269 -0.1219
10857TIP3    H132528   4.834   3.584   2.779 -0.9017 -0.6474 -2.0382
10857TIP3    H232529   4.786   3.726   2.799  1.0639 -0.3853  1.4809
10858TIP3   OH232530   4.330   2.582   4.648  0.1963  0.0303 -0.0289
10858TIP3    H132531   4.425   2.575   4.645  0.1301 -1.6510  0.8485
10858TIP3    H232532   4.308   2.573   4.741 -0.8315  0.3586 -0.2275
10859TIP3   OH232533   0.182   6.522   2.400  0.2580 -0.4202 -0.1418
10859TIP3    H132534   0.202   6.452   2.338  1.1634 -0.2014 -0.1148
10859TIP3    H232535   0.265   6.569   2.410 -0.1784  0.2598  0.3349
10860TIP3   OH232536   3.417   7.244   1.202 -0.0700  0.4210  0.4205
10860TIP3    H132537   3.409   7.339   1.216 -1.2246  0.1409  1.8564
10860TIP3    H232538   3.423   7.235   1.107  2.0064  2.0449  0.3369
10861TIP3   OH232539   1.226   6.174   1.920 -0.6405  0.3182 -0.5351
10861TIP3    H132540   1.273   6.217   1.991 -0.7713 -0.6154  0.1439
10861TIP3    H232541   1.136   6.166   1.952 -0.2446 -2.1673  0.2451
10862TIP3   OH232542   7.270   3.608   6.528  0.3185  0.6276 -0.1344
10862TIP3    H132543   7.188   3.652   6.547  0.8088  1.3368  0.4240
10862TIP3    H232544   7.325   3.626   6.605  0.6592 -0.6656 -0.0539
10863TIP3   OH232545   0.421   3.519   2.407  0.4868 -0.0409 -0.0341
10863TIP3    H132546   0.459   3.469   2.335 -0.5693 -0.4352 -0.3338
10863TIP3    H232547   0.495   3.539   2.464  1.2179 -0.3549 -0.8522
10864TIP3   OH232548   1.098   7.407   5.618 -0.2083  0.0484 -0.4372
10864TIP3    H132549   1.135   7.319   5.624 -2.5808 -1.0756 -1.3846
10864TIP3    H232550   1.173   7.465   5.632  1.9707 -2.0727 -2.4640
10865TIP3   OH232551   4.980   3.807   4.153 -0.6284 -0.4074 -0.1797
10865TIP3    H132552   4.968   3.716   4.178  0.4133 -0.5055 -0.0044
10865TIP3    H232553   4.993   3.804   4.058  0.5388 -0.5709 -0.0266
10866TIP3   OH232554   1.969   0.732   0.274 -0.3547 -0.2614 -0.3742
10866TIP3    H132555   2.061   0.749   0.292 -0.3525 -0.9898  0.3721
10866TIP3    H232556   1.948   0.787   0.199  0.8659 -0.6008 -0.9760
10867TIP3   OH232557   0.670   6.889   1.387  0.4142  0.8990  0.2063
10867TIP3    H132558   0.612   6.938   1.445  0.9243  1.7719 -0.0037
10867TIP3    H232559   0.611   6.847   1.325 -0.0799  0.6235  0.8553
10868TIP3   OH232560   5.332   0.983   5.839  0.1052  0.0786  0.3096
10868TIP3    H132561   5.283   1.027   5.769  0.9111 -0.8407 -0.8705
10868TIP3    H232562   5.270   0.980   5.912 -0.0250  3.0346  0.4498
10869TIP3   OH232563   5.132   4.205   2.750 -0.3635 -0.3165 -0.0621
10869TIP3    H132564   5.123   4.223   2.657 -0.0947 -2.0132 -0.4411
10869TIP3    H232565   5.157   4.290   2.788  0.0894  0.2782 -1.6032
10870TIP3   OH232566   5.675   3.289   2.785 -0.0552  0.5440 -0.4198
10870TIP3    H132567   5.606   3.235   2.745  0.6436 -1.2309  0.6754
10870TIP3    H232568   5.724   3.324   2.710  0.0864 -1.1775 -1.1729
10871TIP3   OH232569   3.849   6.122   4.981 -0.1674 -0.3110  0.1984
10871TIP3    H132570   3.918   6.077   4.933  0.1021  0.6987 -0.3904
10871TIP3    H232571   3.790   6.154   4.913 -0.4723  0.0236  0.6170
10872TIP3   OH232572   7.334   0.186   5.100  0.1698  0.6479  0.2591
10872TIP3    H132573   7.406   0.187   5.037  0.4132 -1.2233  0.4304
10872TIP3    H232574   7.311   0.093   5.107 -1.4285  1.0827  1.1519
10873TIP3   OH232575   0.944   0.550   1.266  0.2662  0.6153 -0.1128
10873TIP3    H132576   0.912   0.617   1.206  1.1271  0.9362 -0.2254
10873TIP3    H232577   0.898   0.568   1.348 -1.8379 -0.5566 -0.9495
10874TIP3   OH232578   6.349   1.807   0.289  0.1912 -0.4068 -0.1064
10874TIP3    H132579   6.406   1.873   0.248  0.2497  0.0678  0.7237
10874TIP3    H232580   6.316   1.756   0.215  3.4195 -2.1736 -0.5565
10875TIP3   OH232581   4.601   3.050   2.064  0.1110 -1.0126  0.2792
10875TIP3    H132582   4.525   3.107   2.073  0.5567 -0.3104 -0.3322
10875TIP3    H232583   4.635   3.067   1.976  0.7327 -1.6199  0.3861
10876TIP3   OH232584   0.149   7.623   4.708 -0.1344 -0.1067  0.0103
10876TIP3    H132585   0.162   7.578   4.792 -0.5116 -1.8478 -0.8185
10876TIP3    H232586   0.068   7.672   4.720 -1.4090 -2.0814  0.0344
10877TIP3   OH232587   2.895   4.459   3.278 -0.0826  0.0841  0.7200
10877TIP3    H132588   2.852   4.492   3.199 -0.4219 -0.8162  0.5119
10877TIP3    H232589   2.826   4.456   3.343  0.1318  0.5470  0.9710
10878TIP3   OH232590   2.766   7.798   6.040 -0.0426 -0.5290 -0.3251
10878TIP3    H132591   2.801   7.796   6.129 -0.0259 -2.7789 -0.3321
10878TIP3    H232592   2.825   7.742   5.990 -0.3363  0.3160 -1.6589
10879TIP3   OH232593   3.318   5.619   6.204  0.1205  0.2439  0.0084
10879TIP3    H132594   3.277   5.676   6.138 -1.0295 -1.6592 -1.0353
10879TIP3    H232595   3.364   5.679   6.263 -0.7931  2.2026 -1.1616
10880TIP3   OH232596   5.236   2.485   4.228 -0.9512  0.3847  0.2910
10880TIP3    H132597   5.310   2.482   4.289  1.7176 -1.6072 -2.7084
10880TIP3    H232598   5.203   2.395   4.226 -1.4915  0.5919 -0.6605
10881TIP3   OH232599   8.161   1.914   5.449  0.1996  0.1298  0.0509
10881TIP3    H132600   8.175   2.006   5.425 -0.2856  0.8719  2.3091
10881TIP3    H232601   8.217   1.901   5.526 -0.4908 -1.1809  0.3621
10882TIP3   OH232602   1.774   2.444   2.145  0.2954 -0.1881  0.2249
10882TIP3    H132603   1.688   2.434   2.103  0.3747 -0.3913  0.1119
10882TIP3    H232604   1.754   2.485   2.230 -0.1241 -1.9871  1.0280
10883TIP3   OH232605   6.308   6.396   4.699 -0.1534  0.3029  0.1977
10883TIP3    H132606   6.397   6.412   4.665 -0.6258  0.7378 -0.8934
10883TIP3    H232607   6.320   6.328   4.765  1.1430  1.1119  0.8549
10884TIP3   OH232608   4.545   0.833   3.512  0.3872 -0.1382  0.2751
10884TIP3    H132609   4.560   0.924   3.536  0.7834 -0.6628  2.1364
10884TIP3    H232610   4.622   0.786   3.545 -0.1010 -1.2490 -0.0976
10885TIP3   OH232611   4.193   5.328   6.666  0.0484  0.3151  0.6515
10885TIP3    H132612   4.259   5.337   6.735  0.3544  1.3878  0.2422
10885TIP3    H232613   4.243   5.337   6.585 -0.2677 -1.1750  0.2652
10886TIP3   OH232614   4.980   2.591   4.393  0.1530 -0.4232  0.1569
10886TIP3    H132615   5.036   2.669   4.387 -0.6126  0.1546  0.3731
10886TIP3    H232616   5.036   2.520   4.362  0.6587  0.3105 -0.6888
10887TIP3   OH232617   2.942   7.223   5.824  0.1093  0.3479  0.0660
10887TIP3    H132618   2.855   7.183   5.833  0.6893 -1.2045 -0.8663
10887TIP3    H232619   2.998   7.153   5.791  1.5164  1.5668 -0.2754
10888TIP3   OH232620   0.355   0.578   5.073  0.1525  0.1692 -0.7772
10888TIP3    H132621   0.363   0.542   5.161  0.4234  1.5383 -0.2163
10888TIP3    H232622   0.444   0.584   5.041  0.3612  2.2841 -0.0067
10889TIP3   OH232623   2.991   3.669   6.506  0.1178  0.3508  0.2754
10889TIP3    H132624   2.994   3.758   6.543 -0.2311  0.7668 -0.6531
10889TIP3    H232625   3.053   3.619   6.558 -0.6300  0.8117  1.6655
10890TIP3   OH232626   8.098   2.198   6.695  0.4552 -0.1618 -0.0983
10890TIP3    H132627   8.006   2.176   6.709  0.6025 -0.3194  0.6358
10890TIP3    H232628   8.131   2.221   6.782  0.9319  0.5706 -0.4657
10891TIP3   OH232629   3.897   7.243   0.688  0.0411  0.7179  0.3163
10891TIP3    H132630   3.932   7.277   0.606  0.9595 -0.0505  0.3803
10891TIP3    H232631   3.803   7.256   0.681  0.0287 -0.0619 -1.1889
10892TIP3   OH232632   3.100   4.213   6.267 -0.4682  0.3561 -0.0060
10892TIP3    H132633   3.106   4.240   6.359 -1.5597  0.2138  0.1216
10892TIP3    H232634   3.046   4.135   6.268 -1.5014  1.0245 -0.8857
10893TIP3   OH232635   0.391   4.694   1.092  0.1386 -0.3260  0.0148
10893TIP3    H132636   0.412   4.755   1.161  2.1816  0.7549 -1.4604
10893TIP3    H232637   0.464   4.631   1.092 -0.7868 -1.4361  0.0367
10894TIP3   OH232638   0.662   3.446   5.653 -0.3549 -0.3516  0.1723
10894TIP3    H132639   0.676   3.508   5.582 -1.2471 -1.9203 -1.4455
10894TIP3    H232640   0.728   3.469   5.718  0.2229  1.3954 -0.9652
10895TIP3   OH232641   7.329   0.500   4.952 -0.3010  0.0596 -0.4919
10895TIP3    H132642   7.294   0.505   4.863  0.9820  1.9099 -0.9603
10895TIP3    H232643   7.387   0.577   4.959  0.8530 -0.9103  1.4049
10896TIP3   OH232644   2.527   3.766   1.687 -0.2872 -0.6385 -0.5767
10896TIP3    H132645   2.613   3.731   1.663  0.5293  0.9509 -0.1715
10896TIP3    H232646   2.472   3.689   1.701  1.3051 -1.7271 -0.0092
10897TIP3   OH232647   1.564   5.503   6.533  0.0462 -0.2116  0.3376
10897TIP3    H132648   1.591   5.542   6.450  1.0215  1.0601  1.2007
10897TIP3    H232649   1.627   5.432   6.548  1.0975  0.8066  0.8930
10898TIP3   OH232650   5.352   5.000   4.378 -0.2779 -0.3978  0.4142
10898TIP3    H132651   5.261   5.029   4.378 -0.3713 -0.6806 -0.2054
10898TIP3    H232652   5.374   4.988   4.285  0.3549 -0.4302  0.5638
10899TIP3   OH232653   0.380   2.382   4.994  0.2615 -0.0415  0.2906
10899TIP3    H132654   0.328   2.418   4.922  0.8732  2.3397  0.9618
10899TIP3    H232655   0.319   2.373   5.066  0.1903 -0.0157  0.2337
10900TIP3   OH232656   7.144   7.749   2.664 -0.0368 -0.1949  0.0578
10900TIP3    H132657   7.141   7.826   2.608  0.4308 -0.1657  0.0699
10900TIP3    H232658   7.219   7.698   2.632  0.5800  0.0945  0.9936
10901TIP3   OH232659   5.506   4.573   2.095 -0.5134  0.5226  0.0958
10901TIP3    H132660   5.481   4.608   2.180  0.7551 -0.1180  0.7540
10901TIP3    H232661   5.590   4.615   2.076 -0.6861  0.5004 -0.7497
10902TIP3   OH232662   5.775   7.726   0.119  0.1349  0.1483 -0.3984
10902TIP3    H132663   5.756   7.771   0.202  0.0763  0.2534 -0.4680
10902TIP3    H232664   5.769   7.633   0.140  1.0968  0.1524 -0.0491
10903TIP3   OH232665   5.385   6.540   1.788  0.8338 -0.2409 -0.3496
10903TIP3    H132666   5.292   6.520   1.801  0.5350  0.9996 -0.4087
10903TIP3    H232667   5.428   6.510   1.868  0.4481 -1.1316 -0.4568
10904TIP3   OH232668   7.662   7.421   1.783  0.2034 -0.2367 -0.6952
10904TIP3    H132669   7.691   7.423   1.691  2.5634  1.4458  0.0067
10904TIP3    H232670   7.705   7.345   1.820  0.1158 -0.2905 -0.7029
10905TIP3   OH232671   6.580   1.098   2.105 -0.0881  0.3220 -0.1898
10905TIP3    H132672   6.667   1.067   2.130 -0.0579  1.4858  1.3357
10905TIP3    H232673   6.593   1.192   2.090 -1.4184  0.9663  2.1572
10906TIP3   OH232674   4.266   0.279   2.986  0.4031 -0.0931 -0.0395
10906TIP3    H132675   4.342   0.270   3.044 -0.0940  1.1339  0.8501
10906TIP3    H232676   4.230   0.191   2.981  0.2505 -0.1840  1.8437
10907TIP3   OH232677   3.359   6.394   0.949 -0.0517 -0.6552 -0.2320
10907TIP3    H132678   3.425   6.457   0.976  0.9624 -1.5399 -0.6033
10907TIP3    H232679   3.355   6.331   1.021 -0.3095 -0.7506 -0.3282
10908TIP3   OH232680   7.326   5.390   6.443  0.1316  0.2353 -0.0589
10908TIP3    H132681   7.265   5.450   6.401 -0.6000 -0.0452  0.5939
10908TIP3    H232682   7.372   5.443   6.508 -1.0043 -0.0357  1.0069
10909TIP3   OH232683   3.691   3.196   2.942  0.4643  0.2991 -0.1325
10909TIP3    H132684   3.624   3.244   2.991  0.5529  0.8232 -0.5117
10909TIP3    H232685   3.661   3.105   2.942  0.9184  0.1214  1.6538
10910TIP3   OH232686   3.592   5.381   2.469 -0.0961 -0.6452 -0.5961
10910TIP3    H132687   3.666   5.358   2.413  0.3527 -0.9917  0.1293
10910TIP3    H232688   3.601   5.325   2.546 -1.7468 -1.5060 -0.9815
10911TIP3   OH232689   3.435   2.057   6.142 -0.1722  0.3261 -0.1879
10911TIP3    H132690   3.365   1.990   6.142  2.6880 -2.9517 -1.5570
10911TIP3    H232691   3.443   2.084   6.051 -0.4984  1.7400  0.1784
10912TIP3   OH232692   4.638   2.420   3.003 -0.3250  0.2375  0.5422
10912TIP3    H132693   4.546   2.425   2.979 -0.3705 -0.3539  0.5845
10912TIP3    H232694   4.685   2.433   2.921 -0.4744 -1.3763  0.1805
10913TIP3   OH232695   0.439   2.329   3.243 -0.6173  0.1003 -0.0393
10913TIP3    H132696   0.506   2.387   3.206  1.1878 -1.0826  1.2519
10913TIP3    H232697   0.465   2.241   3.215 -1.6024 -0.3903  0.5457
10914TIP3   OH232698   4.497   6.258   3.488 -0.7917  0.1061 -0.2105
10914TIP3    H132699   4.441   6.239   3.563 -1.7758 -2.1943 -1.4195
10914TIP3    H232700   4.441   6.242   3.412  0.6443  0.7191 -1.4551
10915TIP3   OH232701   4.909   7.530   6.019 -0.3628 -0.1717 -0.2904
10915TIP3    H132702   4.985   7.485   5.981 -1.4069 -0.9600 -1.5058
10915TIP3    H232703   4.861   7.461   6.065 -2.5537 -0.6840 -3.0617
10916TIP3   OH232704   8.276   0.820   0.088 -0.6149  0.1778 -0.0263
10916TIP3    H132705   8.181   0.808   0.085 -0.7338  1.0956 -0.0356
10916TIP3    H232706   8.301   0.835  -0.004 -0.6035  0.9855  0.1066
10917TIP3   OH232707   2.768   7.793   1.109 -0.7836 -0.2524  0.0414
10917TIP3    H132708   2.753   7.808   1.016 -1.2564 -0.4610  0.0833
10917TIP3    H232709   2.864   7.788   1.118 -0.7758 -2.1491 -0.7187
10918TIP3   OH232710   5.440   1.100   6.147 -0.7195  0.0188 -0.0522
10918TIP3    H132711   5.504   1.049   6.196  0.5212  0.0544 -1.5709
10918TIP3    H232712   5.487   1.177   6.117 -0.9841 -0.6703 -2.4581
10919TIP3   OH232713   0.793   1.997   5.441  0.6378 -0.2658 -0.0520
10919TIP3    H132714   0.772   1.994   5.348 -1.2603 -1.1378  0.3677
10919TIP3    H232715   0.854   1.924   5.454  0.7477 -0.2706 -0.5736
10920TIP3   OH232716   4.140   2.620   4.928  0.0698  0.4935 -0.0476
10920TIP3    H132717   4.078   2.571   4.983 -1.5885 -0.8096 -2.8714
10920TIP3    H232718   4.226   2.598   4.964 -0.8798 -0.9015  1.5452
10921TIP3   OH232719   5.608   3.222   4.564 -0.4063 -0.7532  0.3773
10921TIP3    H132720   5.594   3.131   4.592  2.5433 -1.0146  1.3238
10921TIP3    H232721   5.648   3.214   4.477 -1.1740 -0.2780 -0.0322
10922TIP3   OH232722   7.088   5.521   0.301  0.2977 -0.1411  0.0456
10922TIP3    H132723   7.099   5.608   0.263  0.1314  1.0832  2.6143
10922TIP3    H232724   7.039   5.535   0.382  1.4698 -2.4239  1.2632
10923TIP3   OH232725   6.774   0.512   0.140 -0.1562 -0.5181  0.8498
10923TIP3    H132726   6.812   0.504   0.053 -1.3211 -0.6660  0.3466
10923TIP3    H232727   6.779   0.423   0.176 -2.4814 -1.1679 -0.2779
10924TIP3   OH232728   1.433   4.918   4.379  0.5924 -0.4623  0.3020
10924TIP3    H132729   1.422   4.955   4.467  0.6864 -2.3054  1.1482
10924TIP3    H232730   1.481   4.836   4.394  0.1544 -1.0669 -1.4162
10925TIP3   OH232731   0.177   1.925   3.428  0.0811  0.4299 -0.2127
10925TIP3    H132732   0.203   1.857   3.366 -0.1120  0.0730  0.0967
10925TIP3    H232733   0.180   1.883   3.514 -1.8923  0.2452 -0.1909
10926TIP3   OH232734   2.187   3.130   3.818  0.1262  0.2377  0.4641
10926TIP3    H132735   2.257   3.193   3.808  1.3529 -0.9639  1.1364
10926TIP3    H232736   2.144   3.155   3.900  2.1658 -1.1665  2.0712
10927TIP3   OH232737   5.873   5.427   5.686  0.1655  0.0974  0.6577
10927TIP3    H132738   5.793   5.473   5.661  0.8466  1.1386  0.3148
10927TIP3    H232739   5.845   5.337   5.701 -1.1023  0.4794  0.7353
10928TIP3   OH232740   7.664   4.012   5.900 -0.2798 -0.0735  0.0051
10928TIP3    H132741   7.671   4.029   5.806  2.6284  3.1822  0.5890
10928TIP3    H232742   7.639   4.097   5.938 -0.9093 -1.1646  2.2043
10929TIP3   OH232743   6.984   7.202   4.961 -0.4477 -0.0860 -0.5675
10929TIP3    H132744   6.916   7.247   5.011 -0.6187  0.6064 -1.4080
10929TIP3    H232745   7.040   7.272   4.927  1.2262 -0.6670  0.8256
10930TIP3   OH232746   1.424   2.186   3.753  0.2187  0.8848 -0.0106
10930TIP3    H132747   1.443   2.249   3.823  0.5649 -0.4228  1.1085
10930TIP3    H232748   1.471   2.107   3.778 -0.2728  0.1307 -1.3518
10931TIP3   OH232749   4.132   4.462   5.819  0.0667 -0.1091 -0.1136
10931TIP3    H132750   4.048   4.491   5.855  0.4248 -0.4175  1.0379
10931TIP3    H232751   4.184   4.438   5.897  0.9010 -0.7728 -0.8520
10932TIP3   OH232752   8.146   6.325   2.154  0.2409  0.3748 -0.9255
10932TIP3    H132753   8.073   6.273   2.187  0.9700 -0.6628 -0.8777
10932TIP3    H232754   8.201   6.262   2.107  0.4583  1.3752 -2.0594
10933TIP3   OH232755   7.437   3.415   5.501  0.1775  0.5836  0.3002
10933TIP3    H132756   7.422   3.320   5.500  1.2335  0.3870 -1.5054
10933TIP3    H232757   7.374   3.449   5.565 -2.3120 -0.9722 -1.1800
10934TIP3   OH232758   5.204   3.179   2.031  0.2166  0.4665 -0.0899
10934TIP3    H132759   5.216   3.245   2.100 -1.7237  0.1695  0.5959
10934TIP3    H232760   5.123   3.204   1.988 -0.4816 -1.3675  0.0779
10935TIP3   OH232761   1.632   3.464   6.271  0.3302  0.3331 -0.2533
10935TIP3    H132762   1.713   3.505   6.240 -0.5774  0.7550 -2.2276
10935TIP3    H232763   1.631   3.378   6.230  0.6737 -0.4308  1.3005
10936TIP3   OH232764   6.507   0.718   1.912  0.0544 -0.2827  0.3484
10936TIP3    H132765   6.568   0.649   1.937  0.9890  0.3323 -0.1842
10936TIP3    H232766   6.562   0.795   1.898 -0.6893  0.0085 -1.2127
10937TIP3   OH232767   7.426   1.840   2.877  0.2160 -0.3084  0.0038
10937TIP3    H132768   7.498   1.856   2.817  0.3451  0.4662  0.3510
10937TIP3    H232769   7.373   1.920   2.873  0.7767  0.1929  1.6564
10938TIP3   OH232770   6.509   2.325   6.503 -0.0681 -0.4886 -0.6704
10938TIP3    H132771   6.597   2.291   6.482 -0.0465  0.0451 -1.5089
10938TIP3    H232772   6.465   2.252   6.547  0.4553 -1.1177 -1.1613
10939TIP3   OH232773   7.617   1.111   0.482 -0.0402  0.1537 -0.5946
10939TIP3    H132774   7.671   1.190   0.476  0.4568 -0.2193 -1.1327
10939TIP3    H232775   7.571   1.108   0.398 -0.0883 -0.1031 -0.5593
10940TIP3   OH232776   3.878   2.055   1.849  0.0785 -0.5048  0.0391
10940TIP3    H132777   3.914   2.122   1.792  1.3608 -2.2651 -1.3095
10940TIP3    H232778   3.783   2.062   1.837  0.2874 -0.2471 -1.6238
10941TIP3   OH232779   1.666   2.158   1.531  0.2065  0.6065 -0.7744
10941TIP3    H132780   1.732   2.163   1.601 -0.1105  2.3945 -0.5543
10941TIP3    H232781   1.686   2.232   1.474 -0.2339 -0.1811 -1.9898
10942TIP3   OH232782   6.874   3.394   1.721 -0.3627 -0.0046  0.0917
10942TIP3    H132783   6.886   3.411   1.814  0.2070  0.6301 -0.0854
10942TIP3    H232784   6.959   3.363   1.691 -1.1832 -2.6703  0.2579
10943TIP3   OH232785   3.246   2.688   5.826  0.5391  0.8956 -0.0983
10943TIP3    H132786   3.250   2.670   5.920 -0.1985  1.3640  0.0278
10943TIP3    H232787   3.314   2.754   5.812  0.6275  0.8505  0.1133
10944TIP3   OH232788   1.715   4.061   4.332 -0.0253 -0.4817 -0.3435
10944TIP3    H132789   1.736   4.146   4.294  1.0377 -0.9488 -0.8556
10944TIP3    H232790   1.678   4.081   4.418 -2.9576  0.6271 -1.7190
10945TIP3   OH232791   2.948   6.406   2.700 -0.3838  0.3912 -0.1881
10945TIP3    H132792   3.034   6.414   2.660 -0.4250 -0.2069 -0.4131
10945TIP3    H232793   2.947   6.471   2.770  0.8216 -0.6455  0.8253
10946TIP3   OH232794   2.154   2.089   4.652 -0.3576  0.0327 -0.7317
10946TIP3    H132795   2.077   2.092   4.710 -1.0301 -0.4002 -1.5821
10946TIP3    H232796   2.145   2.007   4.604  1.4109 -0.7432  0.1607
10947TIP3   OH232797   8.157   3.045   5.889  0.2188 -0.3576 -0.2716
10947TIP3    H132798   8.201   3.003   5.815 -0.6847 -1.9337  0.0352
10947TIP3    H232799   8.213   3.026   5.964 -0.8041 -2.2013  0.0862
10948TIP3   OH232800   3.597   4.424   2.410  0.5652  0.3066  0.0785
10948TIP3    H132801   3.521   4.481   2.422  0.2420 -0.2838  0.9207
10948TIP3    H232802   3.666   4.463   2.464  0.9417  0.9455 -0.8276
10949TIP3   OH232803   5.311   3.687   5.842  0.6423 -0.4097  0.0830
10949TIP3    H132804   5.387   3.693   5.783  1.2946  0.2115  0.9569
10949TIP3    H232805   5.289   3.594   5.842 -0.1295 -0.2826 -2.0516
10950TIP3   OH232806   2.486   7.614   5.041 -0.6116 -0.2143  0.7252
10950TIP3    H132807   2.528   7.600   4.956  0.5396 -0.3609  1.2902
10950TIP3    H232808   2.395   7.589   5.027 -0.2093 -1.3073 -0.1877
10951TIP3   OH232809   2.084   4.729   3.740 -0.1732  0.5251  0.7969
10951TIP3    H132810   2.165   4.766   3.706 -1.3011  1.2704 -1.2418
10951TIP3    H232811   2.037   4.804   3.778 -0.7517  0.4733  0.1976
10952TIP3   OH232812   6.354   4.565   1.307 -0.0409  0.0206 -0.1528
10952TIP3    H132813   6.355   4.555   1.402  1.2976  1.1254 -0.0158
10952TIP3    H232814   6.375   4.658   1.293  1.7606 -0.5455 -1.5525
10953TIP3   OH232815   7.397   6.253   5.114  0.4602 -0.6537 -0.1097
10953TIP3    H132816   7.374   6.209   5.196  0.3083  0.0051  0.2017
10953TIP3    H232817   7.355   6.339   5.120  0.3041 -0.6597 -0.9500
10954TIP3   OH232818   6.493   0.449   1.303  0.0930 -0.7163 -0.1754
10954TIP3    H132819   6.522   0.410   1.386 -0.3565 -2.7814 -0.9278
10954TIP3    H232820   6.524   0.539   1.307  2.4470 -1.4874  1.0780
10955TIP3   OH232821   0.924   0.212   4.089 -0.2910  0.0200 -0.5313
10955TIP3    H132822   0.929   0.249   4.177 -0.5837 -2.0512  0.4160
10955TIP3    H232823   0.976   0.131   4.094 -1.4129 -0.8227 -1.8696
10956TIP3   OH232824   0.511   1.258   0.879  0.2972  0.0328 -0.1558
10956TIP3    H132825   0.518   1.331   0.940 -0.9388  0.2498 -0.2412
10956TIP3    H232826   0.569   1.191   0.914  1.2683  0.9646  0.0522
10957TIP3   OH232827   7.623   2.867   4.649 -0.0026  0.1101 -0.1062
10957TIP3    H132828   7.613   2.938   4.585  0.1468 -0.7063 -1.0716
10957TIP3    H232829   7.588   2.789   4.604 -1.2882 -0.2136  1.3741
10958TIP3   OH232830   3.169   7.356   2.288 -0.3155  0.1260 -0.5470
10958TIP3    H132831   3.162   7.261   2.297 -1.4504  0.2393 -0.0843
10958TIP3    H232832   3.261   7.371   2.269 -0.1649 -1.0860 -0.8703
10959TIP3   OH232833   7.609   3.636   4.150 -0.0063  0.0315 -0.1930
10959TIP3    H132834   7.615   3.732   4.157  1.9916 -0.1476  1.6211
10959TIP3    H232835   7.698   3.608   4.126 -1.0226 -1.3104 -2.8352
10960TIP3   OH232836   8.171   4.156   4.831  0.6562  0.3160 -0.7243
10960TIP3    H132837   8.249   4.202   4.800 -0.3565  1.9878 -0.9204
10960TIP3    H232838   8.120   4.224   4.876 -0.9348 -0.5888 -1.0922
10961TIP3   OH232839   6.267   0.500   1.965  0.2605 -0.2375  0.1641
10961TIP3    H132840   6.260   0.478   1.872 -0.6286 -2.1385  0.6342
10961TIP3    H232841   6.332   0.438   1.999  0.0412 -0.0469  0.9372
10962TIP3   OH232842   5.852   4.674   3.209  0.6032  0.3027 -0.2182
10962TIP3    H132843   5.948   4.676   3.211  0.5988  0.3399  0.3489
10962TIP3    H232844   5.826   4.727   3.285  0.1742 -2.1526  1.4538
10963TIP3   OH232845   4.442   2.561   4.934 -0.1530  0.1604 -0.7950
10963TIP3    H132846   4.402   2.555   5.020  0.6080 -2.2706 -0.5319
10963TIP3    H232847   4.524   2.608   4.948 -0.7699  1.1794 -0.5207
10964TIP3   OH232848   4.933   6.287   0.700 -0.3569  0.0107  0.0146
10964TIP3    H132849   4.855   6.270   0.646  0.5617 -2.3375 -0.7086
10964TIP3    H232850   4.916   6.241   0.782 -1.0284  2.1742  1.1634
10965TIP3   OH232851   4.643   4.018   4.805  0.2837  0.3555 -0.2852
10965TIP3    H132852   4.726   4.001   4.760 -0.2724  0.7817 -1.5148
10965TIP3    H232853   4.625   4.110   4.789  0.7033  0.8906  1.9568
10966TIP3   OH232854   0.709   3.148   1.099 -0.0107  0.4790  0.2965
10966TIP3    H132855   0.617   3.126   1.116  0.4701 -0.8979  1.3690
10966TIP3    H232856   0.710   3.243   1.089 -1.5030  0.5448  0.5166
10967TIP3   OH232857   1.613   2.846   5.377  0.1184 -0.2697 -0.4694
10967TIP3    H132858   1.534   2.896   5.399  0.2045  0.7151 -2.1863
10967TIP3    H232859   1.685   2.896   5.417 -0.0133 -0.5045  0.0704
10968TIP3   OH232860   4.610   2.574   6.410 -0.2488 -0.0180  0.5053
10968TIP3    H132861   4.576   2.519   6.481 -1.4831 -0.9582 -0.7723
10968TIP3    H232862   4.704   2.580   6.427 -0.5732  0.1782  2.4763
10969TIP3   OH232863   4.408   2.118   6.661  0.3204 -0.2582  0.2355
10969TIP3    H132864   4.391   2.118   6.567 -0.1355  1.2268  0.3050
10969TIP3    H232865   4.324   2.140   6.701  0.7165 -0.0224  0.9557
10970TIP3   OH232866   0.501   6.265   6.078  0.0007  0.3180  0.0102
10970TIP3    H132867   0.451   6.188   6.107 -1.0584  1.6201  1.8726
10970TIP3    H232868   0.502   6.258   5.983 -3.0840 -0.2474 -0.1029
10971TIP3   OH232869   5.691   2.241   0.247  0.3028  0.6042 -0.5815
10971TIP3    H132870   5.668   2.160   0.293 -0.6004 -0.2422 -2.4093
10971TIP3    H232871   5.771   2.219   0.198 -0.8354  0.2241 -2.3782
10972TIP3   OH232872   7.256   4.548   6.042  0.0849 -0.3438  0.0900
10972TIP3    H132873   7.167   4.517   6.056 -0.1031 -0.3792 -1.1112
10972TIP3    H232874   7.291   4.493   5.972 -0.3555  2.1878 -2.2883
10973TIP3   OH232875   6.466   0.993   1.268 -0.0836 -0.6192  0.0738
10973TIP3    H132876   6.498   1.043   1.193 -2.4503  1.3571  0.2326
10973TIP3    H232877   6.406   0.928   1.231  0.0674 -0.7824  0.1185
10974TIP3   OH232878   0.946   6.048   1.239  0.1644  0.6432 -0.4921
10974TIP3    H132879   0.998   6.037   1.319  0.0442 -0.3546 -0.5463
10974TIP3    H232880   0.856   6.057   1.271 -0.2197 -2.0902 -0.5724
10975TIP3   OH232881   2.505   7.815   6.340 -0.0918 -0.2439 -0.2760
10975TIP3    H132882   2.441   7.840   6.406  1.5316  0.8351  0.9767
10975TIP3    H232883   2.527   7.724   6.361  0.7988  0.2461  1.0798
10976TIP3   OH232884   3.162   6.028   4.120  0.2703  0.2074  0.3428
10976TIP3    H132885   3.228   6.071   4.174  2.8163 -1.0381 -1.5671
10976TIP3    H232886   3.210   5.998   4.043 -2.3300 -1.8105 -0.6377
10977TIP3   OH232887   1.689   1.721   5.769  0.1810 -0.1129  0.2203
10977TIP3    H132888   1.747   1.794   5.789 -0.5965  0.8846 -1.0321
10977TIP3    H232889   1.726   1.681   5.691 -1.0526  0.8529 -0.8974
10978TIP3   OH232890   5.871   0.288   0.504  0.1833 -0.0570  0.8056
10978TIP3    H132891   5.931   0.226   0.546  0.6928 -0.6015 -0.6253
10978TIP3    H232892   5.918   0.371   0.505 -0.1944  0.1533  2.0873
10979TIP3   OH232893   1.290   3.816   2.105  0.5778 -0.0028 -0.0941
10979TIP3    H132894   1.323   3.869   2.032  0.7223  1.0495  0.7099
10979TIP3    H232895   1.217   3.767   2.067  1.1255 -0.0325 -1.1290
10980TIP3   OH232896   7.409   2.447   5.688  0.3651  0.2314  0.4469
10980TIP3    H132897   7.364   2.506   5.628  1.9106  1.0247  0.0115
10980TIP3    H232898   7.460   2.390   5.630  1.0250  0.2911  0.9606
10981TIP3   OH232899   1.143   2.998   0.084  0.4105  0.7929 -0.3199
10981TIP3    H132900   1.117   3.074   0.136  1.1193  0.5541  0.4045
10981TIP3    H232901   1.207   2.952   0.138 -2.0477 -1.9420  0.5620
10982TIP3   OH232902   8.279   2.787   6.338  0.9051  0.0642  0.2860
10982TIP3    H132903   8.308   2.696   6.349  1.2981 -0.2496 -2.6598
10982TIP3    H232904   8.188   2.780   6.313  1.0176  0.4735 -0.2414
10983TIP3   OH232905   7.698   4.412   0.045  0.1320 -0.2481 -0.2009
10983TIP3    H132906   7.626   4.408   0.108  1.0980  1.6864  1.1267
10983TIP3    H232907   7.742   4.328   0.054  0.6653  0.2301  2.2928
10984TIP3   OH232908   2.601   4.904   0.554 -0.7527 -0.0290  0.2820
10984TIP3    H132909   2.584   4.818   0.595 -1.5153  0.4996  1.1277
10984TIP3    H232910   2.598   4.966   0.627 -2.1337  0.9490 -0.5484
10985TIP3   OH232911   2.080   4.851   5.324 -0.1716 -0.2342 -0.0320
10985TIP3    H132912   2.062   4.939   5.358 -0.3105 -1.0063  2.0829
10985TIP3    H232913   2.013   4.837   5.257  1.1202  2.0083 -1.9592
10986TIP3   OH232914   4.327   6.641   3.627 -0.7246 -0.4158 -0.4348
10986TIP3    H132915   4.394   6.579   3.597  0.3719 -0.5284  1.9873
10986TIP3    H232916   4.359   6.726   3.599 -0.4066 -0.6126 -0.6821
10987TIP3   OH232917   2.101   4.533   2.617  0.0910  0.6365 -0.5147
10987TIP3    H132918   2.169   4.596   2.639  0.1156  0.3493  0.2669
10987TIP3    H232919   2.018   4.581   2.629  0.1254  0.6982 -0.5235
10988TIP3   OH232920   7.307   7.761   4.338  0.1017 -0.4367  0.5784
10988TIP3    H132921   7.325   7.835   4.280 -1.7497 -0.3684  0.0547
10988TIP3    H232922   7.282   7.690   4.279  0.6129 -1.1139  1.1639
10989TIP3   OH232923   7.955   6.739   2.530 -0.0037  0.3473  0.5304
10989TIP3    H132924   8.020   6.796   2.489 -0.3869  0.5396  0.1785
10989TIP3    H232925   7.939   6.670   2.465  0.3212 -0.0670  0.8789
10990TIP3   OH232926   4.457   1.018   0.722 -0.6737 -0.1824  0.6295
10990TIP3    H132927   4.479   1.033   0.814  1.5049 -0.7532  0.2562
10990TIP3    H232928   4.450   0.923   0.714 -0.7790 -0.1390  0.1909
10991TIP3   OH232929   6.603   5.396   3.011 -0.1023 -0.0957 -0.3992
10991TIP3    H132930   6.596   5.488   3.036 -2.1589 -0.1487 -0.5967
10991TIP3    H232931   6.679   5.392   2.953  1.3484  1.0452  1.3153
10992TIP3   OH232932   3.668   6.841   4.306  0.2246  0.1781  0.1713
10992TIP3    H132933   3.712   6.866   4.388 -0.5208 -0.7636  0.8815
10992TIP3    H232934   3.675   6.919   4.251  1.5681  0.5203  0.7737
10993TIP3   OH232935   7.486   4.849   0.090 -0.1932  0.1057  0.2889
10993TIP3    H132936   7.518   4.767   0.125 -1.9435 -1.0690 -0.6861
10993TIP3    H232937   7.493   4.911   0.162  0.2196 -1.1498  1.3593
10994TIP3   OH232938   4.296   6.684   5.770 -0.4798 -0.1076  0.2600
10994TIP3    H132939   4.252   6.764   5.800 -0.5788 -0.2130  0.3974
10994TIP3    H232940   4.259   6.615   5.824 -1.6684 -0.5188 -1.0101
10995TIP3   OH232941   2.740   7.261   4.863  0.0771 -0.2877  0.3333
10995TIP3    H132942   2.810   7.217   4.815 -0.0909 -0.5207  0.3014
10995TIP3    H232943   2.727   7.208   4.941 -0.1455 -0.3122  0.2812
10996TIP3   OH232944   4.531   4.212   1.213 -0.3041 -0.0917  0.3946
10996TIP3    H132945   4.499   4.136   1.262  0.1568  0.1336  1.0615
10996TIP3    H232946   4.607   4.242   1.263 -1.1778  1.5254  0.7991
10997TIP3   OH232947   7.267   3.290   4.080  0.4323 -0.0715  0.2182
10997TIP3    H132948   7.276   3.225   4.150  0.8938  0.8686  1.0787
10997TIP3    H232949   7.347   3.342   4.086  1.6824 -1.4327 -2.6417
10998TIP3   OH232950   0.307   5.427   5.593 -0.0885 -0.0866 -0.2079
10998TIP3    H132951   0.330   5.396   5.681  0.6190  0.2276 -0.2745
10998TIP3    H232952   0.250   5.502   5.608  1.2438  0.9192  0.0309
10999TIP3   OH232953   7.616   1.010   5.939  0.2670  0.0322  0.8795
10999TIP3    H132954   7.689   1.024   5.999  0.5697  0.5101  0.3976
10999TIP3    H232955   7.645   1.046   5.856  0.6791 -2.4958 -0.1641
11000TIP3   OH232956   6.482   1.054   0.198 -0.5054  0.4188  0.3562
11000TIP3    H132957   6.559   1.065   0.143 -0.8272  0.7732 -0.0317
11000TIP3    H232958   6.420   1.006   0.143 -0.5205  0.0249  0.7086
11001TIP3   OH232959   1.543   0.777   4.293 -0.0292  0.3331  0.2556
11001TIP3    H132960   1.529   0.693   4.248 -1.1551  0.3767  0.4959
11001TIP3    H232961   1.638   0.784   4.301  0.0871 -0.9553  0.2884
11002TIP3   OH232962   2.140   6.783   5.541 -0.2356  0.2223  0.0752
11002TIP3    H132963   2.052   6.751   5.523 -0.8254  1.3841  0.8153
11002TIP3    H232964   2.146   6.866   5.493  0.2175  0.4818  0.5785
11003TIP3   OH232965   0.798   3.220   2.929 -0.3958 -0.0994  0.1748
11003TIP3    H132966   0.870   3.255   2.877 -1.0469  1.0998  0.0253
11003TIP3    H232967   0.740   3.180   2.864 -0.4251 -0.0272  0.1558
11004TIP3   OH232968   2.869   2.698   3.311  0.7278  0.0921  0.3732
11004TIP3    H132969   2.779   2.715   3.283  0.2440 -1.0548  1.1526
11004TIP3    H232970   2.923   2.742   3.245 -0.3741  2.4255  0.9259
11005TIP3   OH232971   3.691   4.350   1.840 -0.3996 -0.4815  0.0134
11005TIP3    H132972   3.636   4.384   1.769  0.2961 -0.8904 -0.7400
11005TIP3    H232973   3.636   4.285   1.884 -1.2394  0.5748  0.5861
11006TIP3   OH232974   1.644   4.568   5.535 -0.2458 -0.4608  0.7682
11006TIP3    H132975   1.562   4.609   5.510 -0.7705 -1.5561  0.6272
11006TIP3    H232976   1.619   4.500   5.598 -0.1994 -4.1906 -2.7804
11007TIP3   OH232977   7.062   6.108   5.675 -0.7205 -0.2402  0.0210
11007TIP3    H132978   7.112   6.188   5.657 -0.5231 -0.1657  0.8889
11007TIP3    H232979   7.002   6.101   5.600 -0.6507  0.6461 -0.1334
11008TIP3   OH232980   5.589   6.583   2.108 -0.2038 -0.5124 -0.0545
11008TIP3    H132981   5.610   6.497   2.070 -3.4599 -2.6659  2.4073
11008TIP3    H232982   5.643   6.587   2.187 -1.6018 -1.4469  1.0066
11009TIP3   OH232983   0.936   7.335   2.429 -0.1618  0.0952  0.1403
11009TIP3    H132984   0.873   7.391   2.384 -0.4336 -1.7040 -1.8614
11009TIP3    H232985   1.021   7.357   2.391  0.1178  0.8540  1.1489
11010TIP3   OH232986   5.309   5.087   2.406  0.5682  0.5281  0.2216
11010TIP3    H132987   5.261   5.159   2.365  2.5483  0.0887 -3.2552
11010TIP3    H232988   5.330   5.028   2.334  1.6220 -2.0616  2.4596
11011TIP3   OH232989   3.405   6.903   5.041  0.3309  0.6668 -0.3296
11011TIP3    H132990   3.444   6.929   4.957 -0.9233 -1.0655 -1.5241
11011TIP3    H232991   3.315   6.934   5.036 -0.1706 -0.7094 -0.2867
11012TIP3   OH232992   1.636   6.988   5.652 -0.0181  0.0790 -0.2933
11012TIP3    H132993   1.628   6.905   5.605 -2.1830  1.0234 -1.7900
11012TIP3    H232994   1.690   7.042   5.595 -2.0549  0.9882 -1.4963
11013TIP3   OH232995   2.429   3.167   5.748  0.2620 -0.2493 -0.6989
11013TIP3    H132996   2.496   3.099   5.748  0.8626  0.2894  0.8736
11013TIP3    H232997   2.469   3.241   5.794 -1.2131  0.2678 -0.1599
11014TIP3   OH232998   5.265   5.350   0.965  0.3513 -0.4982 -0.0590
11014TIP3    H132999   5.243   5.294   1.040  3.0145 -0.6422  0.7203
11014TIP3    H233000   5.361   5.347   0.960  0.4036  1.5933 -1.8862
11015TIP3   OH233001   3.801   2.178   6.744 -0.4195 -0.3277  0.3714
11015TIP3    H133002   3.754   2.152   6.823 -1.0282 -1.4987 -0.3353
11015TIP3    H233003   3.759   2.127   6.674  0.1718  0.5974 -0.6876
11016TIP3   OH233004   1.160   1.303   2.614 -0.2342 -0.2049  0.0173
11016TIP3    H133005   1.255   1.299   2.601 -0.2621  0.4448 -0.4336
11016TIP3    H233006   1.125   1.326   2.528 -1.0783 -3.3799 -0.6355
11017TIP3   OH233007   6.966   2.306   3.650  0.1627  0.2143  0.3834
11017TIP3    H133008   6.977   2.361   3.728 -0.6108 -0.8443  1.2894
11017TIP3    H233009   7.050   2.311   3.605  0.4045  1.4016  0.9137
11018TIP3   OH233010   6.055   2.756   4.989 -0.1052  0.2205  0.4811
11018TIP3    H133011   5.976   2.703   4.992 -1.2160  1.6795 -1.1569
11018TIP3    H233012   6.122   2.697   4.954 -0.7564 -0.7166  0.7941
11019TIP3   OH233013   1.558   4.718   5.010 -0.1870 -0.2562  0.3340
11019TIP3    H133014   1.608   4.665   5.071 -1.4412 -0.9419  0.8184
11019TIP3    H233015   1.503   4.654   4.963 -0.4521  0.4386 -0.3292
11020TIP3   OH233016   7.669   7.220   5.290  0.1416 -0.4874 -0.2745
11020TIP3    H133017   7.641   7.170   5.214  0.8857 -0.4402 -0.5886
11020TIP3    H233018   7.745   7.172   5.324  0.6711  0.2474 -0.3970
11021TIP3   OH233019   4.345   2.709   2.302 -0.3809 -0.0873 -0.1843
11021TIP3    H133020   4.335   2.750   2.388  2.3457  0.3454  0.0160
11021TIP3    H233021   4.356   2.782   2.242 -0.2545 -0.4263 -0.5773
11022TIP3   OH233022   1.858   3.621   5.253 -0.4017 -0.8091 -0.0923
11022TIP3    H133023   1.858   3.710   5.220  1.2948 -1.1196 -1.0545
11022TIP3    H233024   1.766   3.597   5.259 -0.8487  0.6919 -0.6595
11023TIP3   OH233025   7.064   7.141   0.796  0.5053  0.0463 -0.9577
11023TIP3    H133026   7.042   7.050   0.813  2.4129 -0.1214  1.1679
11023TIP3    H233027   7.105   7.140   0.709  1.3378 -1.2867 -0.5731
11024TIP3   OH233028   4.736   1.679   2.351  0.6724  0.0226  0.1901
11024TIP3    H133029   4.813   1.718   2.391  0.6023  1.0602 -0.6270
11024TIP3    H233030   4.697   1.625   2.420  0.3206  2.0377  1.6551
11025TIP3   OH233031   3.417   1.488   4.503 -0.4302  0.0830 -0.7947
11025TIP3    H133032   3.400   1.491   4.597  3.2192  0.3479  0.0136
11025TIP3    H233033   3.336   1.520   4.463 -1.5302  1.6943  2.3474
11026TIP3   OH233034   7.881   2.152   3.616 -0.1013  0.0365 -0.0281
11026TIP3    H133035   7.879   2.121   3.526  0.6396 -1.1644  0.3369
11026TIP3    H233036   7.791   2.181   3.634 -0.1267  0.7799 -1.2944
11027TIP3   OH233037   3.586   4.890   5.682  0.1549  0.0689  0.5477
11027TIP3    H133038   3.530   4.901   5.759  1.4369  0.6181  1.4433
11027TIP3    H233039   3.643   4.967   5.683 -0.1507  0.3611 -1.2763
11028TIP3   OH233040   1.896   3.553   2.881 -0.0348 -0.4967 -0.1889
11028TIP3    H133041   1.944   3.530   2.960 -1.3830 -0.8102  0.5757
11028TIP3    H233042   1.906   3.647   2.873 -0.1284 -0.4245  0.5241
11029TIP3   OH233043   4.049   4.753   1.436 -0.5264  0.2526 -0.9348
11029TIP3    H133044   3.987   4.680   1.428 -0.3437  0.0663 -0.6711
11029TIP3    H233045   4.124   4.727   1.383 -0.1081 -0.1352 -0.1713
11030TIP3   OH233046   4.097   1.534   1.660 -0.8747 -0.4242  0.0721
11030TIP3    H133047   4.188   1.528   1.689 -0.6416 -1.7606 -0.8383
11030TIP3    H233048   4.076   1.627   1.665  0.0570 -0.2661  1.7070
11031TIP3   OH233049   5.643   6.797   1.500  0.3134  0.5165  0.1516
11031TIP3    H133050   5.619   6.832   1.585  0.2704  1.5179 -0.2614
11031TIP3    H233051   5.567   6.815   1.444  1.3675  2.3542 -0.7800
11032TIP3   OH233052   6.791   7.108   2.910 -0.0324  0.6832  0.0861
11032TIP3    H133053   6.711   7.061   2.934  0.8059 -0.3021  1.1113
11032TIP3    H233054   6.787   7.190   2.961 -1.2037  1.4795 -1.2300
11033TIP3   OH233055   1.080   4.598   4.547 -0.2765 -0.0690  0.5991
11033TIP3    H133056   1.035   4.523   4.510  0.8651 -1.0723  1.1928
11033TIP3    H233057   1.064   4.669   4.484 -1.6415 -0.7023  0.2066
11034TIP3   OH233058   3.648   7.056   3.096  0.2672 -0.2815  0.1200
11034TIP3    H133059   3.591   7.084   3.024 -0.5591 -1.6618  0.2031
11034TIP3    H233060   3.622   7.111   3.170 -0.0983 -0.0548 -0.1733
11035TIP3   OH233061   1.759   4.355   3.951  0.3260  0.1552 -0.1156
11035TIP3    H133062   1.780   4.367   3.858  1.5861 -0.0915  0.1183
11035TIP3    H233063   1.705   4.432   3.972 -0.5176 -0.1095 -1.1869
11036TIP3   OH233064   0.116   5.428   1.518 -0.8653  0.1555 -0.6456
11036TIP3    H133065   0.146   5.518   1.531 -0.2460  0.0402 -1.2001
11036TIP3    H233066   0.139   5.382   1.599  0.9628 -0.0489 -1.2333
11037TIP3   OH233067   4.075   7.226   2.424 -0.0891 -0.0851 -0.3715
11037TIP3    H133068   3.988   7.213   2.385 -1.0339 -0.1564  1.6253
11037TIP3    H233069   4.109   7.137   2.437 -0.1919 -0.0927 -0.1531
11038TIP3   OH233070   5.356   6.894   3.037  0.2792  0.0370  0.2612
11038TIP3    H133071   5.435   6.867   2.991  1.5864  2.6262  0.8145
11038TIP3    H233072   5.306   6.944   2.972  0.7232  1.1965  0.7777
11039TIP3   OH233073   0.577   2.743   2.459  0.6156  0.0190 -0.3395
11039TIP3    H133074   0.551   2.756   2.551  1.6416 -0.3053  0.0126
11039TIP3    H233075   0.506   2.782   2.408 -0.7985 -1.2756  0.5620
11040TIP3   OH233076   1.138   5.459   0.505 -0.0913  0.6227 -0.0848
11040TIP3    H133077   1.168   5.414   0.426 -0.7619 -1.5043  0.7904
11040TIP3    H233078   1.118   5.548   0.476 -1.4345 -0.3964 -2.5844
11041TIP3   OH233079   7.977   3.617   0.754  0.3305  0.0277  0.5937
11041TIP3    H133080   7.894   3.574   0.776  1.1986 -1.1200  1.8064
11041TIP3    H233081   7.990   3.598   0.661  0.1998 -1.5181  0.8646
11042TIP3   OH233082   8.024   2.863   4.622 -0.0531 -0.5007  0.1072
11042TIP3    H133083   7.961   2.934   4.633  1.5362  1.5855 -2.7024
11042TIP3    H233084   7.975   2.794   4.577 -1.3592 -0.7875  1.9121
11043TIP3   OH233085   3.159   0.655   1.770 -0.1779  0.1977  0.2795
11043TIP3    H133086   3.193   0.638   1.682 -1.6550  0.5919 -0.4039
11043TIP3    H233087   3.209   0.729   1.802  0.3814  0.0410 -0.2298
11044TIP3   OH233088   1.279   4.462   0.243  0.5070  0.1263  0.0775
11044TIP3    H133089   1.214   4.462   0.173 -1.4866 -0.1682  1.8216
11044TIP3    H233090   1.291   4.369   0.263  0.6363  0.2276  0.4724
11045TIP3   OH233091   0.038   2.533   5.666 -0.5543  0.1930 -0.6509
11045TIP3    H133092  -0.044   2.504   5.707 -0.6916  1.3646 -0.0484
11045TIP3    H233093   0.103   2.526   5.735  0.2293 -2.1509 -1.5261
11046TIP3   OH233094   2.853   5.104   5.899  0.6693  0.0621  0.0513
11046TIP3    H133095   2.808   5.162   5.838 -0.7451 -2.5540 -1.5941
11046TIP3    H233096   2.945   5.106   5.871  0.6650  1.5086  0.0850
11047TIP3   OH233097   5.873   2.732   0.254 -0.3561  0.5196 -0.0668
11047TIP3    H133098   5.866   2.720   0.349  0.5021  0.5369  0.0094
11047TIP3    H233099   5.908   2.820   0.243  1.6518 -0.2296 -0.2798
11048TIP3   OH233100   0.272   5.519   4.322  0.1894  0.2209 -0.5573
11048TIP3    H133101   0.180   5.494   4.322 -0.1349  1.3546 -0.8122
11048TIP3    H233102   0.302   5.499   4.233  0.5184 -1.2373 -0.1410
11049TIP3   OH233103   1.897   0.078   1.517 -0.1475  0.0844 -0.0105
11049TIP3    H133104   1.928  -0.012   1.507 -0.6747 -0.0623 -0.3971
11049TIP3    H233105   1.803   0.069   1.533  0.1174  0.4653  2.1524
11050TIP3   OH233106   6.542   5.050   3.447  0.4390 -0.1099  0.5401
11050TIP3    H133107   6.467   4.994   3.426  0.9164 -1.2611  1.7632
11050TIP3    H233108   6.545   5.113   3.375 -1.1826 -0.5541  0.0242
11051TIP3   OH233109   6.390   5.859   2.811  0.1572  0.1629 -0.2594
11051TIP3    H133110   6.395   5.809   2.892 -0.0409 -0.3382 -0.5548
11051TIP3    H233111   6.473   5.842   2.766 -0.9063 -1.9836 -1.5582
11052TIP3   OH233112   1.643   1.149   5.912  0.7558 -0.5638  0.1344
11052TIP3    H133113   1.713   1.084   5.908  0.7966 -0.7804  2.6741
11052TIP3    H233114   1.685   1.232   5.890  2.1578 -0.5089  2.6627
11053TIP3   OH233115   4.181   4.563   2.690 -0.9204 -0.3482 -0.0256
11053TIP3    H133116   4.088   4.548   2.707 -1.0627 -1.8793 -1.8115
11053TIP3    H233117   4.182   4.612   2.607 -0.1302  0.6575  0.5496
11054TIP3   OH233118   4.107   4.745   5.725  0.4571 -0.2844  0.0755
11054TIP3    H133119   4.181   4.734   5.785 -0.7714 -0.3527  1.6623
11054TIP3    H233120   4.147   4.760   5.640  2.3041  0.1794  0.9659
11055TIP3   OH233121   5.726   5.210   4.132 -0.0512  0.0283  0.4604
11055TIP3    H133122   5.750   5.260   4.055 -0.9698 -1.4829 -0.8801
11055TIP3    H233123   5.630   5.209   4.131 -0.0624 -0.9455  0.9844
11056TIP3   OH233124   4.639   4.465   2.542 -0.5772 -0.3612 -0.1030
11056TIP3    H133125   4.723   4.422   2.560 -1.0275 -1.1643  0.1128
11056TIP3    H233126   4.589   4.401   2.493 -1.3187 -0.1373  0.3456
11057TIP3   OH233127   3.984   4.100   5.310 -0.3294  0.3675  0.3171
11057TIP3    H133128   4.025   4.044   5.244  1.2518  1.1824  0.5569
11057TIP3    H233129   3.943   4.038   5.372  1.4055 -0.5612  0.6019
11058TIP3   OH233130   4.031   4.694   3.150  0.0063 -0.3190  0.2344
11058TIP3    H133131   3.942   4.690   3.184  0.3339 -1.6902  1.0039
11058TIP3    H233132   4.087   4.684   3.227  0.7721 -2.3353 -0.4989
11059TIP3   OH233133   3.848   1.325   6.048 -0.1397  0.3477  0.1886
11059TIP3    H133134   3.943   1.328   6.034 -0.3734  0.8402 -1.4501
11059TIP3    H233135   3.838   1.276   6.129  1.4202 -1.7577 -0.8018
11060TIP3   OH233136   1.479   3.682   3.729 -0.4620 -0.7162 -0.0972
11060TIP3    H133137   1.480   3.747   3.799  0.6321 -0.1036 -0.6588
11060TIP3    H233138   1.562   3.695   3.683 -0.7983 -1.6596 -1.0030
11061TIP3   OH233139   3.963   0.154   1.143  0.0355  0.2005 -0.3498
11061TIP3    H133140   4.058   0.152   1.129 -0.2458 -1.5691 -2.6825
11061TIP3    H233141   3.929   0.200   1.066 -1.0392  0.3540  0.2046
11062TIP3   OH233142   7.925   0.718   2.920  0.4994  0.7858  0.3589
11062TIP3    H133143   7.834   0.707   2.892  0.5195 -0.3117  0.6742
11062TIP3    H233144   7.974   0.728   2.838  0.2864 -0.2310  0.0930
11063TIP3   OH233145   0.426   1.513   5.351 -0.6854 -0.2270 -0.2198
11063TIP3    H133146   0.447   1.605   5.368 -1.6877  0.2249 -1.3456
11063TIP3    H233147   0.445   1.469   5.434  0.5541  0.8528  0.0966
11064TIP3   OH233148   5.173   4.431   0.586 -0.2278  0.0548 -0.1571
11064TIP3    H133149   5.160   4.342   0.555  0.9632 -0.6953  1.3757
11064TIP3    H233150   5.166   4.425   0.681  2.7135  1.0043  0.2282
11065TIP3   OH233151   0.182   4.315   3.246 -0.1658 -0.1419 -0.1081
11065TIP3    H133152   0.192   4.225   3.217  0.8046 -0.7937  2.0216
11065TIP3    H233153   0.108   4.312   3.307 -1.1941  0.8715 -1.2337
11066TIP3   OH233154   0.404   4.318   1.937  0.4098 -0.1733 -0.3484
11066TIP3    H133155   0.438   4.406   1.950 -0.6787  0.1227  0.6784
11066TIP3    H233156   0.480   4.267   1.909  2.0755  0.1706  3.0081
11067TIP3   OH233157   3.988   4.055   2.830 -0.1184 -0.0804 -0.3855
11067TIP3    H133158   4.029   4.017   2.907 -0.4424  0.3412  0.0024
11067TIP3    H233159   4.039   4.022   2.756  2.2569  2.0266  0.1516
11068TIP3   OH233160   3.702   1.013   2.246 -0.0101 -0.0858  0.0121
11068TIP3    H133161   3.725   1.095   2.289 -0.6706  0.5282 -0.7727
11068TIP3    H233162   3.633   0.976   2.301  0.2688 -0.0951  0.3537
11069TIP3   OH233163   6.171   3.516   2.020 -0.5140  0.8381  0.2353
11069TIP3    H133164   6.211   3.579   1.960 -2.5120  1.5407 -0.4432
11069TIP3    H233165   6.173   3.433   1.973 -0.4815  1.0243 -0.0943
11070TIP3   OH233166   5.905   3.867   5.807 -0.0629 -0.3016 -0.6561
11070TIP3    H133167   5.959   3.861   5.728  0.8813 -1.1437  0.0166
11070TIP3    H233168   5.949   3.933   5.861 -0.4884 -0.0042 -0.6690
11071TIP3   OH233169   5.384   1.820   2.002 -0.3387  0.2197  0.1722
11071TIP3    H133170   5.417   1.854   1.919  0.5760  0.6186  0.6844
11071TIP3    H233171   5.378   1.897   2.059  0.7971 -0.3049  1.0373
11072TIP3   OH233172   6.957   1.329   5.291  0.1141 -0.0870 -0.1280
11072TIP3    H133173   6.945   1.422   5.308  0.0554  0.0710 -1.0044
11072TIP3    H233174   6.871   1.290   5.309  0.1702  0.0002  0.3556
11073TIP3   OH233175   6.529   6.945   6.299  0.3507 -0.4231  0.4514
11073TIP3    H133176   6.456   6.949   6.238 -0.8702 -1.0845  1.8155
11073TIP3    H233177   6.570   7.032   6.293 -0.9427  0.1825  0.1389
11074TIP3   OH233178   6.496   0.830   3.881  0.0124  0.4202  0.0589
11074TIP3    H133179   6.560   0.758   3.886 -1.8305 -1.3124 -0.1848
11074TIP3    H233180   6.506   0.864   3.792  0.5434  0.1348 -0.0009
11075TIP3   OH233181   3.737   7.554   0.677  0.0816  0.7229 -0.6894
11075TIP3    H133182   3.669   7.548   0.610  1.4996  0.5365 -2.1690
11075TIP3    H233183   3.818   7.532   0.631  1.2491  1.5969  0.8587
11076TIP3   OH233184   0.487   6.156   4.960 -0.0437  0.3308  0.3661
11076TIP3    H133185   0.477   6.214   4.885 -0.2175 -1.4746 -1.0632
11076TIP3    H233186   0.398   6.135   4.987 -0.0601 -1.3123 -0.8166
11077TIP3   OH233187   2.069   3.741   3.911 -0.2094 -0.0386  0.7934
11077TIP3    H133188   2.079   3.678   3.839 -0.2653  1.0702 -0.2350
11077TIP3    H233189   2.006   3.702   3.970 -1.3635 -0.3076 -0.5732
11078TIP3   OH233190   0.807   0.420   5.509  0.5635  0.5120 -0.3307
11078TIP3    H133191   0.739   0.472   5.466  0.7658  0.1878 -1.0603
11078TIP3    H233192   0.768   0.333   5.516  0.2130  0.7522  0.9176
11079TIP3   OH233193   5.295   5.701   3.506  0.4627 -0.2327  0.4942
11079TIP3    H133194   5.291   5.796   3.490 -1.7427 -0.3736 -0.1501
11079TIP3    H233195   5.217   5.682   3.558  0.8429 -1.6976  0.5639
11080TIP3   OH233196   3.957   1.033   2.453  0.2508  0.8693  0.1258
11080TIP3    H133197   3.964   1.070   2.365  0.5489 -1.2364 -0.7759
11080TIP3    H233198   3.868   1.053   2.481  0.0709  1.3183 -0.7420
11081TIP3   OH233199   3.537   2.708   0.411 -0.1476  0.0715 -0.8831
11081TIP3    H133200   3.464   2.738   0.464 -0.8001 -0.6426 -1.3534
11081TIP3    H233201   3.608   2.693   0.473 -1.3064 -2.1028  0.0321
11082TIP3   OH233202   1.305   0.495   2.788  0.3994  0.5067 -0.2646
11082TIP3    H133203   1.316   0.402   2.767 -0.8774  0.6741 -1.9400
11082TIP3    H233204   1.210   0.509   2.781  0.4050  1.6390  1.4135
11083TIP3   OH233205   5.720   4.635   4.356 -0.1962  0.1357 -0.2589
11083TIP3    H133206   5.631   4.645   4.392 -0.0732 -0.2846  0.1739
11083TIP3    H233207   5.764   4.716   4.379 -0.6090  0.5451 -0.8917
11084TIP3   OH233208   2.133   1.894   2.953 -0.5429  0.5104  0.2514
11084TIP3    H133209   2.045   1.901   2.990 -0.5052 -1.1581  0.7103
11084TIP3    H233210   2.126   1.935   2.866 -1.9173 -0.1034  0.0525
11085TIP3   OH233211   6.067   1.465   3.643 -1.3221 -0.5487  0.7392
11085TIP3    H133212   6.005   1.396   3.618 -1.0472 -0.0092 -1.6463
11085TIP3    H233213   6.051   1.478   3.736 -3.4099 -1.8041  0.6288
11086TIP3   OH233214   6.901   3.184   0.246 -0.0930 -0.4150 -0.6763
11086TIP3    H133215   6.834   3.238   0.289  0.5596  0.6346 -0.9227
11086TIP3    H233216   6.974   3.182   0.309  0.7045  0.7803 -1.5120
11087TIP3   OH233217   4.210   1.378   4.284  0.4358 -0.0007 -0.5258
11087TIP3    H133218   4.125   1.346   4.253  1.3252  0.0129 -3.2568
11087TIP3    H233219   4.204   1.473   4.277 -0.6399  0.3754  3.2788
11088TIP3   OH233220   8.249   5.189   2.356  0.2901  0.3217 -0.1764
11088TIP3    H133221   8.175   5.172   2.298  1.1298  1.3204 -1.6126
11088TIP3    H233222   8.320   5.135   2.322  0.8087  0.9526 -0.1117
11089TIP3   OH233223   7.686   0.331   1.814  0.1293  0.1083  0.0657
11089TIP3    H133224   7.706   0.371   1.729  1.3795  1.2161  0.8516
11089TIP3    H233225   7.641   0.399   1.863 -3.3098 -1.4509 -0.6615
11090TIP3   OH233226   1.587   2.585   5.485  0.1748 -0.2675  0.2670
11090TIP3    H133227   1.513   2.572   5.427  0.1968 -2.4138  0.6503
11090TIP3    H233228   1.628   2.666   5.454 -0.8285 -0.4071 -1.5559
11091TIP3   OH233229   5.022  -0.004   1.889  0.8758  0.1984  0.2635
11091TIP3    H133230   5.081   0.069   1.906 -0.5870  1.7907 -1.0482
11091TIP3    H233231   4.934   0.035   1.893  0.0362 -1.5436 -0.2525
11092TIP3   OH233232   5.276   4.585   4.772  0.2206 -0.1830 -0.4803
11092TIP3    H133233   5.200   4.532   4.751 -0.0661 -0.3562  0.8633
11092TIP3    H233234   5.338   4.569   4.701 -0.3730 -1.2881 -0.7657
11093TIP3   OH233235   6.694   1.234   5.373 -0.3779 -0.0144 -0.0520
11093TIP3    H133236   6.629   1.287   5.326  0.5938  0.1705 -1.2464
11093TIP3    H233237   6.701   1.154   5.322  1.1982  0.4775 -0.6630
11094TIP3   OH233238   2.281   0.885   3.489 -0.0751 -0.1647  0.1227
11094TIP3    H133239   2.264   0.912   3.398  0.6249 -0.1625 -0.0132
11094TIP3    H233240   2.351   0.820   3.482  0.1808  0.0468  0.6827
11095TIP3   OH233241   4.076   5.258   5.707  0.2253  0.3221  0.1490
11095TIP3    H133242   4.133   5.310   5.650  1.0242 -1.1916 -0.5088
11095TIP3    H233243   3.988   5.274   5.674  0.5976  0.1538 -0.9560
11096TIP3   OH233244   7.221   2.069   4.233 -0.2114  0.4656  0.2572
11096TIP3    H133245   7.132   2.100   4.249 -0.9198 -0.9339 -0.7871
11096TIP3    H233246   7.265   2.078   4.318 -1.4059  0.9420  0.8552
11097TIP3   OH233247   6.958   7.748   0.518 -0.7978  0.4947  0.3885
11097TIP3    H133248   6.985   7.759   0.427  0.3072  0.1737  0.6660
11097TIP3    H233249   7.006   7.815   0.566 -2.1975  1.3830  0.6089
11098TIP3   OH233250   4.245   7.729   1.709 -0.0216 -0.2233  0.9560
11098TIP3    H133251   4.202   7.693   1.632 -0.8663  0.9740  0.8392
11098TIP3    H233252   4.321   7.776   1.674 -0.4709  0.4193  0.8306
11099TIP3   OH233253   7.070   7.009   5.167  0.3085 -0.6262  0.1044
11099TIP3    H133254   7.111   6.934   5.123 -2.1993 -1.8215 -0.3444
11099TIP3    H233255   7.023   7.055   5.097  0.6401  0.5675  0.6440
11100TIP3   OH233256   7.059   1.151   6.467  0.7969  0.5179  0.0481
11100TIP3    H133257   7.030   1.240   6.486 -1.0423 -0.6279  3.5465
11100TIP3    H233258   6.982   1.108   6.431  0.1059 -0.7445  2.7744
11101TIP3   OH233259   6.527   0.407   2.388 -0.2960 -0.2991  0.4307
11101TIP3    H133260   6.588   0.345   2.349  1.2714  0.9995  0.7180
11101TIP3    H233261   6.517   0.475   2.321  0.9143  0.9740  1.4825
11102TIP3   OH233262   1.445   7.253   6.444  0.3923  0.0739  0.0352
11102TIP3    H133263   1.377   7.199   6.405  0.9567 -0.5185 -0.1321
11102TIP3    H233264   1.438   7.236   6.538 -1.1307  1.6863  0.2855
11103TIP3   OH233265   5.952   6.705   4.604  0.3052  0.2946  0.4898
11103TIP3    H133266   5.899   6.640   4.649 -2.6641  1.5270 -0.9486
11103TIP3    H233267   5.951   6.781   4.661 -0.0961  0.5548  0.1406
11104TIP3   OH233268   2.339   0.408   0.284  0.2123  0.2407  0.3113
11104TIP3    H133269   2.349   0.414   0.189  3.2360 -1.3195  0.4233
11104TIP3    H233270   2.343   0.314   0.303 -2.7411  0.3066  1.8590
11105TIP3   OH233271   0.166   5.645   5.658 -0.0339 -0.0311  0.8156
11105TIP3    H133272   0.080   5.639   5.699  0.5512 -0.1303  2.0714
11105TIP3    H233273   0.166   5.729   5.612 -1.0198 -0.3297  0.2375
11106TIP3   OH233274   6.638   0.224   6.113 -0.0724 -0.2285 -0.0447
11106TIP3    H133275   6.608   0.274   6.189 -2.9952 -0.6072 -0.8247
11106TIP3    H233276   6.605   0.273   6.038 -0.3848 -1.6997 -0.9137
11107TIP3   OH233277   2.343   0.748   5.143 -0.0413 -0.3276 -0.3405
11107TIP3    H133278   2.351   0.731   5.237 -0.4363  0.0397 -0.2342
11107TIP3    H233279   2.254   0.780   5.132 -0.1646 -0.8341 -0.9181
11108TIP3   OH233280   7.809   0.177   1.468 -0.5507  0.1062  0.2602
11108TIP3    H133281   7.790   0.180   1.374 -2.4450  0.2822  0.5952
11108TIP3    H233282   7.904   0.170   1.473 -0.1919  2.3819 -1.6277
11109TIP3   OH233283   5.764   1.747   6.761  0.9898  0.0291  0.1026
11109TIP3    H133284   5.826   1.723   6.692 -0.5655 -0.3534 -1.2234
11109TIP3    H233285   5.680   1.709   6.733 -0.1958  1.7831  1.0557
11110TIP3   OH233286   1.758   3.208   4.587 -0.3321 -0.5146  0.1304
11110TIP3    H133287   1.826   3.169   4.642  1.2570  1.6790 -0.1286
11110TIP3    H233288   1.740   3.293   4.628 -1.6780 -0.3186 -0.8009
11111TIP3   OH233289   7.341   7.289   1.936 -0.1096  0.2809 -0.1557
11111TIP3    H133290   7.279   7.321   2.001  1.4878 -0.6435  1.9246
11111TIP3    H233291   7.391   7.366   1.910 -1.1751  0.7720 -0.8389
11112TIP3   OH233292   5.710   0.320   0.263 -0.4105 -0.0495 -0.5661
11112TIP3    H133293   5.742   0.380   0.195  0.0889 -0.2070 -0.4717
11112TIP3    H233294   5.785   0.305   0.320 -0.2620 -1.4747 -1.0934
11113TIP3   OH233295   6.467   3.628   1.157  0.4602  0.4531 -0.0524
11113TIP3    H133296   6.489   3.710   1.113 -0.7571 -0.1429 -1.8639
11113TIP3    H233297   6.495   3.560   1.096  2.3764 -0.5891  1.8425
11114TIP3   OH233298   3.925   1.025   4.744  0.4166  0.3130  0.3017
11114TIP3    H133299   4.001   0.969   4.727 -0.1699 -0.1139 -1.0248
11114TIP3    H233300   3.915   1.077   4.665  0.6378  1.9720  1.3121
11115TIP3   OH233301   3.204   3.230   2.121 -0.1040 -0.4080 -0.3327
11115TIP3    H133302   3.246   3.249   2.205  0.0400  1.8558 -0.8573
11115TIP3    H233303   3.147   3.155   2.139  0.6924 -0.6082  1.5276
11116TIP3   OH233304   5.438   1.348   5.558  0.3264 -0.0412 -0.0574
11116TIP3    H133305   5.464   1.441   5.558  0.0172  0.0590  1.2885
11116TIP3    H233306   5.497   1.306   5.620 -1.0768 -0.2722  1.1877
11117TIP3   OH233307   5.851   0.818   6.301 -0.1638  0.2435  0.3654
11117TIP3    H133308   5.934   0.795   6.343 -0.3412  0.3802  0.7961
11117TIP3    H233309   5.798   0.739   6.310  0.4375 -0.3832 -1.2633
11118TIP3   OH233310   2.273   1.865   1.917  0.1203  0.4477 -0.0734
11118TIP3    H133311   2.270   1.886   2.010 -0.8359  0.5851 -0.1282
11118TIP3    H233312   2.223   1.935   1.874  0.9995  0.6747 -0.7474
11119TIP3   OH233313   3.395   6.564   5.608 -0.9097 -0.3659 -0.1491
11119TIP3    H133314   3.416   6.479   5.569  1.2372  0.2406 -0.4396
11119TIP3    H233315   3.461   6.577   5.675 -0.2847  1.6832 -1.0687
11120TIP3   OH233316   7.977   1.684   3.093 -0.2699 -0.2693 -1.2134
11120TIP3    H133317   7.898   1.662   3.044 -0.1962 -1.2303 -0.9364
11120TIP3    H233318   7.994   1.606   3.146 -0.1716  0.6259  0.1074
11121TIP3   OH233319   6.214   2.091   3.968 -0.5172  0.2339 -0.4512
11121TIP3    H133320   6.294   2.142   3.977 -0.5243  0.1531  0.0854
11121TIP3    H233321   6.225   2.018   4.029  0.4507 -1.6471 -2.6869
11122TIP3   OH233322   3.310   1.497   2.022  0.5030 -0.6165  0.0321
11122TIP3    H133323   3.277   1.586   2.007 -0.6308 -0.9715  0.3486
11122TIP3    H233324   3.248   1.459   2.083  0.7413 -1.7854 -0.4422
11123TIP3   OH233325   4.496   3.024   3.583  0.6437  0.4747  0.0946
11123TIP3    H133326   4.490   3.009   3.489  1.0897  3.2668 -0.4557
11123TIP3    H233327   4.405   3.036   3.612  0.5883  0.8030 -0.2157
11124TIP3   OH233328   0.078   0.418   4.566  0.1656  0.4267 -0.1425
11124TIP3    H133329   0.106   0.453   4.651  0.3225 -0.8762  0.3709
11124TIP3    H233330   0.007   0.358   4.588 -0.3237  0.6667 -1.0305
11125TIP3   OH233331   2.523   0.347   1.892  0.5053  0.3011  0.0766
11125TIP3    H133332   2.439   0.370   1.852  0.6130  1.5968  0.5556
11125TIP3    H233333   2.505   0.266   1.940 -0.8622  1.3095  1.3575
11126TIP3   OH233334   5.662   4.701   1.627  0.3984  0.7439  0.1677
11126TIP3    H133335   5.751   4.733   1.614  0.3998  0.6333 -0.1253
11126TIP3    H233336   5.611   4.743   1.557  0.2654  0.6479  0.2063
11127TIP3   OH233337   6.763   2.361   4.027  0.0144 -0.0123  0.2361
11127TIP3    H133338   6.852   2.374   4.059  0.2162  0.8112 -0.5988
11127TIP3    H233339   6.761   2.408   3.943 -1.2670  0.1789  0.3545
11128TIP3   OH233340   7.517   7.012   1.463 -0.3572  0.1004 -0.0425
11128TIP3    H133341   7.478   7.024   1.550  0.5009  0.2164  0.3296
11128TIP3    H233342   7.441   7.005   1.405 -1.0016  2.9197  0.3005
11129TIP3   OH233343   3.801   5.866   1.111  0.3456  0.1961  0.9297
11129TIP3    H133344   3.817   5.806   1.038 -0.2034 -0.7094  1.5248
11129TIP3    H233345   3.828   5.816   1.188 -0.7552  0.4416  1.4997
11130TIP3   OH233346   6.254   3.078   4.700  0.4645 -0.1003 -0.1491
11130TIP3    H133347   6.178   3.112   4.748  0.7703 -0.0614  0.3192
11130TIP3    H233348   6.230   3.086   4.608  0.1109  0.4071 -0.0175
11131TIP3   OH233349   1.513   3.257   2.906  0.4342 -0.1076  0.5466
11131TIP3    H133350   1.507   3.197   2.980  0.4407  0.1791  0.7815
11131TIP3    H233351   1.543   3.340   2.944 -2.1524  0.8569  0.7156
11132TIP3   OH233352   5.855   7.486   4.056 -0.3284  0.2324  0.3779
11132TIP3    H133353   5.848   7.391   4.044 -0.9238  0.4910 -1.5714
11132TIP3    H233354   5.886   7.496   4.146 -0.1430 -1.8085  0.5871
11133TIP3   OH233355   6.242   0.819   1.157 -0.3429  0.2675 -0.3770
11133TIP3    H133356   6.204   0.902   1.131 -1.9346 -0.5393 -0.7596
11133TIP3    H233357   6.218   0.810   1.250 -0.3278  0.1476 -0.3845
11134TIP3   OH233358   1.270   4.152   5.479  0.4173 -0.3253  0.4816
11134TIP3    H133359   1.191   4.107   5.446 -0.7734  0.6270  1.9048
11134TIP3    H233360   1.237   4.234   5.515  2.4015  1.2096 -1.0144
11135TIP3   OH233361   3.036   7.758   0.726 -0.1848  0.3475  0.2829
11135TIP3    H133362   3.096   7.764   0.800 -1.8814 -0.6477  1.8346
11135TIP3    H233363   2.967   7.821   0.747 -0.0392  1.0156 -1.1483
11136TIP3   OH233364   3.148   6.278   4.905  0.3498  0.0717  0.2127
11136TIP3    H133365   3.231   6.290   4.951  0.3423  0.3121  0.1663
11136TIP3    H233366   3.098   6.217   4.960  0.1643  0.6978  0.7567
11137TIP3   OH233367   1.623   1.956   6.435  0.2547 -0.2903  0.4637
11137TIP3    H133368   1.602   2.002   6.354 -0.2682 -0.9889  0.1921
11137TIP3    H233369   1.675   2.019   6.485  0.8427  0.0440 -0.5331
11138TIP3   OH233370   0.290   0.814   4.542  0.0743 -0.2552 -0.1321
11138TIP3    H133371   0.228   0.843   4.475 -0.6213 -0.0594  0.5688
11138TIP3    H233372   0.256   0.729   4.570  0.3866 -0.3573 -0.0645
11139TIP3   OH233373   7.640   7.211   0.632  0.3214 -0.2986  0.6356
11139TIP3    H133374   7.640   7.266   0.711 -1.0756 -0.9226  1.0982
11139TIP3    H233375   7.641   7.272   0.559  2.1348  0.2943  1.0986
11140TIP3   OH233376   4.195   4.313   5.358 -0.0780  0.6770  0.3050
11140TIP3    H133377   4.117   4.260   5.340 -0.0166  0.8496 -0.5186
11140TIP3    H233378   4.201   4.316   5.454 -1.0450  0.6179  0.3741
11141TIP3   OH233379   4.755   2.293   0.929 -0.1069  1.2088 -0.2880
11141TIP3    H133380   4.666   2.286   0.895 -0.3375 -0.7249  0.6031
11141TIP3    H233381   4.750   2.255   1.016  1.4074  1.9646  0.1507
11142TIP3   OH233382   5.773   2.422   3.307 -0.7981  0.3030  0.4009
11142TIP3    H133383   5.815   2.472   3.376 -0.7442  1.5408 -0.4874
11142TIP3    H233384   5.679   2.433   3.322 -0.8197  2.1349 -0.7335
11143TIP3   OH233385   7.780   4.338   5.648  0.1699  0.1486 -0.3861
11143TIP3    H133386   7.848   4.320   5.713 -0.3392 -0.0761  0.0867
11143TIP3    H233387   7.824   4.393   5.583  0.1891  2.0227  1.1261
11144TIP3   OH233388   0.511   0.550   1.857  0.3830 -0.0642 -0.4204
11144TIP3    H133389   0.522   0.644   1.844  0.3081 -0.0740 -0.5573
11144TIP3    H233390   0.573   0.510   1.797  0.2614 -0.1053 -0.5196
11145TIP3   OH233391   5.438   5.667   5.328 -0.4507 -0.4310  0.0683
11145TIP3    H133392   5.493   5.671   5.406  0.3710 -1.6613 -0.4368
11145TIP3    H233393   5.499   5.656   5.255 -1.1028  1.8741 -0.9357
11146TIP3   OH233394   2.171   1.609   3.697  0.3289 -0.0397  0.1074
11146TIP3    H133395   2.125   1.532   3.730 -0.2968 -0.3990 -1.5396
11146TIP3    H233396   2.109   1.681   3.712  0.6401  0.0572  1.0168
11147TIP3   OH233397   3.176   3.620   5.155  0.0295 -0.2334  0.0123
11147TIP3    H133398   3.260   3.588   5.123  0.9518  2.0217 -0.0348
11147TIP3    H233399   3.199   3.697   5.208 -1.9871  0.3845  0.0551
11148TIP3   OH233400   5.249   3.604   6.460 -0.3547 -0.9292 -0.1738
11148TIP3    H133401   5.310   3.531   6.455 -1.5933 -2.1290  1.0868
11148TIP3    H233402   5.229   3.625   6.369  1.0679 -1.2329 -0.5801
11149TIP3   OH233403   0.495   1.333   3.934  0.4790  0.0786 -0.1026
11149TIP3    H133404   0.585   1.358   3.953  0.5886  1.2656 -1.8813
11149TIP3    H233405   0.451   1.334   4.019  1.9203  0.4663  0.6628
11150TIP3   OH233406   0.595   7.529   6.712 -0.2675 -0.2727  0.0736
11150TIP3    H133407   0.566   7.458   6.654 -0.3865 -0.2309  0.0811
11150TIP3    H233408   0.665   7.573   6.663 -1.2134  0.5501 -0.5931
11151TIP3   OH233409   3.404   7.077   5.343 -0.1630  0.1467  0.2750
11151TIP3    H133410   3.420   7.096   5.436  1.9624 -1.2781  0.2625
11151TIP3    H233411   3.410   7.162   5.300  0.1424  0.6537  1.2870
11152TIP3   OH233412   7.394   6.442   6.662  0.0194  0.2890  0.3838
11152TIP3    H133413   7.304   6.444   6.694 -0.4599  1.2676 -0.9425
11152TIP3    H233414   7.394   6.502   6.588  0.9001 -2.3403 -1.9038
11153TIP3   OH233415   2.284   4.436   1.666 -0.2467  0.1955 -0.3917
11153TIP3    H133416   2.335   4.385   1.729  0.1193 -0.1052 -0.9304
11153TIP3    H233417   2.311   4.403   1.580 -0.7607  0.5860 -0.7091
11154TIP3   OH233418   1.769   5.533   4.211 -0.4064  0.0629 -0.2759
11154TIP3    H133419   1.758   5.439   4.194  1.0943 -0.0384 -0.9021
11154TIP3    H233420   1.818   5.565   4.135 -1.0923  1.4125 -0.1785
11155TIP3   OH233421   1.704   3.868   2.136 -0.5648 -0.0691  0.1165
11155TIP3    H133422   1.787   3.826   2.111  0.0972  0.3987  1.4353
11155TIP3    H233423   1.712   3.958   2.106 -1.1204 -0.3307 -0.8491
11156TIP3   OH233424   5.137   3.312   0.324  0.4944  0.0326  0.4526
11156TIP3    H133425   5.230   3.328   0.310  0.2287  0.5901 -0.8112
11156TIP3    H233426   5.134   3.233   0.379  1.6988 -0.8737 -0.7132
11157TIP3   OH233427   3.679   4.066   2.133 -0.3847  0.0506 -0.0394
11157TIP3    H133428   3.637   4.152   2.131 -0.7899 -0.1516 -0.1866
11157TIP3    H233429   3.659   4.031   2.220 -2.7594 -1.1510 -0.9949
11158TIP3   OH233430   3.679   6.398   1.212  0.1353  0.1740 -0.8218
11158TIP3    H133431   3.591   6.417   1.245  0.7994  0.2586  0.9768
11158TIP3    H233432   3.691   6.461   1.141 -0.9619  0.6898 -0.5791
11159TIP3   OH233433   0.168   6.684   5.339  0.2526 -0.2535 -0.3198
11159TIP3    H133434   0.173   6.593   5.311 -0.7090 -1.2346  2.4557
11159TIP3    H233435   0.074   6.699   5.354  0.3529  1.3360 -1.0954
11160TIP3   OH233436   7.531   0.410   6.339 -0.3397 -0.0987  0.4660
11160TIP3    H133437   7.470   0.483   6.353 -0.9112 -0.3331 -0.7051
11160TIP3    H233438   7.527   0.360   6.421  0.4808  1.4511  1.5102
11161TIP3   OH233439   6.577   1.432   3.322 -0.6895  0.0647  0.3029
11161TIP3    H133440   6.647   1.495   3.338 -1.0912  0.3233  1.0808
11161TIP3    H233441   6.503   1.465   3.372 -0.7416 -1.3206  1.1940
11162TIP3   OH233442   2.359   2.459   5.142 -0.1588 -0.7845  0.2132
11162TIP3    H133443   2.392   2.370   5.149 -1.4947 -1.3397 -0.2241
11162TIP3    H233444   2.267   2.453   5.166 -0.0238  0.6867  1.2598
11163TIP3   OH233445   0.038   0.281   6.244  0.1963  0.2738 -0.3906
11163TIP3    H133446   0.087   0.272   6.326  1.1422 -0.9003 -1.0329
11163TIP3    H233447  -0.054   0.280   6.270  0.4809 -0.2454  0.6433
11164TIP3   OH233448   1.453   0.356   1.918  0.3157  0.3902  0.0930
11164TIP3    H133449   1.419   0.281   1.869 -1.0847  1.2502 -0.3002
11164TIP3    H233450   1.547   0.340   1.925  0.1695 -0.9515 -0.7528
11165TIP3   OH233451   6.564   1.063   4.547  0.2763 -0.2154 -0.6383
11165TIP3    H133452   6.490   1.123   4.555  0.6648  0.0390  1.6158
11165TIP3    H233453   6.626   1.108   4.490 -0.5020  0.3625 -1.0541
11166TIP3   OH233454   1.769   4.741   6.649  0.1841  0.0102 -0.0778
11166TIP3    H133455   1.773   4.805   6.578  1.7147  0.3231  0.2521
11166TIP3    H233456   1.782   4.793   6.729  1.9359 -0.7310  0.1635
11167TIP3   OH233457   7.278   6.695   5.393  0.1292 -0.7423  0.4048
11167TIP3    H133458   7.330   6.773   5.411  1.0470 -0.5937 -2.4267
11167TIP3    H233459   7.343   6.625   5.387 -0.1135 -0.8294 -1.7015
11168TIP3   OH233460   1.473   6.665   3.830 -0.3029  0.7168  0.4550
11168TIP3    H133461   1.455   6.717   3.752  1.1703  1.8652  0.8336
11168TIP3    H233462   1.492   6.729   3.898  1.6771 -0.2713  0.9152
11169TIP3   OH233463   7.771   2.384   1.719 -0.1235 -0.0256  0.3745
11169TIP3    H133464   7.866   2.386   1.735  0.3391  1.8919 -1.8827
11169TIP3    H233465   7.732   2.385   1.806  1.9728  1.0309  1.3949
11170TIP3   OH233466   6.758   1.595   2.723 -0.1404 -0.2690 -0.1172
11170TIP3    H133467   6.814   1.652   2.671 -0.2881  0.1281  0.1576
11170TIP3    H233468   6.748   1.516   2.670  0.2090 -0.1102 -0.4184
11171TIP3   OH233469   4.527   3.063   6.349  0.2277  0.6314 -0.6812
11171TIP3    H133470   4.597   3.105   6.299  0.8348 -0.6671 -0.9575
11171TIP3    H233471   4.562   2.977   6.373 -1.2547 -0.0568 -0.8183
11172TIP3   OH233472   1.775   5.705   2.983  0.1507 -0.1313  0.6536
11172TIP3    H133473   1.864   5.723   2.954  0.4287 -0.4772  1.2869
11172TIP3    H233474   1.731   5.672   2.904  1.1844 -2.0854  0.8334
11173TIP3   OH233475   6.997   6.142   6.216 -0.7371  0.4486 -0.1907
11173TIP3    H133476   7.001   6.235   6.194  0.3422  0.5958  0.5118
11173TIP3    H233477   6.994   6.141   6.312  2.4782 -0.2408  0.0140
11174TIP3   OH233478   0.128   5.740   3.573 -0.1813 -0.4000  0.1336
11174TIP3    H133479   0.079   5.814   3.536 -1.4523 -1.1433  0.2676
11174TIP3    H233480   0.173   5.702   3.498  0.3785  0.4156  0.0399
11175TIP3   OH233481   4.818   0.861   5.420  0.1291  0.3333  0.1035
11175TIP3    H133482   4.736   0.822   5.450 -0.7098  1.0474 -1.1289
11175TIP3    H233483   4.804   0.876   5.326  1.1146  1.8099  0.1626
11176TIP3   OH233484   7.889   0.947   1.093 -0.2217  0.2996 -0.1803
11176TIP3    H133485   7.801   0.928   1.127 -0.0019  0.7748  0.6849
11176TIP3    H233486   7.917   1.025   1.142  1.3405 -0.7933  0.7544
11177TIP3   OH233487   1.146   1.644   3.229  0.0062 -0.4574  0.0161
11177TIP3    H133488   1.178   1.712   3.288  0.5439 -0.8861  0.2285
11177TIP3    H233489   1.056   1.627   3.258  0.0590 -0.2287  0.3183
11178TIP3   OH233490   0.883   2.444   1.906  0.3787 -0.1039  0.3928
11178TIP3    H133491   0.875   2.478   1.995 -1.3408 -1.2609  0.7326
11178TIP3    H233492   0.941   2.368   1.915  1.9751  1.0339  0.1080
11179TIP3   OH233493   2.915   0.746   3.023 -0.8769 -0.4919  0.4330
11179TIP3    H133494   3.002   0.717   3.052 -0.9685  0.2772  1.5636
11179TIP3    H233495   2.882   0.674   2.970  0.4851 -0.7632 -0.0931
11180TIP3   OH233496   1.702   7.310   5.659  0.0924  0.0964 -0.3881
11180TIP3    H133497   1.671   7.263   5.736 -1.6608 -0.9763 -1.6505
11180TIP3    H233498   1.687   7.402   5.679  0.9715 -0.0508  1.0590
11181TIP3   OH233499   4.508   3.975   6.752  0.0124  1.1266 -0.2259
11181TIP3    H133500   4.517   3.915   6.677  0.0151  0.1037  0.5681
11181TIP3    H233501   4.416   4.001   6.751 -0.1859  0.4616 -0.1168
11182TIP3   OH233502   6.793   7.290   3.130  0.1137  0.1024 -0.5797
11182TIP3    H133503   6.856   7.363   3.129 -0.2473  0.4232 -0.0788
11182TIP3    H233504   6.757   7.291   3.219  0.8172 -1.3034 -0.2413
11183TIP3   OH233505   5.492   1.783   6.637 -0.3105 -0.1309  0.2102
11183TIP3    H133506   5.529   1.831   6.563  1.3757 -4.3374 -2.0068
11183TIP3    H233507   5.398   1.794   6.628 -0.0507  1.2510 -1.1973
11184TIP3   OH233508   7.710   2.679   1.646  0.3198 -0.0558  0.0747
11184TIP3    H133509   7.725   2.587   1.667 -0.2606 -0.3818 -0.8873
11184TIP3    H233510   7.784   2.702   1.590  0.3037 -0.0209  0.0676
11185TIP3   OH233511   3.808   1.068   5.493 -0.6412 -0.4709  0.0287
11185TIP3    H133512   3.837   1.096   5.406  0.4904  0.2829  0.6359
11185TIP3    H233513   3.822   1.145   5.549  0.7469 -1.6211  1.3375
11186TIP3   OH233514   6.277   2.282   1.271  0.0980  0.6697  0.2723
11186TIP3    H133515   6.247   2.273   1.181 -1.5816  1.1946  0.7440
11186TIP3    H233516   6.356   2.228   1.276 -0.8641 -0.9357 -1.0091
11187TIP3   OH233517   0.494   0.725   3.638  0.0626 -0.0155 -0.3695
11187TIP3    H133518   0.562   0.666   3.605 -0.6044 -0.1348 -1.5701
11187TIP3    H233519   0.412   0.685   3.612 -0.5001  0.1239  1.0877
11188TIP3   OH233520   4.456   6.239   4.138 -0.2445 -0.0150  0.0378
11188TIP3    H133521   4.481   6.149   4.156 -1.5073 -0.1747  1.1548
11188TIP3    H233522   4.532   6.277   4.095  1.0227 -1.0617  1.2747
11189TIP3   OH233523   2.895   0.227   6.360  0.1111  0.4470  0.0519
11189TIP3    H133524   2.932   0.174   6.431  1.9782 -0.2778 -1.3904
11189TIP3    H233525   2.850   0.298   6.406  1.3860  0.1027  1.9825
11190TIP3   OH233526   7.228   3.985   3.785 -0.4032 -0.4519 -0.1388
11190TIP3    H133527   7.297   3.954   3.727  1.0059 -2.3606  2.3198
11190TIP3    H233528   7.272   4.045   3.845 -0.3768 -2.6490  2.2581
11191TIP3   OH233529   3.781   5.307   5.058 -0.1896  0.6747 -0.3302
11191TIP3    H133530   3.817   5.220   5.044 -0.5477  0.1511  1.6128
11191TIP3    H233531   3.696   5.305   5.014 -1.1761 -0.7812  1.4653
11192TIP3   OH233532   7.539   1.016   2.801  0.1428 -0.3445  0.3685
11192TIP3    H133533   7.509   1.096   2.758  0.7732  0.7186  1.8106
11192TIP3    H233534   7.589   0.970   2.734 -2.0677 -0.6527 -1.1563
11193TIP3   OH233535   6.677   6.056   5.402 -0.4614 -0.0945 -0.4220
11193TIP3    H133536   6.614   6.125   5.382 -0.7790 -0.1966  0.2188
11193TIP3    H233537   6.686   6.008   5.320  0.6745  1.4153 -1.2494
11194TIP3   OH233538   3.973   7.719   4.216 -0.0693  0.4006 -0.3860
11194TIP3    H133539   4.029   7.796   4.219  1.8995 -0.9239 -0.8033
11194TIP3    H233540   4.014   7.658   4.277 -0.5685 -0.9264 -1.3329
11195TIP3   OH233541   2.250   5.134   5.158  0.0360 -0.7306  0.1256
11195TIP3    H133542   2.220   5.222   5.133 -0.1710 -1.3499 -1.9674
11195TIP3    H233543   2.177   5.096   5.206  0.2471  0.3291  1.3412
11196TIP3   OH233544   2.063   3.381   3.526  0.3683  0.3609  0.4684
11196TIP3    H133545   2.046   3.381   3.432  1.6887 -0.4521  0.2065
11196TIP3    H233546   2.159   3.383   3.533  0.2810  1.3922  1.8112
11197TIP3   OH233547   2.531   6.075   0.578 -0.4913 -0.3561 -0.3786
11197TIP3    H133548   2.561   6.043   0.493  1.2516  0.9914 -0.3284
11197TIP3    H233549   2.610   6.081   0.631 -1.0536  1.7791  0.3358
11198TIP3   OH233550   8.093   5.511   5.399  0.2824  0.2800  0.5767
11198TIP3    H133551   8.054   5.445   5.341  0.2051  0.1701  0.7512
11198TIP3    H233552   8.029   5.521   5.469 -0.6722  2.0276 -0.4686
11199TIP3   OH233553   2.142   3.998   0.871 -0.2894 -0.2070 -0.3153
11199TIP3    H133554   2.122   4.042   0.953 -1.3089 -1.5133  0.1816
11199TIP3    H233555   2.073   4.026   0.811  0.0018  0.1247 -0.5037
11200TIP3   OH233556   6.285   4.094   2.827  0.0258  0.1054 -0.4159
11200TIP3    H133557   6.233   4.071   2.750  2.9258  1.7965 -3.1250
11200TIP3    H233558   6.287   4.190   2.826  1.0573  0.1316  1.1139
11201TIP3   OH233559   0.828   4.765   1.011 -0.4174 -0.0873  0.4269
11201TIP3    H133560   0.798   4.732   0.927 -2.4169 -0.7644  1.3483
11201TIP3    H233561   0.866   4.689   1.055  0.6677  0.2735  0.1513
11202TIP3   OH233562   7.565   7.567   3.990 -0.3146 -0.2754 -0.3313
11202TIP3    H133563   7.614   7.556   3.908 -1.7002 -0.1493 -1.2139
11202TIP3    H233564   7.529   7.656   3.984 -0.9366 -0.4929  0.1246
11203TIP3   OH233565   3.162   3.422   1.449  0.6583  0.0317 -0.0365
11203TIP3    H133566   3.255   3.408   1.437  0.8794  0.0467  1.4324
11203TIP3    H233567   3.155   3.510   1.485  0.0865 -0.0178 -0.0106
11204TIP3   OH233568   0.054   0.054   5.131 -0.1554  0.1252  0.1905
11204TIP3    H133569   0.108  -0.019   5.101 -0.3158 -0.0947  0.4312
11204TIP3    H233570   0.018   0.093   5.051  1.0174  0.7923 -0.0402
11205TIP3   OH233571   4.989   2.035   5.147  0.0484  0.3415 -0.3997
11205TIP3    H133572   4.949   1.964   5.098 -2.0222  0.9799  0.2479
11205TIP3    H233573   5.084   2.023   5.134 -0.2936 -1.5617 -1.5799
11206TIP3   OH233574   3.793   5.938   6.716 -0.4599 -0.4014 -0.1587
11206TIP3    H133575   3.859   6.003   6.741 -0.7837 -0.2982  0.4700
11206TIP3    H233576   3.811   5.862   6.772  0.4440 -1.2009 -1.4811
11207TIP3   OH233577   6.619   4.385   3.336 -0.4192  0.0533 -0.6194
11207TIP3    H133578   6.641   4.295   3.310 -1.8689 -0.7822  0.8069
11207TIP3    H233579   6.680   4.404   3.407 -1.5922 -0.7489  0.6604
11208TIP3   OH233580   2.932   1.703   4.752 -0.3495 -0.2586  0.2489
11208TIP3    H133581   2.990   1.665   4.818 -0.8702 -1.2019  0.1902
11208TIP3    H233582   2.989   1.724   4.678  0.2020  0.5944  0.8958
11209TIP3   OH233583   2.221   5.517   6.468 -0.2664 -0.7778  0.1902
11209TIP3    H133584   2.257   5.590   6.519 -2.0587  0.9848 -0.8873
11209TIP3    H233585   2.250   5.534   6.379 -1.0625 -1.1274 -0.1422
11210TIP3   OH233586   0.876   0.241   6.408  0.0855 -0.3805  0.3143
11210TIP3    H133587   0.938   0.309   6.384 -0.3326 -0.3546 -0.7190
11210TIP3    H233588   0.870   0.247   6.504  0.9062  0.2741  0.3335
11211TIP3   OH233589   2.242   7.801   6.727  0.2510  0.2960  0.4082
11211TIP3    H133590   2.296   7.722   6.730  1.5264  1.1800  1.9636
11211TIP3    H233591   2.155   7.771   6.752  0.8038 -0.5635  1.3758
11212TIP3   OH233592   4.038   2.028   1.135 -0.0312 -0.3298  0.8806
11212TIP3    H133593   3.987   2.067   1.064 -0.4718  0.7443  1.7495
11212TIP3    H233594   4.013   1.936   1.135 -0.4817 -0.2157  0.0438
11213TIP3   OH233595   6.049   4.850   0.353 -0.3264  0.1648  0.0795
11213TIP3    H133596   5.969   4.809   0.321  0.0779 -0.3243 -0.3297
11213TIP3    H233597   6.076   4.796   0.427 -1.1072  1.1317  1.0985
11214TIP3   OH233598   6.111   5.810   5.570  0.4809 -0.5717 -0.0366
11214TIP3    H133599   6.166   5.861   5.509  1.1495 -0.2561  0.8156
11214TIP3    H233600   6.022   5.822   5.537  0.6360  1.0276  0.0366
11215TIP3   OH233601   4.126   7.590   1.523  0.0455  0.2482  0.1901
11215TIP3    H133602   4.131   7.495   1.514 -0.1132  0.0710  1.6150
11215TIP3    H233603   4.109   7.623   1.435  2.3970 -0.8486 -0.7566
11216TIP3   OH233604   5.220   3.202   1.543 -0.0251 -0.0630  0.0650
11216TIP3    H133605   5.224   3.109   1.519 -1.5388 -0.5747  1.6230
11216TIP3    H233606   5.290   3.242   1.491  0.5577 -2.0230 -0.7932
11217TIP3   OH233607   6.831   7.443   5.798 -0.3171  0.1438 -0.1014
11217TIP3    H133608   6.828   7.391   5.878  0.2131  1.3724  0.7501
11217TIP3    H233609   6.799   7.384   5.730 -1.2961 -0.7714  1.0968
11218TIP3   OH233610   3.665   1.748   0.836 -0.3498 -0.4463 -0.1875
11218TIP3    H133611   3.679   1.833   0.877 -0.7840 -1.5737  2.5009
11218TIP3    H233612   3.735   1.693   0.869 -1.0453 -1.5791 -0.5385
11219TIP3   OH233613   6.885   4.808   5.465 -0.6038 -0.2559  0.0129
11219TIP3    H133614   6.980   4.824   5.468 -0.6232 -0.2245  0.8451
11219TIP3    H233615   6.869   4.776   5.376  0.0487  0.5583 -0.4134
11220TIP3   OH233616   4.344   0.866   1.216  0.0346 -0.5910 -0.7420
11220TIP3    H133617   4.274   0.931   1.220  1.4260  1.0513 -1.6695
11220TIP3    H233618   4.376   0.860   1.306  0.1553  0.3654 -0.7024
11221TIP3   OH233619   3.557   2.847   5.082 -0.2082 -0.7708 -0.1891
11221TIP3    H133620   3.471   2.865   5.044 -1.0382 -1.6158  1.2347
11221TIP3    H233621   3.570   2.916   5.146 -0.4076 -1.3381  0.4831
11222TIP3   OH233622   0.883   5.092   0.738 -0.4371  0.3059  0.6496
11222TIP3    H133623   0.834   5.109   0.657 -2.4019  1.3823  2.0020
11222TIP3    H233624   0.966   5.139   0.725 -0.6874  0.4048 -0.7669
11223TIP3   OH233625   5.867   2.287   6.444  0.2185  0.3814  0.7554
11223TIP3    H133626   5.837   2.279   6.535  0.0429  0.4127  0.7018
11223TIP3    H233627   5.960   2.267   6.447 -0.0950 -1.2031  0.7051
11224TIP3   OH233628   3.040   6.036   6.324  0.4011 -0.7052  0.2594
11224TIP3    H133629   2.986   6.068   6.397  0.4675  1.3009 -0.5074
11224TIP3    H233630   3.098   5.971   6.364  0.0630 -0.0506  1.8960
11225TIP3   OH233631   4.309   4.359   6.699  0.3624  0.2618  0.6616
11225TIP3    H133632   4.243   4.428   6.709 -1.1467 -1.0878  0.3689
11225TIP3    H233633   4.306   4.336   6.606 -0.0145 -0.9969  0.9659
11226TIP3   OH233634   3.551   1.708   6.066  0.6538 -0.0039 -0.5463
11226TIP3    H133635   3.580   1.632   6.015 -0.1471  0.6051 -1.9518
11226TIP3    H233636   3.469   1.680   6.106  1.7801 -0.8412  1.3495
11227TIP3   OH233637   5.168   6.336   6.276 -0.5973  0.1543  0.3710
11227TIP3    H133638   5.258   6.363   6.294 -1.1703  0.3389  3.6914
11227TIP3    H233639   5.172   6.241   6.271  0.0526  0.2491 -1.8465
11228TIP3   OH233640   0.985   3.661   5.756  0.2100 -0.3798 -0.5575
11228TIP3    H133641   0.995   3.748   5.794  0.8977 -0.5805 -0.2567
11228TIP3    H233642   1.067   3.616   5.778 -0.2335 -1.1765 -0.5159
11229TIP3   OH233643   2.608   1.049   1.177  0.3119 -0.0688  0.7354
11229TIP3    H133644   2.607   1.087   1.265 -0.9533 -0.8080  1.0690
11229TIP3    H233645   2.666   0.974   1.184 -2.6128 -2.4160  2.0321
11230TIP3   OH233646   7.523   6.332   0.960 -0.3715 -0.3150  0.1509
11230TIP3    H133647   7.517   6.427   0.947  0.5167  0.1425  2.5155
11230TIP3    H233648   7.616   6.312   0.950 -0.3886 -0.7287  0.7486
11231TIP3   OH233649   7.530  -0.002   2.643  0.6741  0.5246  0.1033
11231TIP3    H133650   7.517   0.082   2.689  1.1090  0.1698  0.9014
11231TIP3    H233651   7.492  -0.067   2.703 -0.0429  0.1847 -0.7045
11232TIP3   OH233652   7.820   5.421   4.401 -0.1019 -0.1964  0.3846
11232TIP3    H133653   7.823   5.446   4.308  2.4043  0.2915  0.5487
11232TIP3    H233654   7.750   5.356   4.405 -0.0647 -0.4826 -1.9078
11233TIP3   OH233655   5.195   2.547   3.766  0.5382 -0.8678  0.3246
11233TIP3    H133656   5.232   2.512   3.685  1.7722 -1.2508  1.0215
11233TIP3    H233657   5.130   2.482   3.793  1.7166 -1.8861  0.7968
11234TIP3   OH233658   2.547   3.331   6.520  0.0234 -0.5557 -0.1140
11234TIP3    H133659   2.564   3.413   6.474  0.1649 -0.7630 -0.4415
11234TIP3    H233660   2.464   3.299   6.484  0.3701 -0.9531 -0.5726
11235TIP3   OH233661   6.641   5.151   1.993  0.3465  0.0736  0.1714
11235TIP3    H133662   6.623   5.210   1.920  1.5463 -1.6714 -1.6231
11235TIP3    H233663   6.565   5.160   2.050 -1.1711  0.7264 -1.8226
11236TIP3   OH233664   1.666   0.846   3.724  0.5260 -0.0373 -0.0497
11236TIP3    H133665   1.677   0.920   3.664  0.1423 -0.9589 -1.3126
11236TIP3    H233666   1.755   0.813   3.738  0.5666 -0.2123 -0.6643
11237TIP3   OH233667   3.227   2.586   6.421  0.3878  0.8811  0.4385
11237TIP3    H133668   3.194   2.496   6.416 -2.1227  1.6211  1.6935
11237TIP3    H233669   3.321   2.577   6.429  0.1969 -1.6416  0.5813
11238TIP3   OH233670   0.592   6.378   1.377  0.4494  0.4200  0.2216
11238TIP3    H133671   0.539   6.303   1.405 -0.0002  1.4734  2.4574
11238TIP3    H233672   0.537   6.423   1.313  0.0536 -0.3079  0.0368
11239TIP3   OH233673   3.133   6.025   0.711  0.0985  0.2157 -0.1099
11239TIP3    H133674   3.226   6.039   0.692  0.1312  0.3075  0.1143
11239TIP3    H233675   3.089   6.045   0.629  0.1331  1.7928  0.2376
11240TIP3   OH233676   1.379   0.606   3.892  0.1595  0.1866 -0.0238
11240TIP3    H133677   1.296   0.634   3.853 -1.6254 -2.8731  1.1867
11240TIP3    H233678   1.412   0.539   3.833  1.2873  0.6619  0.0353
11241TIP3   OH233679   7.296   1.382   1.830 -0.2973  0.3593  0.0770
11241TIP3    H133680   7.224   1.329   1.794 -1.5647  1.7744  0.3965
11241TIP3    H233681   7.313   1.344   1.915 -1.7845  0.9091  0.6683
11242TIP3   OH233682   5.201   4.253   4.618 -0.0014  0.1918 -0.5205
11242TIP3    H133683   5.163   4.334   4.652  2.1106  1.2017 -0.3680
11242TIP3    H233684   5.233   4.207   4.696 -0.4555 -0.3775 -0.6729
11243TIP3   OH233685   1.902   5.049   1.048 -0.7632  0.7439  0.1436
11243TIP3    H133686   1.916   5.053   1.142 -2.2227  0.3687  0.3916
11243TIP3    H233687   1.915   4.957   1.025  2.0864  1.2029 -0.4829
11244TIP3   OH233688   0.302   0.147   4.435 -0.3041  0.3043 -0.1219
11244TIP3    H133689   0.279   0.234   4.404  0.1347  0.7849  0.8658
11244TIP3    H233690   0.225   0.117   4.482 -0.6845 -0.1081 -0.9874
11245TIP3   OH233691  -0.015   3.491   2.582 -0.1559 -0.2490  0.1330
11245TIP3    H133692  -0.006   3.415   2.525 -2.3799 -0.1869 -0.3943
11245TIP3    H233693   0.064   3.491   2.635  0.3162 -2.3991 -0.4818
11246TIP3   OH233694   0.349   3.091   4.872 -0.3133 -0.6288 -0.1658
11246TIP3    H133695   0.280   3.120   4.931 -0.3422 -0.9774 -0.0259
11246TIP3    H233696   0.310   3.020   4.822  0.5595 -2.2728  1.3715
11247TIP3   OH233697   4.936   5.215   3.407  0.1389  0.2362  0.5553
11247TIP3    H133698   4.980   5.273   3.344  0.2342 -1.3351 -0.9058
11247TIP3    H233699   4.931   5.131   3.362 -1.4310 -0.4857  1.9846
11248TIP3   OH233700   6.289   6.113   5.342  0.5515  0.0129  0.3689
11248TIP3    H133701   6.375   6.151   5.361  0.7733 -0.4845  0.3601
11248TIP3    H233702   6.304   6.018   5.342  0.0570 -0.0657  0.0985
11249TIP3   OH233703   2.638   6.150   3.287  0.1476 -0.7338  0.5814
11249TIP3    H133704   2.731   6.132   3.270 -0.0247 -0.1599 -1.1895
11249TIP3    H233705   2.630   6.244   3.277 -0.6071 -0.7739  0.7953
11250TIP3   OH233706   6.599   5.269   6.220  0.2587  0.7039 -0.6160
11250TIP3    H133707   6.684   5.313   6.228  0.4916  0.3423 -1.0550
11250TIP3    H233708   6.608   5.214   6.142  0.4902 -1.2499  0.7227
11251TIP3   OH233709   6.172   7.834   5.839  0.2938 -0.2854  0.2542
11251TIP3    H133710   6.120   7.808   5.915  1.9406 -1.7494  0.9681
11251TIP3    H233711   6.183   7.753   5.789 -1.3722  0.7949 -2.0104
11252TIP3   OH233712   6.163   6.472   3.138  0.1645 -0.1555  0.1394
11252TIP3    H133713   6.138   6.546   3.194 -1.1305 -0.2819 -0.2487
11252TIP3    H233714   6.151   6.396   3.194  0.6374 -0.1501  0.2543
11253TIP3   OH233715   1.351   3.995   1.907  0.3344 -0.6536 -0.1303
11253TIP3    H133716   1.422   4.049   1.941  1.2115 -1.6200 -0.3744
11253TIP3    H233717   1.382   3.964   1.822 -1.8160  1.7322 -1.9674
11254TIP3   OH233718   8.162   5.060   0.509 -0.5243 -0.0523 -0.5271
11254TIP3    H133719   8.186   4.969   0.522 -0.1521  0.0715 -0.3157
11254TIP3    H233720   8.203   5.107   0.582 -1.9441  0.0995  0.1963
11255TIP3   OH233721   4.481   2.796   3.919 -0.1063 -0.1902  0.0020
11255TIP3    H133722   4.559   2.756   3.881 -0.8858 -0.8336 -0.9609
11255TIP3    H233723   4.508   2.886   3.940  0.6862 -0.1703 -1.0273
11256TIP3   OH233724   2.620   0.647   2.531 -0.5451  0.3876 -0.5003
11256TIP3    H133725   2.687   0.614   2.470 -0.4867 -1.1437  0.3515
11256TIP3    H233726   2.670   0.674   2.608 -0.6069  2.4359 -1.1132
11257TIP3   OH233727   3.687   2.433   2.182 -0.3994  0.2249 -0.6213
11257TIP3    H133728   3.729   2.427   2.096 -0.8119  1.9787 -0.9796
11257TIP3    H233729   3.594   2.447   2.163 -0.1950  2.9600  0.0089
11258TIP3   OH233730   5.007   7.190   5.893  0.1853  0.4521 -0.1764
11258TIP3    H133731   4.932   7.179   5.951  0.5608  2.4673  0.7880
11258TIP3    H233732   5.020   7.104   5.853 -1.1451 -0.5542  1.4504
11259TIP3   OH233733   5.034   2.048   2.630 -0.7431 -0.1567  0.4711
11259TIP3    H133734   5.020   2.013   2.718  1.6874 -1.9768  0.2555
11259TIP3    H233735   5.072   2.135   2.645 -1.8072  0.2004  1.1635
11260TIP3   OH233736   7.463   0.889   3.353  0.2244  0.1750 -0.1503
11260TIP3    H133737   7.501   0.810   3.392  1.5805  1.4635  1.3174
11260TIP3    H233738   7.407   0.925   3.422  0.7317  1.2020 -0.2466
11261TIP3   OH233739   5.340   7.253   3.800 -0.1945 -0.0527 -0.1238
11261TIP3    H133740   5.313   7.336   3.762  1.8373  1.2418  1.0909
11261TIP3    H233741   5.267   7.193   3.782 -1.8732  2.0673 -0.7124
11262TIP3   OH233742   6.078   0.054   1.165 -0.0059 -0.0400  0.0726
11262TIP3    H133743   6.125   0.113   1.107  0.4679  0.6673  1.1432
11262TIP3    H233744   6.139   0.038   1.237 -0.4288 -1.2170  0.1960
11263TIP3   OH233745   7.693   7.698   5.105  0.1343  0.8514  0.0339
11263TIP3    H133746   7.670   7.696   5.198 -0.6259  0.0161 -0.1548
11263TIP3    H233747   7.733   7.612   5.088  1.6591  1.5543 -0.0886
11264TIP3   OH233748   2.401   4.318   1.424  0.2685  0.2986  0.3759
11264TIP3    H133749   2.490   4.336   1.396  0.0112  2.5204  0.8373
11264TIP3    H233750   2.346   4.370   1.366 -0.7301 -0.7755  0.3165
11265TIP3   OH233751   6.289   4.341   2.705  0.4739  0.0680 -0.2795
11265TIP3    H133752   6.339   4.397   2.765  0.8476 -0.7343  0.1754
11265TIP3    H233753   6.291   4.387   2.621  0.2587  1.0274  0.2348
11266TIP3   OH233754   1.703   5.392   3.222  0.1613 -0.0187  0.0208
11266TIP3    H133755   1.664   5.480   3.212  1.1154  0.4079 -0.0264
11266TIP3    H233756   1.632   5.332   3.199 -0.9723  0.6876  1.4669
11267TIP3   OH233757   5.795   7.644   5.613 -0.6293 -0.1166  0.0012
11267TIP3    H133758   5.800   7.683   5.700 -0.9831 -0.2651  0.0913
11267TIP3    H233759   5.813   7.717   5.553 -1.8603  0.3301  0.1499
11268TIP3   OH233760   2.221   5.890   2.684  0.7514 -0.0036  0.3160
11268TIP3    H133761   2.222   5.981   2.653 -0.3636 -0.0671  0.0594
11268TIP3    H233762   2.275   5.843   2.621  0.5038  0.3025 -0.1289
11269TIP3   OH233763   4.422   7.380   4.350 -0.5686 -0.7421 -0.2390
11269TIP3    H133764   4.437   7.473   4.331 -1.5135 -0.2060  1.3790
11269TIP3    H233765   4.491   7.334   4.303  1.1090  0.9348  0.4410
11270TIP3   OH233766   8.222   6.944   2.816 -0.0701  0.3614 -0.0176
11270TIP3    H133767   8.164   6.872   2.792 -0.4216  0.1747  1.2704
11270TIP3    H233768   8.187   7.020   2.770  1.1550 -0.5214 -2.5514
11271TIP3   OH233769   3.372   7.740   2.166 -0.3316  0.2402 -0.2630
11271TIP3    H133770   3.346   7.737   2.258  0.9523 -0.9366  0.1063
11271TIP3    H233771   3.296   7.710   2.117  0.5280 -4.4383  0.8581
11272TIP3   OH233772   2.250   3.210   5.519 -0.1574  0.6367 -0.4068
11272TIP3    H133773   2.247   3.128   5.470  1.0905  1.1634 -1.4459
11272TIP3    H233774   2.317   3.195   5.586  1.0867  1.2161 -1.4744
11273TIP3   OH233775   7.139   5.634   2.073  0.5425 -0.1077 -0.3092
11273TIP3    H133776   7.210   5.607   2.015  0.3831  0.1963 -0.6519
11273TIP3    H233777   7.120   5.725   2.047  1.5613  0.6094  1.3159
11274TIP3   OH233778   1.758   6.405   1.611  0.0624  0.0973 -0.2302
11274TIP3    H133779   1.817   6.468   1.652 -0.8906  0.4126  0.7017
11274TIP3    H233780   1.670   6.442   1.624 -0.3147  0.2219 -2.5842
11275TIP3   OH233781   4.721   5.102   6.317  0.3993  0.2495 -0.0190
11275TIP3    H133782   4.813   5.077   6.327  0.1998 -0.5427 -0.0748
11275TIP3    H233783   4.717   5.193   6.348  1.3831  0.6293 -0.9608
11276TIP3   OH233784   2.125   7.084   3.733 -0.4233 -0.5912 -0.3388
11276TIP3    H133785   2.092   6.997   3.758  0.7432 -0.2000  3.0340
11276TIP3    H233786   2.049   7.141   3.743 -0.4181 -0.7432  0.6715
11277TIP3   OH233787   7.217   2.122   6.363  0.0807  0.2684 -0.9636
11277TIP3    H133788   7.251   2.154   6.280  2.8450  0.8654  0.2543
11277TIP3    H233789   7.208   2.027   6.351  1.9113  0.1321 -1.5299
11278TIP3   OH233790   4.391   6.036   5.702 -0.3445  0.2330  0.2317
11278TIP3    H133791   4.313   6.001   5.745  0.1243 -0.0337  0.8956
11278TIP3    H233792   4.449   6.060   5.775  0.7812 -0.9489 -0.2472
11279TIP3   OH233793   0.915   1.003   1.030 -0.1158 -0.4376 -0.3728
11279TIP3    H133794   0.898   1.015   0.937  0.6462  1.3351 -0.3103
11279TIP3    H233795   1.008   1.022   1.041  0.0835 -1.7716  0.5903
11280TIP3   OH233796   3.164   2.742   2.590 -0.3226  0.0380 -0.2666
11280TIP3    H133797   3.106   2.690   2.535 -0.7904 -0.5054  0.7331
11280TIP3    H233798   3.151   2.832   2.559  0.4358 -0.3907 -1.9508
11281TIP3   OH233799   3.332   0.765   0.315  0.2171  0.1627 -0.4401
11281TIP3    H133800   3.425   0.785   0.304 -0.1521  1.9862 -0.6069
11281TIP3    H233801   3.299   0.836   0.371 -1.6732  1.3649 -2.8955
11282TIP3   OH233802   7.859   0.282   6.348  0.1708 -0.2256  0.5086
11282TIP3    H133803   7.886   0.246   6.264 -0.9291 -0.5815  0.2921
11282TIP3    H233804   7.857   0.206   6.407  1.7912  0.1571  1.1031
11283TIP3   OH233805   8.262   6.594   2.198 -0.3690 -0.4492  0.3038
11283TIP3    H133806   8.211   6.514   2.182 -0.6958 -0.2144  0.1571
11283TIP3    H233807   8.315   6.574   2.275  1.7916 -1.8885 -1.4379
11284TIP3   OH233808   8.264   7.252   4.614 -0.2555  0.0792 -0.4026
11284TIP3    H133809   8.231   7.340   4.595  1.3025  0.8203  0.2002
11284TIP3    H233810   8.285   7.253   4.707  1.0696 -0.4815 -0.6786
11285TIP3   OH233811   8.294   4.899   4.053  0.0900  0.3776  0.1212
11285TIP3    H133812   8.246   4.965   4.103 -0.1406 -1.5255  2.5936
11285TIP3    H233813   8.233   4.871   3.986 -1.3901 -0.2129  1.6464
11286TIP3   OH233814   5.226   0.971   1.385 -0.0404  0.1753  0.1552
11286TIP3    H133815   5.182   0.904   1.333 -1.1626 -0.6540  2.0295
11286TIP3    H233816   5.181   0.968   1.470  0.4107  2.7751  0.5647
11287TIP3   OH233817   5.068   5.340   3.182  0.2341  0.0096  0.4133
11287TIP3    H133818   5.100   5.429   3.195  0.6908  0.3480 -2.3925
11287TIP3    H233819   4.987   5.351   3.131  0.9387 -1.1693 -1.0330
11288TIP3   OH233820   4.506   0.339   3.133 -0.4508 -0.3080  0.1650
11288TIP3    H133821   4.541   0.268   3.187 -0.2045 -0.9770 -0.8382
11288TIP3    H233822   4.584   0.389   3.107 -0.6109  0.2589  0.7652
11289TIP3   OH233823   5.981   6.381   6.601 -0.3429 -0.1251  0.2251
11289TIP3    H133824   5.929   6.358   6.678 -1.4260  0.8701 -0.1801
11289TIP3    H233825   5.990   6.299   6.553  0.3753 -0.7633  1.4104
11290TIP3   OH233826   6.885   3.787   4.073 -0.1349  0.4721 -0.0488
11290TIP3    H133827   6.858   3.716   4.016 -1.2244  1.0057 -0.2349
11290TIP3    H233828   6.959   3.828   4.029  0.4911 -0.5322  0.0605
11291TIP3   OH233829   3.346   2.104   3.359  0.3440  0.3631  0.8142
11291TIP3    H133830   3.434   2.095   3.322 -0.5040 -1.4371 -1.0050
11291TIP3    H233831   3.301   2.164   3.299  0.1514  0.8053  1.3956
11292TIP3   OH233832   6.108   6.125   4.021 -0.3368 -0.1529 -0.0566
11292TIP3    H133833   6.037   6.079   4.064 -1.2079  0.6481 -0.6037
11292TIP3    H233834   6.067   6.203   3.983  0.0812 -1.4259 -3.4525
11293TIP3   OH233835   7.138   1.425   3.807 -0.3766 -0.1604 -0.0789
11293TIP3    H133836   7.206   1.410   3.872 -0.8528 -2.5965 -0.0789
11293TIP3    H233837   7.175   1.491   3.748  1.4657 -0.5373  0.6130
11294TIP3   OH233838   4.877   7.025   1.710  0.3063  0.2806 -0.2601
11294TIP3    H133839   4.899   7.060   1.797  0.4906  1.8800 -0.9214
11294TIP3    H233840   4.933   7.074   1.650  0.9012 -1.4913 -1.2337
11295TIP3   OH233841   3.686   5.859   0.474 -0.1800 -0.1877  0.1701
11295TIP3    H133842   3.775   5.853   0.440 -0.4490  0.5004 -0.7272
11295TIP3    H233843   3.695   5.903   0.558  0.4856 -1.6915  0.9041
11296TIP3   OH233844   5.511   6.099   6.078  0.3344 -0.4283  0.1092
11296TIP3    H133845   5.521   6.195   6.074  0.7649 -0.3890  1.7113
11296TIP3    H233846   5.474   6.076   5.992 -3.0025  1.5726  0.8318
11297TIP3   OH233847   7.980   1.942   1.840  0.3938 -0.2405  0.0558
11297TIP3    H133848   8.031   1.997   1.900  0.0984 -0.5342  0.5863
11297TIP3    H233849   7.961   1.863   1.891 -0.8230 -0.0189 -0.0284
11298TIP3   OH233850   5.979   4.946   6.119  0.1477 -0.1453 -0.9761
11298TIP3    H133851   5.994   4.904   6.204  0.0916  0.8004 -0.4865
11298TIP3    H233852   5.995   4.877   6.055  1.7347 -0.4749 -0.2699
11299TIP3   OH233853   4.652   3.575   3.516  0.1681 -0.0174 -0.2187
11299TIP3    H133854   4.623   3.484   3.528 -1.0914  0.0899 -2.0459
11299TIP3    H233855   4.572   3.627   3.528  0.9542  0.9065  1.1740
11300TIP3   OH233856   2.730   6.488   2.971  0.0590 -0.2509  0.1666
11300TIP3    H133857   2.758   6.575   2.944  0.3393 -0.1583  0.7366
11300TIP3    H233858   2.636   6.495   2.982  0.0973  0.0106  0.3209
11301TIP3   OH233859   6.593   5.680   1.429 -0.2116  0.4388 -0.1520
11301TIP3    H133860   6.567   5.757   1.377 -0.6138 -0.2714 -1.0295
11301TIP3    H233861   6.641   5.625   1.367 -0.3951 -0.2727  0.3305
11302TIP3   OH233862   5.100   3.077   5.545 -0.1340 -0.1166 -0.0041
11302TIP3    H133863   5.021   3.066   5.598 -0.2986 -1.6127 -0.5144
11302TIP3    H233864   5.098   3.169   5.517 -0.1874  0.6451  2.3172
11303TIP3   OH233865   5.646   7.266   5.653  0.8037 -0.4569  0.0941
11303TIP3    H133866   5.698   7.305   5.583  0.6682  1.3673  0.9512
11303TIP3    H233867   5.664   7.320   5.730 -1.7330 -0.2455  0.6169
11304TIP3   OH233868   6.276   7.678   4.081  0.2721  0.1989  0.3934
11304TIP3    H133869   6.315   7.591   4.070 -0.0553 -0.0349  1.0273
11304TIP3    H233870   6.199   7.676   4.025  1.3081  0.7732 -1.1134
11305TIP3   OH233871   5.899   5.641   6.274  0.6155 -0.1565  0.0716
11305TIP3    H133872   5.831   5.591   6.319  1.1204  0.6928  1.9025
11305TIP3    H233873   5.972   5.579   6.266 -0.1312 -0.8917 -1.3714
11306TIP3   OH233874   0.119   7.182   0.205  0.2797  0.5879 -0.0339
11306TIP3    H133875   0.144   7.125   0.133 -0.4353 -0.0826  0.2333
11306TIP3    H233876   0.071   7.125   0.266 -2.3677  1.8498 -0.7628
11307TIP3   OH233877   1.021   7.073   5.139  0.1118  0.1880 -0.0381
11307TIP3    H133878   0.974   7.151   5.110 -0.0641 -0.4987 -1.6754
11307TIP3    H233879   0.952   7.011   5.164  0.1634 -0.3452 -1.1796
11308TIP3   OH233880   7.080   7.511   0.818  0.0602  0.0797 -0.3434
11308TIP3    H133881   7.015   7.563   0.865 -1.1279 -2.4185  1.0204
11308TIP3    H233882   7.161   7.562   0.823 -0.9595  1.6650  1.0505
11309TIP3   OH233883   3.610   3.206   3.452 -0.3702 -0.0295 -0.4781
11309TIP3    H133884   3.702   3.204   3.424  0.0816  0.7754  0.8511
11309TIP3    H233885   3.574   3.282   3.406 -0.3559 -0.2870 -0.9253
11310TIP3   OH233886   4.039   6.717   1.305  0.3095  0.4587 -0.3254
11310TIP3    H133887   4.092   6.734   1.226 -0.7012  0.0179 -1.1227
11310TIP3    H233888   3.974   6.787   1.305 -1.4147 -1.0310 -1.4498
11311TIP3   OH233889   7.250   0.149   2.743  0.3438  0.5680 -0.2222
11311TIP3    H133890   7.242   0.073   2.686  1.1362 -0.4543  0.9891
11311TIP3    H233891   7.332   0.190   2.716 -0.1057  1.0475 -0.9050
11312TIP3   OH233892   1.398   1.144   6.749 -0.0032  0.0497 -0.7565
11312TIP3    H133893   1.418   1.053   6.729 -1.5935 -0.1602 -1.5334
11312TIP3    H233894   1.326   1.166   6.691 -1.3030  1.0525  1.1229
11313TIP3   OH233895   0.737   5.049   3.268 -0.0001  0.4735 -0.2171
11313TIP3    H133896   0.674   4.978   3.267  1.1210 -0.5799  0.6016
11313TIP3    H233897   0.767   5.056   3.178  1.9505 -2.0718  0.1384
11314TIP3   OH233898   1.349   3.511   2.055  0.3993  0.1887 -0.6538
11314TIP3    H133899   1.290   3.546   1.987 -0.8860 -0.5345  0.0559
11314TIP3    H233900   1.335   3.417   2.053  0.7185  0.1135  0.2906
11315TIP3   OH233901   3.440   2.137   0.616  0.1899 -0.3292  0.0006
11315TIP3    H133902   3.418   2.216   0.664  2.6191 -0.7444  1.9685
11315TIP3    H233903   3.534   2.143   0.599  0.5128 -2.8827  0.4536
11316TIP3   OH233904   1.316   2.017   0.295  0.5330  0.1132 -0.1484
11316TIP3    H133905   1.307   1.951   0.364  0.5811  0.4609  0.1895
11316TIP3    H233906   1.271   1.978   0.220  0.6556 -0.3541  0.0165
11317TIP3   OH233907   8.053   3.841   1.755 -0.0004  0.2212 -0.0950
11317TIP3    H133908   7.986   3.904   1.783  0.4461  1.0185 -0.7492
11317TIP3    H233909   8.064   3.783   1.831  1.0433  2.1900  1.3758
11318TIP3   OH233910   1.089   3.911   6.174  0.4048  0.0145  0.6512
11318TIP3    H133911   1.135   3.834   6.208 -0.7749 -1.1893 -0.3480
11318TIP3    H233912   1.012   3.920   6.230  0.2629  0.1328  0.4391
11319TIP3   OH233913   0.986   0.759   5.837  0.2698 -0.6729 -0.5790
11319TIP3    H133914   1.038   0.731   5.761  1.1117  0.2377 -0.3606
11319TIP3    H233915   1.050   0.768   5.908 -0.1672  0.4989 -0.3052
11320TIP3   OH233916   1.774   4.397   1.900  0.2076 -0.2655  0.1555
11320TIP3    H133917   1.815   4.387   1.815 -0.4890 -0.1584 -0.2040
11320TIP3    H233918   1.710   4.468   1.888 -0.0632 -0.4063  0.6983
11321TIP3   OH233919   0.250   5.799   3.816  0.2440 -0.3921  0.1134
11321TIP3    H133920   0.274   5.891   3.809 -3.8367  0.9768  1.2222
11321TIP3    H233921   0.211   5.777   3.731  2.1431 -1.5170 -0.5248
11322TIP3   OH233922   5.554   5.077   5.740  0.3193  0.8060  0.2780
11322TIP3    H133923   5.490   5.053   5.673 -0.3898 -1.2964  1.6167
11322TIP3    H233924   5.501   5.109   5.813  0.8375  0.0818  0.9943
11323TIP3   OH233925   3.239   3.697   2.865 -0.0892  0.3787 -0.3228
11323TIP3    H133926   3.301   3.769   2.851 -0.0007  0.8774  2.1967
11323TIP3    H233927   3.153   3.739   2.862 -0.1800  0.1593 -1.0929
11324TIP3   OH233928   6.436   3.193   5.577  0.4114  0.0858  0.1824
11324TIP3    H133929   6.465   3.115   5.528  1.0357  0.0557  0.5917
11324TIP3    H233930   6.348   3.171   5.607  0.8248 -0.7190  0.8308
11325TIP3   OH233931   4.758   7.292   5.076 -0.4864 -0.1881  0.0932
11325TIP3    H133932   4.663   7.304   5.081 -0.2687  2.0268  0.2882
11325TIP3    H233933   4.785   7.280   5.167 -0.5310 -0.2122  0.1031
11326TIP3   OH233934   4.754   4.065   3.135 -0.1015 -0.5160 -0.6083
11326TIP3    H133935   4.661   4.049   3.152 -0.1534 -0.9122 -1.2268
11326TIP3    H233936   4.794   4.064   3.222 -0.4497 -1.8912 -0.4285
11327TIP3   OH233937   0.527   7.764   4.256  0.0021  0.6523 -0.2343
11327TIP3    H133938   0.558   7.736   4.169  1.2593  1.1576  0.0255
11327TIP3    H233939   0.444   7.718   4.268  0.9756 -1.3236 -0.6957
11328TIP3   OH233940   7.598   5.449   2.366 -0.7760  0.3571  0.2299
11328TIP3    H133941   7.592   5.457   2.271 -0.0649 -1.4483 -0.0191
11328TIP3    H233942   7.685   5.483   2.388 -0.3565 -0.5342  0.0183
11329TIP3   OH233943   2.146   6.888   4.902 -0.3248 -0.0719  0.9169
11329TIP3    H133944   2.075   6.830   4.876  0.1715 -0.9323  1.4478
11329TIP3    H233945   2.208   6.885   4.829 -0.0239 -0.6761  1.1923
11330TIP3   OH233946   0.846   1.050   1.884 -0.4552  0.5246  0.3376
11330TIP3    H133947   0.923   1.032   1.938 -1.1565 -0.3089  1.1039
11330TIP3    H233948   0.880   1.096   1.807  1.3429 -2.9160 -1.1363
11331TIP3   OH233949   3.549   5.010   2.819 -0.1208 -0.5512 -0.2881
11331TIP3    H133950   3.547   4.915   2.820  2.1565 -0.6952 -1.1501
11331TIP3    H233951   3.460   5.037   2.839 -1.4512 -2.8812 -2.4875
11332TIP3   OH233952   2.373   3.837   4.693  0.1333 -0.1358  0.7121
11332TIP3    H133953   2.385   3.880   4.608 -1.8015 -1.4206 -0.2559
11332TIP3    H233954   2.404   3.748   4.680  1.1309  0.0080  1.8133
11333TIP3   OH233955   0.144   5.317   1.243  0.1633  0.2414 -0.0047
11333TIP3    H133956   0.145   5.367   1.325 -0.2480  0.5319 -0.1721
11333TIP3    H233957   0.102   5.234   1.267  1.6171 -0.3820  0.4662
11334TIP3   OH233958   1.742   2.381   1.814  0.2589 -0.3724  0.0844
11334TIP3    H133959   1.825   2.340   1.792 -0.9286 -1.8651 -1.9889
11334TIP3    H233960   1.676   2.325   1.773 -1.8342  0.3901  2.1813
11335TIP3   OH233961   3.754   6.891   0.753  0.1179  0.4082  0.3146
11335TIP3    H133962   3.728   6.951   0.683  0.7913  0.8127  0.4038
11335TIP3    H233963   3.755   6.805   0.711 -1.7496  0.2955  0.4080
11336TIP3   OH233964   8.018   7.588   1.981  0.6154 -0.1214  0.0435
11336TIP3    H133965   7.948   7.528   2.007 -0.1175  0.8209  0.3160
11336TIP3    H233966   8.061   7.545   1.908 -1.8595  0.3323 -1.8188
11337TIP3   OH233967   7.525   3.709   2.866 -0.1853  0.5709 -0.1905
11337TIP3    H133968   7.568   3.626   2.885  2.3602  1.7783 -0.2954
11337TIP3    H233969   7.517   3.711   2.770 -1.4147 -0.0469 -0.1244
11338TIP3   OH233970   1.617   2.596   1.259  0.0719  0.2742  0.1337
11338TIP3    H133971   1.644   2.684   1.231 -2.0515  1.0591  0.4101
11338TIP3    H233972   1.577   2.557   1.181 -0.8156  0.3332  0.5549
11339TIP3   OH233973   2.003   5.849   0.878  0.3674  0.2098 -0.1423
11339TIP3    H133974   2.024   5.792   0.804  1.2800  0.7632 -0.3261
11339TIP3    H233975   1.907   5.852   0.879  0.3387  0.2604 -1.3544
11340TIP3   OH233976   1.464   6.569   0.209  0.1545 -0.2156 -1.0771
11340TIP3    H133977   1.382   6.529   0.181  0.1174  0.0180 -1.3111
11340TIP3    H233978   1.522   6.496   0.229 -1.0630 -0.4923  2.0836
11341TIP3   OH233979   7.866   5.174   3.559 -0.3138 -0.5607  0.5232
11341TIP3    H133980   7.825   5.088   3.551 -2.6660  0.5510 -0.2546
11341TIP3    H233981   7.793   5.235   3.564  1.2883  1.4618  0.4258
11342TIP3   OH233982   5.391   6.312   1.996  0.5909 -0.0169 -0.4478
11342TIP3    H133983   5.381   6.234   1.942  1.6608 -0.5860  0.1361
11342TIP3    H233984   5.412   6.277   2.083  1.6723  0.9242 -0.3128
11343TIP3   OH233985   7.284   6.671   3.040  0.2422 -0.4809  0.5512
11343TIP3    H133986   7.330   6.725   3.104  0.4870  0.1829 -0.1624
11343TIP3    H233987   7.332   6.686   2.958  1.2882 -2.9718  0.6163
11344TIP3   OH233988   5.556   0.808   3.873 -0.0296  0.3155 -0.2172
11344TIP3    H133989   5.542   0.807   3.778 -0.9257  0.0877 -0.0920
11344TIP3    H233990   5.534   0.720   3.902  1.1703  0.1002  0.0908
11345TIP3   OH233991   6.862   3.202  -0.023 -0.2547  0.4332  0.0274
11345TIP3    H133992   6.868   3.201   0.073  1.1784  0.8491 -0.0412
11345TIP3    H233993   6.779   3.158  -0.042 -1.1971  1.4835  1.4978
11346TIP3   OH233994   7.704   0.536   0.694  0.1840 -0.1059  0.7031
11346TIP3    H133995   7.672   0.447   0.678  0.7170 -0.2385  0.3363
11346TIP3    H233996   7.638   0.593   0.655  0.6182 -0.3863 -0.4575
11347TIP3   OH233997   0.263   6.468   3.165  0.0736  0.9913  0.1057
11347TIP3    H133998   0.170   6.455   3.149  0.3098  0.3467 -0.7841
11347TIP3    H233999   0.268   6.491   3.258 -0.7683 -1.2933  0.7831
11348TIP3   OH234000   8.123   0.646   6.205 -0.2896  0.4448 -0.3795
11348TIP3    H134001   8.218   0.649   6.213 -0.4201  0.8670  1.3074
11348TIP3    H234002   8.103   0.703   6.131  0.7784  0.0840 -0.9692
11349TIP3   OH234003   7.493   4.604   1.038  0.1442  0.2411 -0.0553
11349TIP3    H134004   7.554   4.575   1.106  1.0343 -1.1308 -1.3940
11349TIP3    H234005   7.407   4.602   1.081  0.7302 -0.2419  1.1332
11350TIP3   OH234006   4.808   2.946   0.128 -0.8408  0.1382  0.0189
11350TIP3    H134007   4.793   3.035   0.161  0.9326  1.1113 -1.6042
11350TIP3    H234008   4.780   2.950   0.036 -2.0512 -1.4183  0.2788
11351TIP3   OH234009   2.285   6.328   1.176  0.2762 -0.0580  0.4765
11351TIP3    H134010   2.350   6.340   1.106 -0.8713 -1.1539 -0.8367
11351TIP3    H234011   2.239   6.412   1.181  1.7705  0.7457  1.4544
11352TIP3   OH234012   2.926   2.122   3.778 -0.2768  0.2645 -0.0304
11352TIP3    H134013   2.837   2.142   3.748 -0.8390 -0.1655  1.2693
11352TIP3    H234014   2.916   2.045   3.834  0.9774 -0.0039 -0.1421
11353TIP3   OH234015   8.241   1.800   2.710  0.7144  0.1214 -0.2949
11353TIP3    H134016   8.262   1.889   2.738 -2.2296  0.8189  0.0616
11353TIP3    H234017   8.290   1.788   2.629  2.3510  1.4786  0.4345
11354TIP3   OH234018   5.047   3.160   3.737  0.0472  0.1119  0.2071
11354TIP3    H134019   5.072   3.162   3.829  2.8205  2.7655 -0.4372
11354TIP3    H234020   4.958   3.195   3.735 -0.0831 -0.0556  1.8729
11355TIP3   OH234021   8.200   4.528   1.296 -0.3468 -0.2075 -0.1042
11355TIP3    H134022   8.206   4.485   1.211 -0.0416  0.1280 -0.2536
11355TIP3    H234023   8.290   4.556   1.315 -0.6519  0.9850 -0.3375
11356TIP3   OH234024   4.254   1.475   3.630 -0.4642  0.5804 -0.1792
11356TIP3    H134025   4.170   1.430   3.638 -0.7737  1.2768  0.5885
11356TIP3    H234026   4.315   1.423   3.681 -0.2650 -0.2736 -1.2409
11357TIP3   OH234027   4.332   2.855   2.522 -0.0408  0.0415 -0.6863
11357TIP3    H134028   4.297   2.928   2.470  2.5437  0.4396 -2.0390
11357TIP3    H234029   4.386   2.897   2.589 -1.1023 -0.5765  0.5926
11358TIP3   OH234030   6.265   5.988   3.843  0.7661  0.2741  0.5286
11358TIP3    H134031   6.211   6.025   3.912  0.0936  0.0979  0.0997
11358TIP3    H234032   6.327   6.058   3.821 -0.0716  0.9193  0.1793
11359TIP3   OH234033   1.615   0.242   5.683  0.1815  0.3087  0.2801
11359TIP3    H134034   1.564   0.184   5.627 -0.0271  1.5829 -0.9058
11359TIP3    H234035   1.553   0.309   5.712  0.7811  0.8992  0.2365
11360TIP3   OH234036   4.059   6.349   0.108 -0.1852 -0.2923  0.3406
11360TIP3    H134037   4.082   6.307   0.024 -2.8659 -0.0715 -0.5820
11360TIP3    H234038   4.133   6.328   0.165  1.7786 -0.4304 -2.0533
11361TIP3   OH234039   1.658   0.464   3.492  0.0054  0.0314 -0.6186
11361TIP3    H134040   1.667   0.395   3.426 -0.0863  0.8874 -1.5519
11361TIP3    H234041   1.576   0.443   3.537  0.0599 -0.5541 -0.7748
11362TIP3   OH234042   1.167   1.779   0.836  0.2826  0.5076  0.1234
11362TIP3    H134043   1.207   1.837   0.901  1.3982  0.1215 -0.2007
11362TIP3    H234044   1.117   1.837   0.779  0.4289  1.0134  0.4997
11363TIP3   OH234045   8.202   4.920   1.605 -0.3905  0.2733  0.0431
11363TIP3    H134046   8.274   4.874   1.561 -1.4281 -2.5297  1.0876
11363TIP3    H234047   8.124   4.895   1.556 -1.0942  0.2099  1.1746
11364TIP3   OH234048   1.019   0.638   0.893 -0.2989  0.4402  0.7121
11364TIP3    H134049   1.094   0.579   0.900 -1.0240 -1.0640 -2.5045
11364TIP3    H234050   1.056   0.726   0.896  1.8279 -0.2497 -2.0080
11365TIP3   OH234051   2.514   7.430   5.247 -0.3290 -0.1029  0.0922
11365TIP3    H134052   2.485   7.469   5.165  1.5876 -0.3680 -0.7485
11365TIP3    H234053   2.601   7.394   5.228 -0.5146 -1.5997  1.8007
11366TIP3   OH234054   2.828   5.751   5.923  0.2673  0.2796  0.3079
11366TIP3    H134055   2.831   5.800   5.841 -0.4128  0.9032  0.6385
11366TIP3    H234056   2.811   5.661   5.897  2.0277  0.1003 -0.3437
11367TIP3   OH234057   0.016   7.041   6.159 -0.5157 -0.5364 -0.2308
11367TIP3    H134058   0.007   6.956   6.200  1.9934 -0.8265 -0.1663
11367TIP3    H234059   0.062   7.024   6.077  0.2890  0.7562 -0.0882
11368TIP3   OH234060   2.378   2.925   6.318  0.2636  0.1513  0.0803
11368TIP3    H134061   2.285   2.924   6.340 -0.7977 -0.9864 -3.7298
11368TIP3    H234062   2.395   3.015   6.291 -0.5983 -0.2112 -1.8954
11369TIP3   OH234063   5.451   4.239   4.193 -0.0278 -0.8835 -0.5329
11369TIP3    H134064   5.486   4.150   4.188  1.1397 -0.6609  2.0433
11369TIP3    H234065   5.523   4.295   4.166  0.2690 -0.6262  0.7144
11370TIP3   OH234066   6.795   3.743   1.013 -0.2866 -0.1619  0.5209
11370TIP3    H134067   6.700   3.738   1.003 -0.2356 -1.3207  0.4308
11370TIP3    H234068   6.810   3.734   1.107 -0.2420 -0.6235  0.4721
11371TIP3   OH234069   4.352   7.768   2.119 -0.3583 -0.1572  0.5340
11371TIP3    H134070   4.425   7.707   2.109 -1.4457 -1.2147 -1.6083
11371TIP3    H234071   4.380   7.847   2.071 -0.1669 -0.1215  0.7041
11372TIP3   OH234072   6.260   1.749   4.489  0.2599 -0.0782  0.6920
11372TIP3    H134073   6.196   1.694   4.444 -1.0761  2.0009 -0.0708
11372TIP3    H234074   6.254   1.834   4.447  2.2772  0.7051  1.8053
11373TIP3   OH234075   6.874   6.173   0.898  0.5471  0.0787  0.5655
11373TIP3    H134076   6.958   6.150   0.939 -0.0135 -3.2537  0.1797
11373TIP3    H234077   6.826   6.217   0.968  2.2597  1.2684  1.0696
11374TIP3   OH234078   3.448   6.205   0.277 -0.2554 -0.0255  0.1838
11374TIP3    H134079   3.469   6.253   0.197  0.7308  0.6515  0.8276
11374TIP3    H234080   3.465   6.114   0.256 -3.3900 -0.3607 -1.4742
11375TIP3   OH234081   1.358   4.350   4.274  0.0100  0.7533 -0.0051
11375TIP3    H134082   1.359   4.317   4.363  2.2243 -0.7186 -0.5006
11375TIP3    H234083   1.354   4.445   4.283  2.7517  0.7950  1.7829
11376TIP3   OH234084   5.226   1.276   1.616  0.3599  0.8383  0.2437
11376TIP3    H134085   5.267   1.195   1.587 -0.5062  0.1695  0.8703
11376TIP3    H234086   5.277   1.303   1.693  0.8391  1.0759 -0.1437
11377TIP3   OH234087   3.912   3.373   5.321 -0.6904  0.0273 -0.6485
11377TIP3    H134088   3.991   3.328   5.292 -0.4223 -0.5941  0.9195
11377TIP3    H234089   3.841   3.311   5.308 -0.6231 -0.1242 -0.2966
11378TIP3   OH234090   0.663   7.428   3.821  0.1844 -0.2366  0.0906
11378TIP3    H134091   0.655   7.345   3.867  4.5397  0.1457  2.0544
11378TIP3    H234092   0.574   7.450   3.794 -1.6979 -3.6470  2.7674
11379TIP3   OH234093   8.059   2.404   1.810  0.2609  0.0313  0.1033
11379TIP3    H134094   8.093   2.336   1.868  1.5708 -0.1518 -0.8285
11379TIP3    H234095   8.092   2.486   1.846  2.2470 -0.1895 -1.1114
11380TIP3   OH234096   6.275   7.724   0.318 -0.1627  0.1994 -0.3758
11380TIP3    H134097   6.295   7.816   0.301  0.3518  0.0639 -0.5393
11380TIP3    H234098   6.345   7.694   0.376  0.0459 -0.2576 -0.8491
11381TIP3   OH234099   1.504   4.372   6.118 -0.2266  0.2291  0.6806
11381TIP3    H134100   1.586   4.374   6.168  0.8800  0.3208 -1.0394
11381TIP3    H234101   1.472   4.462   6.122  1.5184  1.0262 -1.2832
11382TIP3   OH234102   3.591   0.728   5.981 -0.3252 -0.3198  0.7246
11382TIP3    H134103   3.616   0.798   6.041 -0.6294  1.7528 -1.4395
11382TIP3    H234104   3.501   0.748   5.956  0.4391  0.0872 -1.9473
11383TIP3   OH234105   5.980   2.046   3.550 -0.0088  0.5438 -0.1199
11383TIP3    H134106   5.916   2.046   3.479  2.0416  0.7843 -2.0687
11383TIP3    H234107   6.025   2.130   3.542  1.0687  0.0611  0.7082
11384TIP3   OH234108   5.074   4.017   2.440 -0.0568  0.1340  0.2184
11384TIP3    H134109   5.023   4.022   2.521  1.3514 -1.8041  1.3241
11384TIP3    H234110   5.100   4.107   2.422 -0.0273  0.5496  2.1825
11385TIP3   OH234111   2.724   0.991   6.061  0.2535  0.2548  0.3663
11385TIP3    H134112   2.800   1.049   6.064  0.2094  0.2789  2.5511
11385TIP3    H234113   2.752   0.913   6.107  0.0037 -1.1540 -1.7458
11386TIP3   OH234114   2.675   3.084   0.839 -0.4602 -0.4814  0.1901
11386TIP3    H134115   2.587   3.120   0.848 -0.5264 -0.1745 -1.4263
11386TIP3    H234116   2.728   3.137   0.899 -0.9666  0.8902 -0.5085
11387TIP3   OH234117   2.829   5.598   1.958 -0.2538 -0.1396  0.2021
11387TIP3    H134118   2.840   5.658   1.885  0.6120 -0.9336 -0.3447
11387TIP3    H234119   2.848   5.512   1.921 -2.1122 -0.8535  0.7933
11388TIP3   OH234120   2.248   2.133   1.829 -0.1408  0.4752  0.3671
11388TIP3    H134121   2.269   2.087   1.748 -1.4079 -0.7812  0.6980
11388TIP3    H234122   2.245   2.225   1.805  1.1142  0.2943 -0.6307
11389TIP3   OH234123   0.127   6.206   5.420 -0.0353  0.3095  0.2865
11389TIP3    H134124   0.136   6.129   5.476  3.3595  0.4504  0.1474
11389TIP3    H234125   0.167   6.179   5.337 -2.0819  1.1327 -1.0312
11390TIP3   OH234126   6.033   3.656   2.198  0.2087  0.7985 -0.1596
11390TIP3    H134127   5.954   3.685   2.153 -1.2873  1.1267  2.4810
11390TIP3    H234128   6.064   3.582   2.146 -2.1847  0.2857 -0.9953
11391TIP3   OH234129   0.692   2.430   3.872  0.0431 -0.9423 -0.3781
11391TIP3    H134130   0.683   2.429   3.777  0.0567 -3.8813 -0.4573
11391TIP3    H234131   0.602   2.438   3.904  0.1180  1.1478 -0.5512
11392TIP3   OH234132   2.278   2.867   4.927  0.3753 -0.5254  0.3021
11392TIP3    H134133   2.250   2.872   5.018 -0.1316  0.3047  0.1088
11392TIP3    H234134   2.201   2.836   4.880  0.0106  0.9266 -0.1093
11393TIP3   OH234135   1.239   6.721   0.633 -0.4519 -0.1224  0.0932
11393TIP3    H134136   1.160   6.771   0.610 -0.8197 -1.0109 -0.6165
11393TIP3    H234137   1.299   6.738   0.560 -0.1138  0.2507  0.4507
11394TIP3   OH234138   3.154   4.463   1.715  0.1342 -1.0159  0.1194
11394TIP3    H134139   3.101   4.531   1.757  4.1384  2.4233  0.3059
11394TIP3    H234140   3.166   4.396   1.783 -1.4089 -0.3959  1.0489
11395TIP3   OH234141   6.630   1.467   1.147  0.1794 -0.4884  0.7339
11395TIP3    H134142   6.695   1.491   1.082 -0.8181  0.2598 -0.0310
11395TIP3    H234143   6.679   1.453   1.228  1.1043  1.8475  0.6453
11396TIP3   OH234144   6.695   4.573   1.270 -0.2357  0.3552 -0.0081
11396TIP3    H134145   6.685   4.578   1.175  0.0469 -0.2192 -0.0754
11396TIP3    H234146   6.638   4.641   1.304 -1.2390 -0.2001 -0.5402
11397TIP3   OH234147   4.037   3.500   6.265  0.4865  0.1863  0.4404
11397TIP3    H134148   3.961   3.461   6.307  0.1445 -0.1262 -0.4485
11397TIP3    H234149   4.065   3.569   6.325  0.0918 -0.3370  1.2321
11398TIP3   OH234150   5.398   7.489   5.849  0.1691  0.4297 -0.0469
11398TIP3    H134151   5.452   7.432   5.904  0.3534 -0.3719 -1.0294
11398TIP3    H234152   5.461   7.533   5.791 -0.1326  0.2993 -0.4790
11399TIP3   OH234153   5.198   4.344   4.010 -0.3575 -0.2323  0.6901
11399TIP3    H134154   5.262   4.315   4.075 -0.4730  1.3596  1.5485
11399TIP3    H234155   5.235   4.425   3.975 -0.7042 -0.6336 -0.6473
11400TIP3   OH234156   6.183   3.516   0.221 -0.1372  0.4872  0.0419
11400TIP3    H134157   6.122   3.447   0.249  0.3920 -0.3171 -0.7123
11400TIP3    H234158   6.174   3.518   0.126  2.4773 -1.1220 -0.3458
11401TIP3   OH234159   0.269   2.383   0.890  0.1740 -0.2011  0.2406
11401TIP3    H134160   0.203   2.314   0.883  1.2345 -1.3374  0.9322
11401TIP3    H234161   0.266   2.429   0.806 -1.8177  0.1144  0.4265
11402TIP3   OH234162   3.537   3.209   4.343  0.1306  0.5293  0.2787
11402TIP3    H134163   3.543   3.303   4.328 -0.1792  0.2488 -2.0121
11402TIP3    H234164   3.465   3.180   4.287 -0.9413 -0.8694  2.2263
11403TIP3   OH234165   1.995   1.860   3.700 -0.1183  0.0052  0.8338
11403TIP3    H134166   2.008   1.938   3.645 -0.1133  0.1606  1.0556
11403TIP3    H234167   1.925   1.885   3.760  0.5110  0.1606  1.5112
11404TIP3   OH234168   2.668   6.393   1.480  0.3949 -0.5174  0.7497
11404TIP3    H134169   2.738   6.375   1.416  0.8715  0.9592  0.8106
11404TIP3    H234170   2.595   6.339   1.451  0.5103  0.3073 -1.2270
11405TIP3   OH234171   7.389   1.816   3.693 -0.1113 -0.7898  0.0194
11405TIP3    H134172   7.483   1.815   3.675 -0.3566  0.9357 -1.7616
11405TIP3    H234173   7.367   1.909   3.694 -2.1038 -1.1818 -1.6034
11406TIP3   OH234174   8.079   0.064   5.238 -0.3178  0.2011 -0.0685
11406TIP3    H134175   8.052   0.111   5.159 -1.6197 -0.8047 -0.2752
11406TIP3    H234176   8.174   0.063   5.234 -0.3324  0.9774 -1.1491
11407TIP3   OH234177   0.924   4.762   3.225 -0.2664 -0.6424  0.0564
11407TIP3    H134178   0.969   4.821   3.286 -0.5354 -0.9395  0.5514
11407TIP3    H234179   0.990   4.742   3.158 -0.6005  1.3304 -0.9241
11408TIP3   OH234180   4.047   2.322   2.261  0.1298 -0.3132 -0.0215
11408TIP3    H134181   4.123   2.375   2.236 -0.1083 -0.1013 -0.2985
11408TIP3    H234182   3.983   2.385   2.292  0.3608 -0.5540  1.0077
11409TIP3   OH234183   6.394   5.631   1.603  0.0986 -0.3803  0.0244
11409TIP3    H134184   6.473   5.669   1.564  0.1673  0.5440  1.0161
11409TIP3    H234185   6.416   5.538   1.614  1.5164  0.0668  1.3197
11410TIP3   OH234186   6.028   5.166   1.627 -0.3890 -0.3837  0.2553
11410TIP3    H134187   6.111   5.169   1.581 -0.6906  0.9519 -0.2407
11410TIP3    H234188   6.049   5.131   1.714  0.4643 -1.2669 -0.2929
11411TIP3   OH234189   4.949   5.638   1.246 -0.0773  0.1238 -0.6740
11411TIP3    H134190   4.996   5.664   1.325  1.4146  1.4929 -1.9364
11411TIP3    H234191   4.987   5.692   1.176 -2.1757 -0.1476 -2.1342
11412TIP3   OH234192   3.296   4.031   4.914  0.2463  0.3861  0.0510
11412TIP3    H134193   3.239   4.054   4.840 -0.0943 -0.2313  0.1079
11412TIP3    H234194   3.309   3.936   4.904  1.8491  0.6216 -0.3597
11413TIP3   OH234195   6.170   4.132   4.432 -0.7628  0.2260 -0.3938
11413TIP3    H134196   6.127   4.098   4.354 -2.9017  0.2147  0.7276
11413TIP3    H234197   6.160   4.227   4.424  0.4214  0.3376 -0.8570
11414TIP3   OH234198   2.203   6.922   6.674 -0.1234 -0.5826 -0.1562
11414TIP3    H134199   2.153   6.870   6.611 -0.9286 -0.5867  0.4765
11414TIP3    H234200   2.280   6.951   6.625 -0.0799 -1.6673 -0.7545
11415TIP3   OH234201   3.222   6.121   5.328  0.3600 -0.0223 -0.1866
11415TIP3    H134202   3.244   6.152   5.416  2.1306 -0.1487 -0.5460
11415TIP3    H234203   3.307   6.115   5.283 -0.1658 -2.6940 -0.9946
11416TIP3   OH234204   0.006   3.552   5.282  0.1351  0.1725  0.1485
11416TIP3    H134205   0.067   3.585   5.348  1.1021 -0.1254 -0.5871
11416TIP3    H234206   0.017   3.457   5.282  1.5655  0.2838 -1.7587
11417TIP3   OH234207   5.937   6.715   0.615  0.2805 -0.3052  0.0072
11417TIP3    H134208   5.913   6.752   0.530 -1.9097 -0.6042  0.4415
11417TIP3    H234209   5.914   6.622   0.608 -0.0149 -0.3126  0.9531
11418TIP3   OH234210   5.471   2.846   3.174  0.6547 -0.5219 -0.5112
11418TIP3    H134211   5.456   2.931   3.132 -0.9672 -0.8651 -0.6849
11418TIP3    H234212   5.449   2.860   3.266 -2.6187 -1.4140 -1.0394
11419TIP3   OH234213   3.048   7.082   2.190  0.0074 -0.5600  0.0621
11419TIP3    H134214   3.142   7.063   2.200  0.0358 -1.2450 -1.2768
11419TIP3    H234215   3.016   7.013   2.132 -0.9197  0.7867 -1.0961
11420TIP3   OH234216   2.593   1.447   3.217 -0.0943  0.2307 -0.0263
11420TIP3    H134217   2.624   1.376   3.161  0.5459  1.1205 -0.8259
11420TIP3    H234218   2.645   1.523   3.190 -0.2782  0.8468  1.2811
11421TIP3   OH234219   2.468   2.345   1.233 -0.7212 -0.4394  0.6928
11421TIP3    H134220   2.541   2.284   1.222 -3.2756 -3.6939  0.0607
11421TIP3    H234221   2.483   2.386   1.318  1.5159 -1.3568  0.8165
11422TIP3   OH234222   1.159   1.269   1.162  0.0590 -0.7837  0.2854
11422TIP3    H134223   1.209   1.324   1.222  1.4668 -2.1108  0.4149
11422TIP3    H234224   1.067   1.287   1.183  0.4534  1.5808  0.1838
11423TIP3   OH234225   4.928   0.711   2.604  0.2433  0.4449  0.2586
11423TIP3    H134226   4.988   0.662   2.660  0.3435  0.4813  0.1833
11423TIP3    H234227   4.959   0.802   2.609 -0.5174  0.6660  1.1527
11424TIP3   OH234228   0.810   5.824   4.885  0.5406  0.2450  0.4444
11424TIP3    H134229   0.825   5.819   4.980 -2.6716  0.4790  1.0827
11424TIP3    H234230   0.719   5.797   4.874  1.2638 -1.2810 -2.7981
11425TIP3   OH234231   3.158   2.985   2.450 -0.5371  0.2768  0.4966
11425TIP3    H134232   3.246   2.982   2.413  0.6363  2.5209  2.8020
11425TIP3    H234233   3.101   2.991   2.373  1.4194  0.6129 -1.0302
11426TIP3   OH234234   7.812   1.906   0.504 -0.4583 -0.1729 -0.0513
11426TIP3    H134235   7.795   1.875   0.593  1.1829 -0.4600  0.2055
11426TIP3    H234236   7.830   2.000   0.514  0.0952 -0.2786 -0.0114
11427TIP3   OH234237   5.596   5.825   2.561  0.0336  0.4908 -0.3894
11427TIP3    H134238   5.523   5.870   2.603  0.1304  1.0460 -0.8056
11427TIP3    H234239   5.664   5.819   2.629 -0.7693 -0.9917  0.3432
11428TIP3   OH234240   4.586   0.952   1.546 -0.2756  0.3946 -0.0701
11428TIP3    H134241   4.600   0.973   1.639  0.9232  0.7299 -0.3056
11428TIP3    H234242   4.616   0.862   1.537  0.6989  0.7308 -0.3422
11429TIP3   OH234243   7.980   6.083   0.995 -0.2183 -0.5564  0.2358
11429TIP3    H134244   7.979   5.998   0.952  0.7999 -0.3816 -0.1610
11429TIP3    H234245   7.906   6.080   1.056 -1.0071 -1.2240 -0.7179
11430TIP3   OH234246   6.536   5.917   1.826 -0.5861 -0.0770 -0.1684
11430TIP3    H134247   6.579   5.844   1.872  1.0751  0.7446 -0.3462
11430TIP3    H234248   6.607   5.978   1.807 -1.7966  1.1558 -0.8741
11431TIP3   OH234249   2.821   3.544   3.988 -0.0873 -0.1841 -0.5877
11431TIP3    H134250   2.890   3.500   4.037 -1.4807 -1.4285  0.3295
11431TIP3    H234251   2.781   3.604   4.050 -0.4957 -0.2249 -0.8032
11432TIP3   OH234252   1.438   5.908   5.797 -0.2090  0.0453  0.6579
11432TIP3    H134253   1.438   5.989   5.746  0.2703  0.1216  0.7732
11432TIP3    H234254   1.346   5.881   5.799 -0.4544  0.8639  1.0555
11433TIP3   OH234255   2.007   5.637   4.576 -0.4382 -0.7650  0.1601
11433TIP3    H134256   2.098   5.610   4.585  0.1246  0.6668 -0.9072
11433TIP3    H234257   2.002   5.722   4.620 -1.0007 -0.3531 -0.6775
11434TIP3   OH234258   3.338   5.726   4.892 -0.2689  0.2284 -0.1537
11434TIP3    H134259   3.287   5.704   4.970 -0.8577 -0.8468 -0.8148
11434TIP3    H234260   3.429   5.707   4.916 -0.7042 -2.8795 -0.5886
11435TIP3   OH234261   4.841   3.889   1.327 -0.0308  0.1656  0.4166
11435TIP3    H134262   4.879   3.806   1.355 -0.3625 -0.9527 -2.1724
11435TIP3    H234263   4.796   3.923   1.405 -1.6531 -3.1098  1.0582
11436TIP3   OH234264   4.018   5.616   0.601 -0.3135  0.0676 -0.1488
11436TIP3    H134265   4.015   5.561   0.679 -0.8755 -0.4477 -0.5231
11436TIP3    H234266   3.933   5.601   0.558 -0.9926  2.1405  0.3543
11437TIP3   OH234267   5.308   2.350   6.160 -0.4689  0.5708  0.6459
11437TIP3    H134268   5.220   2.374   6.132 -0.4199 -1.0108 -1.0704
11437TIP3    H234269   5.303   2.342   6.255 -1.7269  2.1226  0.7422
11438TIP3   OH234270   2.517   6.732   2.095 -0.0368 -0.0790  0.7792
11438TIP3    H134271   2.495   6.779   2.175 -2.0486 -1.4613  1.0966
11438TIP3    H234272   2.502   6.640   2.116  1.7469 -0.7186 -0.4831
11439TIP3   OH234273   6.491   2.744   0.360  0.4487  0.1048 -0.2838
11439TIP3    H134274   6.417   2.745   0.299 -0.7979 -1.3705  1.1019
11439TIP3    H234275   6.451   2.747   0.447  2.1225  0.9655  0.5039
11440TIP3   OH234276   8.117   3.960   2.595  0.1437  0.4010 -0.4400
11440TIP3    H134277   8.110   4.004   2.680  0.0756  0.6544 -0.5743
11440TIP3    H234278   8.208   3.929   2.592  0.0326  0.0292 -0.1042
11441TIP3   OH234279   5.933   4.966   0.603  0.3786 -0.4723 -0.3634
11441TIP3    H134280   5.928   5.028   0.676  0.2591 -0.0864 -0.6982
11441TIP3    H234281   6.027   4.949   0.594  0.5363  0.7299 -1.1575
11442TIP3   OH234282   4.633   1.451   4.613  0.1210  0.7932 -0.2280
11442TIP3    H134283   4.571   1.521   4.593 -0.2381  1.0000  1.4839
11442TIP3    H234284   4.704   1.494   4.660  0.2107  0.1146  0.2706
11443TIP3   OH234285   4.280   1.282   2.164  0.1007  0.4144  0.4700
11443TIP3    H134286   4.339   1.322   2.100 -0.8324  0.7994 -0.1882
11443TIP3    H234287   4.276   1.345   2.236  0.7861  0.2021  0.7004
11444TIP3   OH234288   5.603   3.972   4.160  0.1296 -0.0460  0.1245
11444TIP3    H134289   5.575   3.908   4.225  0.8273  0.3053  0.7904
11444TIP3    H234290   5.695   3.987   4.179  0.5982 -0.5784 -1.5007
11445TIP3   OH234291   2.100   2.865   3.374  0.5313 -0.7672 -0.1232
11445TIP3    H134292   2.159   2.807   3.325 -1.8398 -1.5424 -2.2816
11445TIP3    H234293   2.058   2.807   3.438  0.5033 -0.7380 -0.1149
11446TIP3   OH234294   4.436   6.457   5.615  0.5114  0.6540 -0.2288
11446TIP3    H134295   4.347   6.442   5.582  0.3608  0.2245  0.3646
11446TIP3    H234296   4.426   6.523   5.683  0.3821 -0.6079  1.0378
11447TIP3   OH234297   0.587   3.983   5.957  0.4945 -0.0054  0.7466
11447TIP3    H134298   0.605   4.016   6.045  0.2066  0.7513  0.5338
11447TIP3    H234299   0.580   4.062   5.903 -0.4423 -0.3999  0.2617
11448TIP3   OH234300   5.793   5.242   1.912 -0.0985  0.2004  0.4767
11448TIP3    H134301   5.748   5.161   1.937  0.2234 -0.1564 -0.0697
11448TIP3    H234302   5.877   5.237   1.958 -0.9134  1.2774  2.1952
11449TIP3   OH234303   1.490   6.352   6.173 -0.0211  0.0152 -0.3487
11449TIP3    H134304   1.479   6.355   6.078  0.0068 -0.0910 -0.3549
11449TIP3    H234305   1.519   6.263   6.191 -0.1340  0.0036 -0.2286
11450TIP3   OH234306   2.550   5.662   3.157  0.5545 -0.7664 -0.4097
11450TIP3    H134307   2.554   5.568   3.173 -1.8540 -0.8476  0.0193
11450TIP3    H234308   2.632   5.682   3.112  2.2267 -2.6084  1.6135
11451TIP3   OH234309   6.623   5.384   0.126  0.0549 -0.0206  0.1580
11451TIP3    H134310   6.591   5.474   0.113  0.1303  0.1484  1.1249
11451TIP3    H234311   6.716   5.394   0.144 -0.3737 -0.0466  2.7997
11452TIP3   OH234312   3.051   4.988   5.339 -0.1792 -0.1068  0.4521
11452TIP3    H134313   3.051   4.999   5.244 -0.3129  0.6552  0.5365
11452TIP3    H234314   2.972   4.937   5.356 -0.5521  0.3877  0.2230
11453TIP3   OH234315   7.482   1.374   2.276  0.6220  0.7256 -0.4430
11453TIP3    H134316   7.458   1.467   2.285 -0.7622  0.2498  1.6527
11453TIP3    H234317   7.412   1.327   2.323  1.0002 -1.4337 -1.9002
11454TIP3   OH234318   6.328   7.560   4.606  0.5731  0.0721 -0.4143
11454TIP3    H134319   6.246   7.521   4.577 -0.1810  1.0913  0.2529
11454TIP3    H234320   6.337   7.640   4.553  1.7533 -0.6174 -1.3069
11455TIP3   OH234321   3.170   4.731   3.048  0.2538 -0.1154  0.6810
11455TIP3    H134322   3.151   4.679   3.127 -0.4382 -2.3798 -0.8832
11455TIP3    H234323   3.088   4.731   3.000  1.4406 -1.4461 -1.4808
11456TIP3   OH234324   2.674   2.179   1.222 -0.5595  0.3977 -0.1931
11456TIP3    H134325   2.702   2.190   1.313 -0.7461 -1.7142  0.1555
11456TIP3    H234326   2.755   2.175   1.172 -0.3725 -0.5443  0.1676
11457TIP3   OH234327   2.941   0.531   1.510  0.0234  0.5085  0.6605
11457TIP3    H134328   2.981   0.449   1.539 -2.5944 -1.4183 -0.7267
11457TIP3    H234329   2.981   0.548   1.425 -0.4328 -0.1101  0.3203
11458TIP3   OH234330   4.761   5.006   1.779  0.5776 -0.3920 -0.0180
11458TIP3    H134331   4.669   5.025   1.759  0.4603 -0.6275  0.2798
11458TIP3    H234332   4.787   5.075   1.840  0.0829 -1.2874  1.2450
11459TIP3   OH234333   6.042   5.633   4.804 -0.4961 -0.4684  0.2258
11459TIP3    H134334   6.131   5.658   4.827 -0.5522 -0.0974  0.0399
11459TIP3    H234335   6.044   5.621   4.709 -0.2632 -2.0122  0.4000
11460TIP3   OH234336   2.477   7.800   4.415  0.6254 -0.8758 -0.2465
11460TIP3    H134337   2.447   7.736   4.480 -1.7302  0.0160 -0.3526
11460TIP3    H234338   2.491   7.880   4.465 -0.7430 -0.3121 -0.7340
11461TIP3   OH234339   7.318   7.291   1.512  0.3713  0.2025  0.3436
11461TIP3    H134340   7.352   7.293   1.422  1.8047 -1.8404  0.7585
11461TIP3    H234341   7.254   7.219   1.511  1.1242 -0.5084  1.1444
11462TIP3   OH234342   2.551   2.754   6.516  0.1339 -0.5529 -0.4309
11462TIP3    H134343   2.499   2.759   6.435  0.0914 -1.3603 -0.4663
11462TIP3    H234344   2.512   2.680   6.564  0.1890 -0.1118  0.3086
11463TIP3   OH234345   5.004   2.859   0.698  0.1326 -0.0818  0.1384
11463TIP3    H134346   5.056   2.938   0.686 -0.4119  0.3470  0.6186
11463TIP3    H234347   4.928   2.886   0.748  0.9468 -1.3023  2.1569
11464TIP3   OH234348   6.136   0.026   3.540  0.3756  0.6755  0.0855
11464TIP3    H134349   6.056   0.073   3.518 -0.0462  0.3783  0.9646
11464TIP3    H234350   6.107  -0.051   3.588  0.9861 -0.9468 -1.9653
11465TIP3   OH234351   5.505   4.097   3.167 -0.5301 -0.4132  0.6223
11465TIP3    H134352   5.465   4.119   3.083 -2.1247 -1.6935  0.9953
11465TIP3    H234353   5.583   4.152   3.172 -0.9418  0.4011 -1.2437
11466TIP3   OH234354   1.511   2.250   2.274 -0.6307  0.3607  0.1050
11466TIP3    H134355   1.517   2.323   2.336 -0.9778 -0.5434  1.2556
11466TIP3    H234356   1.568   2.182   2.312 -0.3322  0.0182 -0.9237
11467TIP3   OH234357   4.615   7.669   1.126  0.2459  0.3842 -0.6272
11467TIP3    H134358   4.589   7.596   1.069  1.6336 -1.6802  1.1870
11467TIP3    H234359   4.702   7.693   1.096  0.1126  0.7710 -0.7112
11468TIP3   OH234360   1.155   2.860   6.684  0.0403  0.4579 -0.6186
11468TIP3    H134361   1.109   2.942   6.698 -0.8423  0.0665 -1.1274
11468TIP3    H234362   1.101   2.794   6.729  0.1200  0.0006 -1.1807
11469TIP3   OH234363   1.956   5.677   0.159  0.2903 -0.0458 -0.0461
11469TIP3    H134364   1.874   5.633   0.137 -0.6904  0.7004  1.8749
11469TIP3    H234365   1.931   5.769   0.170  1.1586  0.0298  1.5597
11470TIP3   OH234366   4.083   0.288   6.086 -0.4021  0.4460 -0.1411
11470TIP3    H134367   4.160   0.282   6.142 -0.4209  0.0268 -0.1557
11470TIP3    H234368   4.105   0.355   6.021  0.5250 -0.6830 -1.0345
11471TIP3   OH234369   1.298   6.932   5.970 -0.1692  0.0601 -0.3184
11471TIP3    H134370   1.365   6.994   5.998  0.7926  0.4567 -3.2543
11471TIP3    H234371   1.218   6.963   6.015  0.8780  1.6238  0.5884
11472TIP3   OH234372   0.851   1.230   4.576  0.4135 -0.5980 -0.4448
11472TIP3    H134373   0.776   1.277   4.539  0.4854 -0.8666 -0.9410
11472TIP3    H234374   0.833   1.225   4.670 -0.2398 -0.7628 -0.5779
11473TIP3   OH234375   4.746   5.814   2.884  0.4552  0.4665 -0.0940
11473TIP3    H134376   4.660   5.829   2.846 -0.2791 -1.8547  0.4818
11473TIP3    H234377   4.729   5.789   2.975  1.6975 -0.3530 -0.0505
11474TIP3   OH234378   3.929   3.552   5.706 -0.0766 -0.0354  0.0806
11474TIP3    H134379   3.966   3.515   5.786  1.6609  0.5247 -0.4100
11474TIP3    H234380   3.886   3.632   5.734 -0.5854 -0.4933  0.6227
11475TIP3   OH234381   2.367   0.267   1.384 -0.6260 -0.2234  0.8967
11475TIP3    H134382   2.274   0.249   1.400 -0.1635 -0.9592  3.0588
11475TIP3    H234383   2.406   0.181   1.371 -0.0924  0.0161  0.8869
11476TIP3   OH234384   6.066   5.040   3.326 -0.3369  0.5498  0.7206
11476TIP3    H134385   6.132   5.109   3.323 -0.0713  0.2629 -1.2099
11476TIP3    H234386   5.993   5.073   3.274 -0.2948 -0.5252 -0.0556
11477TIP3   OH234387   4.375   3.371   0.689  0.1386 -0.4534 -0.2598
11477TIP3    H134388   4.395   3.421   0.768  0.5219  1.0035 -1.2523
11477TIP3    H234389   4.330   3.293   0.721  0.8104 -0.1763  1.4354
11478TIP3   OH234390   2.491   2.190   3.972 -0.1285 -0.2289  0.1484
11478TIP3    H134391   2.405   2.215   4.005  0.3407  0.2680  1.0541
11478TIP3    H234392   2.501   2.098   3.999 -0.4105 -0.3077 -0.0236
11479TIP3   OH234393   8.081   0.419   4.061 -0.5195  0.2768  0.3392
11479TIP3    H134394   8.157   0.361   4.059 -0.9468 -0.3671  1.7222
11479TIP3    H234395   8.006   0.361   4.069 -1.1569  0.9253 -0.5801
11480TIP3   OH234396   7.315   6.675   4.353 -0.3861 -0.4769 -0.5164
11480TIP3    H134397   7.359   6.749   4.312 -0.3404 -0.4114 -0.3512
11480TIP3    H234398   7.380   6.639   4.414 -0.6331 -0.2447 -0.1113
11481TIP3   OH234399   7.467   0.389   5.868 -0.3548 -0.1478 -0.0058
11481TIP3    H134400   7.478   0.330   5.794  0.5438 -0.0440  0.0425
11481TIP3    H234401   7.556   0.414   5.893 -0.7125  1.7561 -0.4414
11482TIP3   OH234402   6.690   2.820   0.081 -0.1765 -0.5529  0.3174
11482TIP3    H134403   6.694   2.767   0.001  1.4106 -2.8115  1.8120
11482TIP3    H234404   6.632   2.772   0.139  0.4696 -0.1152  1.3417
11483TIP3   OH234405   0.169   7.483   2.560 -0.6107 -0.0505 -0.0259
11483TIP3    H134406   0.247   7.502   2.612 -0.4203 -0.8678  0.0096
11483TIP3    H234407   0.154   7.389   2.574 -2.9354  0.5095  1.7493
11484TIP3   OH234408   6.218   6.305   0.494 -0.4200  0.0248  0.2068
11484TIP3    H134409   6.247   6.396   0.496  1.2290 -0.4880  0.6777
11484TIP3    H234410   6.250   6.267   0.576  0.5264 -1.4348 -0.7896
11485TIP3   OH234411   1.944   3.411   5.084 -0.4105  0.1529 -0.0163
11485TIP3    H134412   2.027   3.459   5.078 -1.1086  1.2805 -1.2365
11485TIP3    H234413   1.893   3.459   5.149 -0.4015 -0.0916  0.1747
11486TIP3   OH234414   8.010   7.468   5.299  0.0386  0.6924 -0.9243
11486TIP3    H134415   8.033   7.558   5.275  1.4788  0.4421 -0.5693
11486TIP3    H234416   8.057   7.452   5.381  0.4448 -0.6246 -1.3842
11487TIP3   OH234417   0.194   6.069   2.738 -0.1874 -0.3015 -0.5725
11487TIP3    H134418   0.130   6.097   2.672 -1.0093  3.6384  1.6429
11487TIP3    H234419   0.278   6.070   2.692 -1.0364 -0.4597 -2.2119
11488TIP3   OH234420   5.181   5.601   5.175 -0.3594  0.0503  0.7309
11488TIP3    H134421   5.260   5.604   5.229  1.8734  1.3582 -2.2968
11488TIP3    H234422   5.152   5.691   5.169  1.2700  0.5053 -2.4659
11489TIP3   OH234423   6.622   5.628   4.131  0.4770 -0.3749  0.0238
11489TIP3    H134424   6.712   5.646   4.104  0.5050 -1.3896 -0.6036
11489TIP3    H234425   6.580   5.715   4.135  0.6105 -0.0698 -2.8155
11490TIP3   OH234426   5.511   4.637   1.252  0.0486  0.1170  0.4959
11490TIP3    H134427   5.550   4.575   1.189 -0.3107  0.9137 -0.5402
11490TIP3    H234428   5.433   4.592   1.284  0.6517 -0.6142  0.9627
11491TIP3   OH234429   5.891   0.130   6.099  0.0479 -0.1604 -0.1154
11491TIP3    H134430   5.873   0.078   6.177 -1.1937  0.1668 -0.1608
11491TIP3    H234431   5.944   0.072   6.043  1.8096 -0.0531  1.3482
11492TIP3   OH234432   5.315   6.831   0.829 -0.4530 -0.0429  0.7479
11492TIP3    H134433   5.357   6.746   0.815  1.0949  0.5311  1.6447
11492TIP3    H234434   5.234   6.827   0.778 -0.0895 -1.8042  0.2580
11493TIP3   OH234435   5.357   1.695   3.609 -0.5193 -0.1863 -0.3322
11493TIP3    H134436   5.347   1.605   3.578 -2.5588 -0.2095  0.2201
11493TIP3    H234437   5.418   1.688   3.682 -0.8263 -1.1785 -0.1499
11494TIP3   OH234438   2.433   4.760   1.295 -0.7013 -0.0490  0.0528
11494TIP3    H134439   2.497   4.813   1.344 -0.3001  0.3828 -0.9115
11494TIP3    H234440   2.474   4.673   1.288  0.4685  0.5849 -1.7588
11495TIP3   OH234441   0.237   2.040   5.652 -0.0410  0.0116  0.3878
11495TIP3    H134442   0.252   2.100   5.725 -0.8027  0.7076 -0.0071
11495TIP3    H234443   0.316   1.985   5.649  0.5106  0.7480  0.9941
11496TIP3   OH234444   0.259   4.546   2.018  0.2038  0.0487 -0.3813
11496TIP3    H134445   0.229   4.518   1.932 -0.0395  0.8452 -0.5729
11496TIP3    H234446   0.195   4.510   2.079 -0.9038  1.2963 -0.7437
11497TIP3   OH234447   3.865   3.211   2.179 -0.6189  0.2449 -0.5965
11497TIP3    H134448   3.777   3.221   2.143 -0.9912 -0.0404  0.2037
11497TIP3    H234449   3.924   3.235   2.107 -1.3393  0.0814 -1.2503
11498TIP3   OH234450   4.896   3.583   4.313  0.1650 -0.2948 -0.3486
11498TIP3    H134451   4.851   3.499   4.324  0.4340 -0.4565 -0.4667
11498TIP3    H234452   4.920   3.610   4.401  3.5986 -2.2805 -0.4850
11499TIP3   OH234453   0.116   3.483   3.574  0.1140  0.0637 -0.3185
11499TIP3    H134454   0.151   3.396   3.556  1.6877  0.5382  0.2677
11499TIP3    H234455   0.028   3.482   3.537 -0.6695 -2.4318  1.3571
11500TIP3   OH234456   5.441   2.910   6.751 -0.6116 -0.1225  1.2468
11500TIP3    H134457   5.444   2.915   6.656  0.2020 -1.1090  1.2074
11500TIP3    H234458   5.360   2.956   6.775 -1.5430 -1.0435 -0.0053
11501TIP3   OH234459   5.315   4.545   3.534 -0.3341  0.4849  0.2052
11501TIP3    H134460   5.344   4.494   3.458  2.8472  0.2515  1.4439
11501TIP3    H234461   5.319   4.636   3.505  1.3154  0.4264  0.2022
11502TIP3   OH234462   1.768   2.179   3.133  0.1177  0.2958 -0.2308
11502TIP3    H134463   1.737   2.100   3.178  0.7617 -0.9466 -1.8294
11502TIP3    H234464   1.859   2.187   3.159 -0.2877  1.2845  0.9286
11503TIP3   OH234465   5.673   5.037   3.511  0.1248  0.0346 -0.0942
11503TIP3    H134466   5.595   5.072   3.469 -1.0505 -2.6697 -0.4124
11503TIP3    H234467   5.640   4.985   3.585  1.8050  0.5574  1.1036
11504TIP3   OH234468   8.300   0.521   3.920 -0.6191  0.5251 -0.0459
11504TIP3    H134469   8.316   0.443   3.866 -0.4715  0.0483  0.6830
11504TIP3    H234470   8.206   0.518   3.938 -0.2850 -0.6089  1.6717
11505TIP3   OH234471   5.916   1.028   0.981 -0.0380 -0.2275  0.4563
11505TIP3    H134472   5.919   1.019   0.885 -1.7087  0.0766  0.3420
11505TIP3    H234473   6.007   1.026   1.008  0.5147  0.4402 -1.2249
11506TIP3   OH234474   1.147   5.451   4.255 -0.3682  0.4725 -0.1891
11506TIP3    H134475   1.125   5.470   4.164  0.4254  3.6519  0.1383
11506TIP3    H234476   1.097   5.515   4.306  1.1870  0.5410  1.3598
11507TIP3   OH234477   0.786   4.586   3.402  0.1949  0.0422  0.0690
11507TIP3    H134478   0.870   4.562   3.441  0.2502 -0.2080 -0.1989
11507TIP3    H234479   0.809   4.650   3.335  0.0544  0.8187  0.7445
11508TIP3   OH234480   0.755   6.525   2.285  0.0191  0.6653  0.1522
11508TIP3    H134481   0.696   6.550   2.213  0.5187  0.0928 -0.4774
11508TIP3    H234482   0.826   6.477   2.241  0.2207  0.1163  1.0619
11509TIP3   OH234483   5.890   2.813   3.207  0.0161  0.2981  0.2732
11509TIP3    H134484   5.827   2.874   3.246  0.4393 -0.1511  1.7207
11509TIP3    H234485   5.974   2.857   3.216 -0.1529  1.6575 -3.1562
11510TIP3   OH234486   1.336   6.870   3.667  0.0337 -0.2765 -0.3363
11510TIP3    H134487   1.353   6.911   3.751 -0.5171  0.9324 -0.7965
11510TIP3    H234488   1.301   6.940   3.612  0.0368 -1.1226 -1.4648
11511TIP3   OH234489   2.903   6.468   5.126  0.1352 -0.2028 -0.3508
11511TIP3    H134490   2.959   6.427   5.192  1.8415 -1.1426 -2.2662
11511TIP3    H234491   2.945   6.553   5.110 -0.5390  0.2184  0.0565
11512TIP3   OH234492   0.785   7.606   5.145  0.4328 -0.4923 -0.0512
11512TIP3    H134493   0.742   7.545   5.206 -0.3355 -0.9989 -1.0743
11512TIP3    H234494   0.714   7.663   5.115  0.9207  0.1356 -0.0522
11513TIP3   OH234495   6.344   1.164   5.986 -0.3427  0.0679  0.0237
11513TIP3    H134496   6.412   1.097   5.978 -0.5362 -0.0530 -0.6625
11513TIP3    H234497   6.288   1.132   6.057 -0.0716 -0.1769  0.1311
11514TIP3   OH234498   2.260   5.940   0.895 -0.0240  0.0191  0.7158
11514TIP3    H134499   2.308   5.863   0.865 -0.6622  0.6592 -2.2283
11514TIP3    H234500   2.171   5.910   0.908 -0.4937  0.3998 -1.3829
11515TIP3   OH234501   0.995   5.053   6.500 -0.3593 -0.0601  0.3972
11515TIP3    H134502   1.008   5.146   6.481  1.7666 -0.0395  1.6116
11515TIP3    H234503   1.032   5.042   6.588 -2.0042 -1.7710  0.9433
11516TIP3   OH234504   0.089   5.185   4.601  0.2909  0.2949  0.0597
11516TIP3    H134505   0.130   5.181   4.515 -0.8009 -1.8234 -0.4244
11516TIP3    H234506   0.128   5.262   4.643  0.7694  1.4446 -2.3477
11517TIP3   OH234507   2.522   6.728   6.229  0.5815 -0.3038 -0.0026
11517TIP3    H134508   2.581   6.802   6.245 -0.0566 -0.0095  1.1084
11517TIP3    H234509   2.559   6.657   6.282  0.0683 -0.1885  0.5082
11518TIP3   OH234510   2.973   7.289   3.458  0.4116  0.3899  0.1671
11518TIP3    H134511   2.992   7.214   3.514 -2.1182 -0.5152 -0.0568
11518TIP3    H234512   2.951   7.359   3.520 -3.0380 -0.7911  0.4985
11519TIP3   OH234513   2.693   2.654   5.798 -0.1790  0.2664  0.3254
11519TIP3    H134514   2.666   2.663   5.707  1.0830  0.5077 -0.0450
11519TIP3    H234515   2.788   2.672   5.797  0.4084 -2.3804  1.2499
11520TIP3   OH234516   5.373   3.581   0.065 -0.2700 -0.6856  0.7166
11520TIP3    H134517   5.370   3.573  -0.030  0.7637  0.7577  0.5357
11520TIP3    H234518   5.281   3.574   0.092 -0.5051 -2.0034 -0.2711
11521TIP3   OH234519   0.373   1.262   6.032 -0.2742  0.1758  0.5284
11521TIP3    H134520   0.368   1.268   6.127 -0.6625 -0.7424  0.5789
11521TIP3    H234521   0.442   1.198   6.015 -1.1715 -0.7579  0.2475
11522TIP3   OH234522   5.762   1.473   5.994 -0.0472  0.3171 -0.1161
11522TIP3    H134523   5.772   1.486   5.900  1.0125 -1.8151 -0.3512
11522TIP3    H234524   5.850   1.451   6.025 -1.1578 -5.1457  0.1887
11523TIP3   OH234525   6.442   6.052   6.283  0.4228  0.4079  0.3839
11523TIP3    H134526   6.406   5.968   6.314  1.7837 -0.6188 -0.6672
11523TIP3    H234527   6.492   6.028   6.204  0.1488  2.3499 -0.4234
11524TIP3   OH234528   6.293   4.884   6.142 -0.1267 -0.3838  0.0382
11524TIP3    H134529   6.241   4.960   6.171 -0.4773  0.0289 -1.5689
11524TIP3    H234530   6.384   4.911   6.155 -0.2625 -0.4708  1.3208
11525TIP3   OH234531   7.564   1.731   3.092  0.4879  0.9693 -0.2536
11525TIP3    H134532   7.518   1.797   3.039 -0.7238  1.2558  1.0771
11525TIP3    H234533   7.608   1.676   3.029  0.9537  2.6351 -1.4511
11526TIP3   OH234534   5.849   5.680   0.997  0.6400 -0.5843  0.2005
11526TIP3    H134535   5.843   5.653   1.089 -0.6346 -1.5485 -0.1445
11526TIP3    H234536   5.760   5.707   0.974  1.0156 -0.0461 -0.6689
11527TIP3   OH234537   2.182   4.583   0.440 -0.5073 -0.9217  0.1564
11527TIP3    H134538   2.149   4.574   0.529  0.5022  0.2746  0.6801
11527TIP3    H234539   2.169   4.675   0.418  1.6913 -0.5702  0.1089
11528TIP3   OH234540   6.256   6.994   1.592 -0.0491 -0.0002 -0.0379
11528TIP3    H134541   6.287   6.914   1.634  1.2660  0.8941  0.7875
11528TIP3    H234542   6.175   7.016   1.639  1.4200  1.0209  2.2177
11529TIP3   OH234543   0.996   5.812   5.835  0.4422 -0.4609 -0.5265
11529TIP3    H134544   0.974   5.901   5.863 -1.2441 -1.6611  2.3807
11529TIP3    H234545   1.062   5.824   5.766  0.2284  2.9947 -0.2941
11530TIP3   OH234546   6.397   1.419   5.862  0.1129  0.2176 -0.0045
11530TIP3    H134547   6.404   1.325   5.880 -1.7869  0.0259 -0.0999
11530TIP3    H234548   6.433   1.429   5.774  0.7153 -0.3393  0.1677
11531TIP3   OH234549   7.615   7.315   4.536 -0.3206  0.5392  0.2846
11531TIP3    H134550   7.652   7.390   4.581  1.0229 -0.2798  0.5918
11531TIP3    H234551   7.540   7.351   4.488  0.6762  2.1916 -0.1192
11532TIP3   OH234552   1.839   6.036   2.958 -0.6288  0.1781 -0.1227
11532TIP3    H134553   1.821   6.001   3.045 -0.5965  0.7989  0.1394
11532TIP3    H234554   1.910   5.982   2.925 -0.2567  0.2962  0.4636
11533TIP3   OH234555   8.217   6.335   5.545 -0.3001 -0.0171 -0.2084
11533TIP3    H134556   8.296   6.303   5.501 -0.5604  0.2270 -0.8710
11533TIP3    H234557   8.160   6.364   5.473 -0.9964 -0.2081  0.2576
11534TIP3   OH234558   3.117   7.586   1.022  0.2643  0.4307 -0.1466
11534TIP3    H134559   3.190   7.559   0.968  1.0354 -0.1216  1.1211
11534TIP3    H234560   3.069   7.505   1.040 -2.3282  1.0880 -3.1770
11535TIP3   OH234561   7.442   0.906   0.839 -0.2450 -0.0586 -0.6556
11535TIP3    H134562   7.499   0.867   0.905  0.6041 -0.1104 -1.3944
11535TIP3    H234563   7.500   0.962   0.787 -1.2399  1.4126 -0.2536
11536TIP3   OH234564   8.162   5.985   1.287 -0.1012  0.1915  0.1225
11536TIP3    H134565   8.137   5.894   1.274  1.0875 -0.1924  0.3747
11536TIP3    H234566   8.207   6.009   1.207  2.1212 -0.3756  1.1123
11537TIP3   OH234567   3.510   1.165   5.108  0.0341 -0.4761  0.2639
11537TIP3    H134568   3.569   1.093   5.084 -0.7247 -0.7807 -0.7763
11537TIP3    H234569   3.466   1.134   5.187  0.5856 -0.6305  0.5222
11538TIP3   OH234570   4.683   6.097   2.963  0.1824  0.3309  0.2207
11538TIP3    H134571   4.729   6.013   2.972 -0.4504  0.1616  2.3108
11538TIP3    H234572   4.616   6.095   3.031 -1.1531  1.7335 -0.9811
11539TIP3   OH234573   1.789   6.672   6.611 -0.3531  0.2359 -0.0797
11539TIP3    H134574   1.766   6.738   6.676 -0.0824  0.3168 -0.0641
11539TIP3    H234575   1.870   6.705   6.571 -0.4932  0.1658 -0.4253
11540TIP3   OH234576   1.375   1.596   6.724 -0.6012  0.0997 -0.5976
11540TIP3    H134577   1.426   1.517   6.741 -1.4181 -0.1897  0.6311
11540TIP3    H234578   1.346   1.587   6.633 -0.7403 -1.0515 -0.4508
11541TIP3   OH234579   8.238   3.489   6.448  0.0176 -0.3891  0.4601
11541TIP3    H134580   8.270   3.536   6.524 -1.9066  1.1386  0.3932
11541TIP3    H234581   8.143   3.497   6.452 -0.4233 -3.7142  0.0380
11542TIP3   OH234582   2.207   5.407   5.117 -0.0928  0.0899 -0.0064
11542TIP3    H134583   2.120   5.447   5.114  0.1041  0.4808 -1.0014
11542TIP3    H234584   2.266   5.480   5.138  0.5472  0.9611 -3.9866
11543TIP3   OH234585   4.014   0.958   0.374 -0.3151  0.2794  0.5440
11543TIP3    H134586   4.022   0.989   0.464 -0.5415  0.2915  0.5592
11543TIP3    H234587   4.103   0.930   0.351 -0.0609  1.1449  0.4534
11544TIP3   OH234588   2.158   6.039   3.442 -0.0235  0.0129 -0.6968
11544TIP3    H134589   2.079   6.093   3.436  0.4336  0.9189  0.7732
11544TIP3    H234590   2.229   6.102   3.447  0.4434 -0.5691  2.4226
11545TIP3   OH234591   3.511   7.777   2.709  0.1045 -0.2555 -0.4244
11545TIP3    H134592   3.546   7.794   2.621  0.5197  1.1631 -0.0195
11545TIP3    H234593   3.436   7.835   2.716  1.3889  1.3712  0.9250
11546TIP3   OH234594   2.434   1.849   3.448 -0.0310 -0.3533 -0.2010
11546TIP3    H134595   2.395   1.763   3.457 -1.6251  0.4136  0.5441
11546TIP3    H234596   2.499   1.854   3.518 -0.4913 -0.6549  0.2450
11547TIP3   OH234597   4.520   1.818   4.477 -0.4077 -0.1984  0.1131
11547TIP3    H134598   4.488   1.803   4.566 -1.1422  0.8437  0.0463
11547TIP3    H234599   4.560   1.905   4.480  0.4864 -0.5832 -0.3388
11548TIP3   OH234600   2.184   1.573   5.669 -0.4076  0.6213 -0.4666
11548TIP3    H134601   2.111   1.572   5.730 -0.3966  0.0882 -0.4564
11548TIP3    H234602   2.148   1.611   5.589  0.0408  3.0645  0.4065
11549TIP3   OH234603   2.199   6.809   5.171  0.1740 -0.2079  0.0432
11549TIP3    H134604   2.210   6.722   5.208  1.4568 -0.1853 -0.2563
11549TIP3    H234605   2.223   6.799   5.079  2.2834  0.8377  0.4162
11550TIP3   OH234606   2.654   0.594   4.991 -0.5151  0.0713  0.0864
11550TIP3    H134607   2.647   0.673   5.044 -0.9999  1.0426 -1.3512
11550TIP3    H234608   2.733   0.608   4.938 -2.0122  0.8669 -2.0716
11551TIP3   OH234609   4.343   0.483   2.577 -0.0586 -0.1735  0.2574
11551TIP3    H134610   4.295   0.543   2.520 -0.5904  0.2543  1.1251
11551TIP3    H234611   4.434   0.491   2.550 -0.5590 -2.0449 -2.3716
11552TIP3   OH234612   2.135   4.327   0.832  0.2420 -0.5010 -0.0409
11552TIP3    H134613   2.225   4.300   0.815 -0.5761 -2.0412 -2.3586
11552TIP3    H234614   2.081   4.265   0.783 -1.9783  2.1635 -1.2419
11553TIP3   OH234615   6.121   5.172   1.105  0.0243 -0.6478  0.2525
11553TIP3    H134616   6.062   5.117   1.053  1.2567 -0.8483 -1.0018
11553TIP3    H234617   6.186   5.112   1.140 -0.7327 -0.4957  2.0018
11554TIP3   OH234618   3.068   0.492   5.751 -0.3203 -0.1359  0.3724
11554TIP3    H134619   3.104   0.557   5.691 -0.0677 -0.6416 -0.0342
11554TIP3    H234620   3.064   0.412   5.699  0.8977 -0.8468  1.3329
11555TIP3   OH234621   2.086   2.709   6.370  0.2062  0.7177  0.3756
11555TIP3    H134622   2.126   2.796   6.378  1.2234  0.4666 -1.3629
11555TIP3    H234623   1.993   2.726   6.356  0.6432  1.6612 -1.7704
11556TIP3   OH234624   1.099   6.574   3.894 -0.0796  0.2206  0.0112
11556TIP3    H134625   1.092   6.499   3.835 -0.6230 -0.0414  0.4003
11556TIP3    H234626   1.075   6.649   3.841 -0.9099 -0.0553 -0.0200
11557TIP3   OH234627   2.540   1.298   3.634 -0.3944 -0.2601 -0.2856
11557TIP3    H134628   2.496   1.381   3.651 -1.3138 -0.3602 -1.8945
11557TIP3    H234629   2.520   1.244   3.710  0.1977  0.9598  0.7762
11558TIP3   OH234630   7.300   4.097   6.043  0.4902 -0.4708  0.0154
11558TIP3    H134631   7.296   4.028   5.977 -0.1969  1.1844 -1.7695
11558TIP3    H234632   7.331   4.175   5.996 -0.5822  0.9392  1.4863
11559TIP3   OH234633   7.263   7.268   6.712  0.1042  0.1056 -0.4944
11559TIP3    H134634   7.192   7.221   6.757  0.7099 -1.1062 -0.7841
11559TIP3    H234635   7.219   7.343   6.671 -0.6050  0.8110  1.4183
11560TIP3   OH234636   7.092   7.791   3.935 -0.2644  0.1564  0.7163
11560TIP3    H134637   7.123   7.810   3.847 -2.5181  1.3256  0.0973
11560TIP3    H234638   7.119   7.701   3.952  0.6699  0.0880 -0.9433
11561TIP3   OH234639   0.949   6.119   3.846  0.3606 -0.2807 -0.6131
11561TIP3    H134640   0.861   6.157   3.845  0.9472  1.1451 -0.9724
11561TIP3    H234641   0.968   6.103   3.938  0.3854  1.0480 -0.3732
11562TIP3   OH234642   2.347   0.650   4.829  0.0168 -0.1355 -0.2059
11562TIP3    H134643   2.325   0.598   4.906 -0.1901  0.2877  0.0270
11562TIP3    H234644   2.422   0.703   4.857  0.0706 -0.1278 -0.3627
11563TIP3   OH234645   5.564   0.877   2.055 -0.3780 -0.7623 -0.0426
11563TIP3    H134646   5.618   0.803   2.029 -0.4911 -0.8547 -0.0147
11563TIP3    H234647   5.622   0.930   2.111 -0.1045 -0.5094 -0.5597
11564TIP3   OH234648   7.506   0.530   1.523 -0.7084  0.5946  0.0297
11564TIP3    H134649   7.527   0.549   1.614 -1.3818 -0.2644  0.3708
11564TIP3    H234650   7.411   0.537   1.518 -0.8949 -1.4213 -0.1002
11565TIP3   OH234651   6.004   1.870   5.451  0.0419  0.2743  0.3917
11565TIP3    H134652   6.099   1.863   5.445  0.1268  0.9410  0.8253
11565TIP3    H234653   5.989   1.954   5.495 -0.7592  0.4768 -0.2283
11566TIP3   OH234654   7.163   2.901   0.410  0.2234 -0.3683 -0.2854
11566TIP3    H134655   7.106   2.978   0.410 -1.1787 -1.3210  1.4523
11566TIP3    H234656   7.243   2.930   0.453  0.7708  0.7419 -1.9221
11567TIP3   OH234657   0.907   2.973   1.086  0.3085  0.2597 -0.4769
11567TIP3    H134658   0.966   3.007   1.154 -0.7069 -2.3723  1.9293
11567TIP3    H234659   0.827   3.025   1.096 -0.0918 -0.5670  0.9292
11568TIP3   OH234660   3.513   3.482   4.341 -0.1492 -0.0860  0.2378
11568TIP3    H134661   3.586   3.534   4.307 -0.8417  1.2290  0.7018
11568TIP3    H234662   3.436   3.518   4.297 -0.4897 -1.9295 -0.8021
11569TIP3   OH234663   4.858   5.658   5.192 -0.1788 -0.5649 -0.2385
11569TIP3    H134664   4.768   5.631   5.174  0.2822 -1.6782 -1.0181
11569TIP3    H234665   4.890   5.691   5.108  0.6905 -1.8603 -0.4390
11570TIP3   OH234666   4.951   3.653   1.005  0.0567 -0.2994  0.6052
11570TIP3    H134667   4.999   3.609   0.935  1.5062  0.2917  1.1957
11570TIP3    H234668   5.006   3.728   1.029 -0.6361 -0.2149  2.0346
11571TIP3   OH234669   1.543   1.426   1.100 -0.0558  0.2925  0.7741
11571TIP3    H134670   1.544   1.468   1.014 -1.9139 -0.4110  0.3434
11571TIP3    H234671   1.509   1.494   1.159  1.0727  0.7273  0.9367
11572TIP3   OH234672   6.143   3.888   0.789  0.5897 -0.1956 -0.1078
11572TIP3    H134673   6.207   3.898   0.719  1.2164 -0.6393  0.3767
11572TIP3    H234674   6.113   3.977   0.808  1.3389  0.0603 -0.1002
11573TIP3   OH234675   2.176   5.648   5.880 -0.2963 -0.2697 -0.1688
11573TIP3    H134676   2.135   5.580   5.933 -0.9584  0.8109  0.7350
11573TIP3    H234677   2.116   5.723   5.885  1.7374  1.3851  1.1946
11574TIP3   OH234678   2.138   1.040   2.672 -0.7236 -0.0381 -0.7607
11574TIP3    H134679   2.086   1.121   2.666  2.4129  2.1829 -0.3442
11574TIP3    H234680   2.164   1.021   2.582  1.3486  1.5192 -0.5621
11575TIP3   OH234681   6.016   0.407   5.304 -0.0298  0.1499 -0.2577
11575TIP3    H134682   6.079   0.434   5.370  0.4223 -1.2409 -0.0700
11575TIP3    H234683   5.962   0.340   5.347 -0.2305 -0.2229 -1.0511
11576TIP3   OH234684   3.887   2.029   2.798  0.5261  0.0480  0.3654
11576TIP3    H134685   3.980   2.033   2.819  1.1625 -1.4045 -1.8040
11576TIP3    H234686   3.848   2.100   2.848  2.9334  1.2459  0.6810
11577TIP3   OH234687   4.775   7.138   1.361  0.3852 -0.0367  0.4465
11577TIP3    H134688   4.867   7.111   1.362  0.2867 -0.5096 -1.2851
11577TIP3    H234689   4.726   7.057   1.350 -0.2207  0.2952  0.6256
11578TIP3   OH234690   6.089   1.960   2.858 -0.3365 -0.1945  0.4680
11578TIP3    H134691   6.062   1.934   2.769  0.6897 -0.0956  0.1082
11578TIP3    H234692   6.158   1.897   2.880  1.2939  1.3954  0.1027
11579TIP3   OH234693   7.572   4.812   2.449  0.2089 -0.1528  0.0558
11579TIP3    H134694   7.634   4.869   2.403  1.1387 -0.5507  0.7957
11579TIP3    H234695   7.581   4.835   2.541 -1.8140  0.8015  0.0761
11580TIP3   OH234696   4.626   4.672   4.464 -0.6501  0.4361 -0.0749
11580TIP3    H134697   4.622   4.591   4.414  0.6019  1.2396 -1.5801
11580TIP3    H234698   4.638   4.741   4.398  0.1529  1.6496  1.2609
11581TIP3   OH234699   0.252   3.286   2.287 -0.0769  0.1768  0.0343
11581TIP3    H134700   0.335   3.333   2.286 -0.0863  0.2128  0.5719
11581TIP3    H234701   0.235   3.265   2.195 -1.2072  3.2402 -0.5994
11582TIP3   OH234702   3.433   2.868   4.793  0.2527 -0.6795 -0.4969
11582TIP3    H134703   3.426   2.773   4.807 -2.3299 -0.5278 -0.2375
11582TIP3    H234704   3.374   2.886   4.720 -0.0621  0.8363  0.0916
11583TIP3   OH234705   6.035   5.075   6.603 -0.3796 -0.4822  0.0152
11583TIP3    H134706   6.020   5.057   6.696 -0.1732  1.2933  0.4335
11583TIP3    H234707   6.123   5.114   6.601  0.6695 -2.7534 -1.2683
11584TIP3   OH234708   5.734   6.186   4.680  0.4411  0.5562  0.9508
11584TIP3    H134709   5.665   6.127   4.651 -1.3569  2.4036  1.2899
11584TIP3    H234710   5.794   6.130   4.731 -2.7617 -0.5424  3.8895
11585TIP3   OH234711   4.093   6.535   1.009 -0.2656  0.1881 -0.0711
11585TIP3    H134712   4.166   6.521   0.949  0.9036  0.8632  1.1635
11585TIP3    H234713   4.045   6.452   1.007  2.3847 -1.5426  1.5437
11586TIP3   OH234714   6.555   3.641   1.419  0.0016  0.3988 -0.4458
11586TIP3    H134715   6.505   3.617   1.341 -0.2856  0.8046 -0.3898
11586TIP3    H234716   6.502   3.708   1.462  0.2704  0.3474 -0.0241
11587TIP3   OH234717   4.709   2.475   2.720  0.3919  0.1760  0.1595
11587TIP3    H134718   4.668   2.413   2.660 -0.2085 -0.4326  1.1718
11587TIP3    H234719   4.799   2.483   2.689 -0.0388  0.2802 -1.1223
11588TIP3   OH234720   7.002   6.997   3.132  0.3511 -0.1115 -0.0894
11588TIP3    H134721   6.982   6.961   3.218 -0.0982  1.3256  0.4416
11588TIP3    H234722   6.921   7.038   3.103  1.3880  2.5398  0.4267
11589TIP3   OH234723   8.209   1.583   3.545 -0.1040 -0.2694 -0.3047
11589TIP3    H134724   8.266   1.658   3.525 -0.7588  0.1450 -0.6345
11589TIP3    H234725   8.195   1.588   3.639  1.8266 -1.3999  0.1145
11590TIP3   OH234726   2.175   7.715   3.763  0.0808 -0.1672  0.2727
11590TIP3    H134727   2.253   7.673   3.798 -0.8745 -0.9418  1.5628
11590TIP3    H234728   2.157   7.787   3.823  0.0156  0.2665 -0.2527
11591TIP3   OH234729   6.619   7.154   4.036 -0.1097 -0.5458 -0.5690
11591TIP3    H134730   6.580   7.219   3.977  0.1680 -0.4779 -0.6821
11591TIP3    H234731   6.585   7.070   4.005  0.8596 -0.6149 -1.5072
11592TIP3   OH234732   3.605   3.315   6.171 -0.0361  0.5998  0.1121
11592TIP3    H134733   3.601   3.401   6.128  1.2284  0.1400 -0.9898
11592TIP3    H234734   3.554   3.258   6.115  1.4779  0.0348 -0.7503
11593TIP3   OH234735   3.130   7.616   5.166 -0.6864  0.3614 -0.0696
11593TIP3    H134736   3.041   7.623   5.131 -0.6065  2.6941  0.0470
11593TIP3    H234737   3.154   7.706   5.189  1.4535 -0.3087  0.5482
11594TIP3   OH234738   5.630   6.310   1.565  0.1680 -0.0790  0.2799
11594TIP3    H134739   5.649   6.294   1.472 -0.0582 -1.7036  0.4697
11594TIP3    H234740   5.675   6.392   1.585  0.4804  0.1465 -1.1831
11595TIP3   OH234741   6.311   1.178   6.374  0.2074  0.2053 -0.2651
11595TIP3    H134742   6.267   1.156   6.292  0.0750 -1.1708  0.1433
11595TIP3    H234743   6.361   1.100   6.396 -1.0618 -0.1137  1.7829
11596TIP3   OH234744   5.667   2.200   5.133 -0.5205 -0.2655  0.1398
11596TIP3    H134745   5.698   2.139   5.066 -1.4106 -1.8191  1.0820
11596TIP3    H234746   5.596   2.249   5.090 -0.3446 -0.4565 -0.3796
11597TIP3   OH234747   7.377   3.113   4.753  0.4478  0.1446 -0.0804
11597TIP3    H134748   7.294   3.083   4.715  1.3171 -2.0980 -0.3062
11597TIP3    H234749   7.417   3.164   4.683 -0.2974  0.4423 -0.3048
11598TIP3   OH234750   7.395   4.890   3.348 -0.5262 -0.5659  0.3222
11598TIP3    H134751   7.444   4.840   3.413  3.0973  2.0861 -0.0780
11598TIP3    H234752   7.307   4.897   3.385  0.5984 -1.6259  3.5058
11599TIP3   OH234753   3.604   1.622   1.591  0.0782  0.2326  0.3768
11599TIP3    H134754   3.583   1.645   1.681  0.8037  1.2372  0.3045
11599TIP3    H234755   3.669   1.553   1.598 -0.0878  0.1015  0.6209
11600TIP3   OH234756   1.688   0.945   0.909  0.6014 -0.3192 -0.6646
11600TIP3    H134757   1.764   0.900   0.872  2.9421  2.1511  0.7619
11600TIP3    H234758   1.719   0.981   0.991 -1.5343  2.4598 -0.9267
11601TIP3   OH234759   2.463   1.703   4.364 -1.0295 -0.3016  0.2588
11601TIP3    H134760   2.525   1.721   4.435 -0.1968 -1.8823 -0.0236
11601TIP3    H234761   2.437   1.612   4.378 -2.0750 -0.1446 -0.5600
11602TIP3   OH234762   7.147  -0.021   6.324 -0.5223  0.0026  0.4058
11602TIP3    H134763   7.165   0.045   6.391  1.0267 -0.0504  0.0911
11602TIP3    H234764   7.181   0.018   6.243 -1.5607 -0.3009 -0.1947
11603TIP3   OH234765   2.318   3.017   3.513 -0.4889 -0.2307 -0.9306
11603TIP3    H134766   2.399   2.970   3.491 -0.3582 -0.2861 -0.3609
11603TIP3    H234767   2.248   2.967   3.471 -0.1954  0.0413 -1.7619
11604TIP3   OH234768   4.266   4.232   1.455 -0.0046 -0.3954  0.0004
11604TIP3    H134769   4.319   4.177   1.513  0.8670 -0.8932 -1.2421
11604TIP3    H234770   4.241   4.175   1.383  0.1129  0.5807 -0.8392
11605TIP3   OH234771   6.740   3.418   4.170  0.4700  0.1365  0.4112
11605TIP3    H134772   6.761   3.334   4.213 -0.5260  0.6427  1.9483
11605TIP3    H234773   6.785   3.483   4.223 -1.4303  0.8510  1.2197
11606TIP3   OH234774   3.255   7.583   0.111 -0.0007 -0.6594  0.4905
11606TIP3    H134775   3.202   7.642   0.163  0.2989  0.6861 -0.6749
11606TIP3    H234776   3.325   7.638   0.076 -0.0908 -1.5502 -1.1718
11607TIP3   OH234777   2.967   3.235   1.821  0.9635  0.1190 -0.6176
11607TIP3    H134778   2.921   3.152   1.808 -1.3383  0.2799  4.1526
11607TIP3    H234779   2.916   3.299   1.770 -2.5068 -0.2665  1.9881
11608TIP3   OH234780   0.284   2.818   4.251  0.1445  0.2013 -0.6117
11608TIP3    H134781   0.209   2.844   4.198  0.3585  0.0621 -0.9818
11608TIP3    H234782   0.340   2.769   4.192  0.4761  0.2050 -0.3057
11609TIP3   OH234783   1.427   3.911   2.967 -0.4505  0.3227  0.5414
11609TIP3    H134784   1.423   3.903   3.062 -1.2988 -0.0783  0.4825
11609TIP3    H234785   1.497   3.974   2.950  0.8852 -0.8819  1.3668
11610TIP3   OH234786   0.911   3.889   4.555 -0.0560  0.2910  0.3448
11610TIP3    H134787   0.844   3.946   4.518 -1.3139 -1.3105  0.0659
11610TIP3    H234788   0.960   3.857   4.480  0.5635  0.8806  0.4895
11611TIP3   OH234789   5.020   4.727   1.925  0.0345 -0.6120 -0.7021
11611TIP3    H134790   5.045   4.659   1.863  0.1824  0.9731 -2.4839
11611TIP3    H234791   5.091   4.791   1.921 -0.6453  0.2238 -0.0014
11612TIP3   OH234792   2.798   5.979   3.851  0.2048  0.7885 -0.2803
11612TIP3    H134793   2.789   5.956   3.759 -0.1070 -2.2361  0.3909
11612TIP3    H234794   2.888   6.008   3.860  0.9510 -1.0581 -1.2108
11613TIP3   OH234795   7.363   4.074   4.696  0.4461  0.2681 -0.0857
11613TIP3    H134796   7.427   4.007   4.671  0.5291  0.6896 -1.0588
11613TIP3    H234797   7.283   4.050   4.648  0.1147  0.1880  0.5055
11614TIP3   OH234798   5.122   4.045   3.407 -0.0155 -0.2232  0.0757
11614TIP3    H134799   5.169   4.088   3.336  0.1607  0.7644  0.7719
11614TIP3    H234800   5.144   3.952   3.398 -0.6895 -0.2630 -1.6718
11615TIP3   OH234801   2.059   0.172   5.045  0.1020  0.4015  0.2891
11615TIP3    H134802   2.086   0.086   5.079 -1.1666 -0.6138 -1.1144
11615TIP3    H234803   2.010   0.151   4.965 -0.9806  2.3904  0.3817
11616TIP3   OH234804   6.615   0.032   1.477 -0.8478  0.6579 -0.2918
11616TIP3    H134805   6.599  -0.062   1.467  3.1821 -0.1690 -0.9025
11616TIP3    H234806   6.602   0.069   1.390 -3.0111  0.8896  0.0661
11617TIP3   OH234807   3.113   3.928   5.559  0.1862 -0.4121  0.3464
11617TIP3    H134808   3.139   4.007   5.512 -2.0855 -1.1575 -2.4127
11617TIP3    H234809   3.196   3.882   5.574  1.1591  0.1477 -2.5572
11618TIP3   OH234810   7.082   6.063   2.061 -0.0610 -0.3550  0.2467
11618TIP3    H134811   7.086   6.039   2.154  1.1480 -0.6769  0.1219
11618TIP3    H234812   7.162   6.113   2.045 -0.9654  1.0043 -0.2881
11619TIP3   OH234813   3.356   2.125   1.655  0.9076  0.4270 -0.1020
11619TIP3    H134814   3.301   2.056   1.693  2.4040 -0.3831  0.7150
11619TIP3    H234815   3.398   2.083   1.580  2.2144  0.2560  0.6974
11620TIP3   OH234816   6.985   3.210   6.330  0.3418 -0.5751  0.0476
11620TIP3    H134817   6.932   3.243   6.402  1.6003 -1.6442  1.5324
11620TIP3    H234818   6.949   3.123   6.312  0.7204 -0.7540  0.1444
11621TIP3   OH234819   5.597   6.615   1.251 -0.1479 -0.1781  0.4716
11621TIP3    H134820   5.536   6.671   1.299 -0.1329 -0.1592  0.4687
11621TIP3    H234821   5.680   6.624   1.299  0.3043  1.1200 -0.4746
11622TIP3   OH234822   0.358   7.105   4.369 -0.2349 -0.1455 -0.5212
11622TIP3    H134823   0.267   7.131   4.387  0.2021  0.2174  1.3740
11622TIP3    H234824   0.407   7.187   4.372  0.4567 -0.5878  0.6263
11623TIP3   OH234825   6.335   0.384   4.182  0.3633 -0.4436 -0.0714
11623TIP3    H134826   6.298   0.322   4.119 -0.6168  0.6829 -0.6450
11623TIP3    H234827   6.377   0.329   4.248  2.0717 -1.6682 -2.0630
11624TIP3   OH234828   0.891   6.303   2.167 -0.3205  0.1937  0.0784
11624TIP3    H134829   0.905   6.240   2.095  0.3604  0.2966  0.1151
11624TIP3    H234830   0.927   6.259   2.244 -1.9762 -0.3512  0.5870
11625TIP3   OH234831   1.512   5.829   3.319 -0.2691  0.2049  0.4298
11625TIP3    H134832   1.535   5.876   3.399 -4.3743 -0.5014  2.2814
11625TIP3    H234833   1.482   5.897   3.259  2.3802  0.6844 -0.4924
11626TIP3   OH234834   5.502   7.542   3.569 -0.1132  0.4023  0.1172
11626TIP3    H134835   5.421   7.503   3.601  0.4864 -1.1985 -0.2322
11626TIP3    H234836   5.483   7.567   3.479 -0.5173  0.9692  0.3576
11627TIP3   OH234837   1.061   1.350   5.214  0.6510 -0.2507  0.0006
11627TIP3    H134838   1.002   1.423   5.233  1.3195  0.8476 -1.8415
11627TIP3    H234839   1.015   1.273   5.245 -1.4083  0.6573 -0.6239
11628TIP3   OH234840   7.441   7.516   0.191 -0.3662 -0.1069 -0.3055
11628TIP3    H134841   7.386   7.590   0.217  2.1868  2.3365 -1.3124
11628TIP3    H234842   7.396   7.477   0.116 -1.9404  0.1755  0.4694
11629TIP3   OH234843   7.433   3.387   2.102  0.0547  0.1955 -0.4939
11629TIP3    H134844   7.509   3.345   2.141  0.2694  1.4633  0.5135
11629TIP3    H234845   7.462   3.409   2.013  0.9791  0.8805 -0.0493
11630TIP3   OH234846   6.220   6.983   2.976  0.4844  0.2319  0.7592
11630TIP3    H134847   6.217   6.891   2.949 -1.5441  0.6994 -0.8367
11630TIP3    H234848   6.147   6.992   3.037  1.7296  0.4576  2.2976
11631TIP3   OH234849   5.148   4.076   3.906  0.1800 -0.6789  0.0485
11631TIP3    H134850   5.175   4.168   3.913  1.4065 -1.0242  0.0018
11631TIP3    H234851   5.229   4.026   3.914 -0.3617 -1.7334 -0.7808
11632TIP3   OH234852   5.278   0.127   3.609  0.0245 -0.0009 -0.2926
11632TIP3    H134853   5.202   0.175   3.577  0.3768  1.0617  0.4310
11632TIP3    H234854   5.259   0.109   3.701  0.8104  0.6372  0.0074
11633TIP3   OH234855   2.240   1.861   6.138  0.2008  0.4112 -0.0172
11633TIP3    H134856   2.282   1.944   6.162  0.1861 -0.3187  2.9373
11633TIP3    H234857   2.165   1.854   6.197 -1.0809 -0.7104 -1.7124
11634TIP3   OH234858   7.472   3.200   6.489  0.0812  0.1871 -0.2406
11634TIP3    H134859   7.444   3.205   6.397 -0.1551  1.0769 -0.1362
11634TIP3    H234860   7.538   3.132   6.491 -0.9870 -0.9050 -0.7965
11635TIP3   OH234861   7.943   0.405   0.598 -0.4871  0.5195  0.1038
11635TIP3    H134862   7.868   0.431   0.652 -1.9752  1.3522 -2.2151
11635TIP3    H234863   8.017   0.455   0.634 -1.5761  1.6417  0.8602
11636TIP3   OH234864   1.836   5.507   4.851  0.3830  0.1483  0.2229
11636TIP3    H134865   1.757   5.550   4.885  0.5961  0.1212  0.7708
11636TIP3    H234866   1.847   5.544   4.763 -1.1513 -1.0582 -0.5169
11637TIP3   OH234867   6.144   0.360   0.814 -0.2377 -0.6828 -0.3215
11637TIP3    H134868   6.186   0.281   0.849 -0.4775 -0.0375  1.5119
11637TIP3    H234869   6.073   0.379   0.875 -0.0875  1.0519 -0.6407
11638TIP3   OH234870   6.767   6.035   1.775  0.2066  0.1588  0.5480
11638TIP3    H134871   6.837   6.097   1.792  0.5427 -0.2879  0.8417
11638TIP3    H234872   6.798   5.982   1.701 -1.2990  2.1690 -1.6650
11639TIP3   OH234873   6.653   5.766   3.350 -0.4545 -0.1363 -0.6695
11639TIP3    H134874   6.577   5.777   3.406  1.1497 -0.0433  1.6492
11639TIP3    H234875   6.705   5.698   3.393  1.9964  1.6140 -0.6594
11640TIP3   OH234876   4.367   1.265   2.810  0.0227 -0.1141  0.0308
11640TIP3    H134877   4.277   1.233   2.803  0.2694 -0.5071 -5.6335
11640TIP3    H234878   4.364   1.355   2.777  1.7977 -0.4555 -1.2082
11641TIP3   OH234879   7.546   5.785   4.577 -0.6378 -0.1024  0.5510
11641TIP3    H134880   7.589   5.775   4.661  0.7097  1.0562  0.0316
11641TIP3    H234881   7.481   5.854   4.590 -1.2147 -0.6895  0.8938
11642TIP3   OH234882   4.768   2.931   4.213 -0.1153  0.3676  0.1639
11642TIP3    H134883   4.780   2.931   4.118 -0.7561 -0.7153  0.0593
11642TIP3    H234884   4.754   2.839   4.235 -3.6492  0.9219  0.8083
11643TIP3   OH234885   6.842   1.508   4.845 -0.3051 -0.3074 -0.2569
11643TIP3    H134886   6.921   1.526   4.896  0.0120 -1.6405 -0.2350
11643TIP3    H234887   6.788   1.453   4.902 -0.9574  0.0506 -0.5203
11644TIP3   OH234888   5.386   3.443   6.151 -0.5417 -0.3340  0.0710
11644TIP3    H134889   5.290   3.448   6.152 -0.5370  0.9297  2.6588
11644TIP3    H234890   5.406   3.371   6.211  0.1787 -1.8411 -1.8705
11645TIP3   OH234891   0.791   5.648   3.822  0.1030 -0.2882  0.1069
11645TIP3    H134892   0.772   5.614   3.734  0.8424  0.2380 -0.2723
11645TIP3    H234893   0.865   5.708   3.808 -0.7134  0.9221  0.8611
11646TIP3   OH234894   1.649   4.496   6.642  0.0458  0.1282 -0.1709
11646TIP3    H134895   1.667   4.487   6.735 -0.5173  0.3799 -0.0351
11646TIP3    H234896   1.677   4.585   6.620 -2.1915  1.0330  0.3374
11647TIP3   OH234897   3.901   1.427   1.831 -0.0471 -0.0311 -0.1140
11647TIP3    H134898   3.960   1.461   1.764  0.3292 -0.0226  0.2200
11647TIP3    H234899   3.855   1.355   1.788  0.9876 -0.7550 -0.0709
11648TIP3   OH234900   4.485   0.662   4.780  0.0028 -0.0745  0.6060
11648TIP3    H134901   4.494   0.719   4.703 -1.5692 -1.3417 -0.6101
11648TIP3    H234902   4.428   0.591   4.750 -1.4597 -0.1319  3.2429
11649TIP3   OH234903   3.357   7.020   2.821  0.7401  0.0120  0.0914
11649TIP3    H134904   3.329   6.930   2.805 -0.8906  0.3407  0.8301
11649TIP3    H234905   3.401   7.046   2.741  0.4721 -1.1741 -0.4616
11650TIP3   OH234906   3.680   3.810   4.020 -0.6665  0.6523  0.1957
11650TIP3    H134907   3.727   3.884   3.983 -0.4308 -0.4708 -1.9246
11650TIP3    H234908   3.606   3.796   3.961 -0.3938 -1.1183  0.2069
11651TIP3   OH234909   3.197   1.255   2.770 -0.0599  0.2386 -0.1341
11651TIP3    H134910   3.172   1.312   2.698 -0.4166 -0.2245 -0.3836
11651TIP3    H234911   3.277   1.212   2.741  0.0210  0.3566 -0.0859
11652TIP3   OH234912   6.881   1.491   1.916  0.2456  0.1576 -0.0698
11652TIP3    H134913   6.929   1.421   1.873  1.5772 -0.4890  2.3066
11652TIP3    H234914   6.894   1.567   1.859  1.2802 -0.8028 -1.1710
11653TIP3   OH234915   3.014   1.664   1.164 -0.2960 -0.0151  0.5596
11653TIP3    H134916   3.044   1.708   1.084 -2.8124  0.8287 -0.0079
11653TIP3    H234917   3.094   1.627   1.202  1.0627 -0.0977 -2.1030
11654TIP3   OH234918   0.241   1.827   6.140 -0.3149  0.0621  0.2693
11654TIP3    H134919   0.172   1.827   6.206 -0.2447 -0.4060  0.3418
11654TIP3    H234920   0.207   1.772   6.069 -0.0265 -0.1552  0.2972
11655TIP3   OH234921   8.154   5.302   1.666 -0.0447  0.4833 -0.1552
11655TIP3    H134922   8.238   5.313   1.621 -0.0540 -0.1152 -0.3284
11655TIP3    H234923   8.171   5.334   1.755  0.5940 -0.3221  0.0314
11656TIP3   OH234924   4.366   2.549   0.955  0.1324  0.5213 -0.0285
11656TIP3    H134925   4.339   2.534   1.045  0.0642 -1.7893 -0.3762
11656TIP3    H234926   4.452   2.591   0.963  1.0489 -1.4487  1.1645
11657TIP3   OH234927   1.313   6.474   6.423  0.1219 -0.2363 -0.2668
11657TIP3    H134928   1.404   6.481   6.452 -0.4389  1.8178  1.1884
11657TIP3    H234929   1.319   6.437   6.335  2.2730 -1.2474  0.2386
11658TIP3   OH234930   3.705   5.262   3.207  0.2654 -0.1484  0.0956
11658TIP3    H134931   3.674   5.256   3.297  0.9151 -1.1718  0.2714
11658TIP3    H234932   3.752   5.345   3.204 -0.0937  0.0773  0.5986
11659TIP3   OH234933   3.928   1.202   2.014  0.0200 -0.0362 -0.2029
11659TIP3    H134934   3.906   1.295   2.008 -2.0565 -0.5467 -1.7244
11659TIP3    H234935   3.844   1.157   2.017  0.7688 -2.0322 -3.4872
11660TIP3   OH234936   2.120   4.416   5.936  0.1339  0.3820 -0.5939
11660TIP3    H134937   2.074   4.434   6.018  1.1411 -0.1372  0.1176
11660TIP3    H234938   2.053   4.424   5.868 -0.9660 -0.1920  0.3827
11661TIP3   OH234939   3.494   4.246   5.983 -0.3662 -0.6160  0.0597
11661TIP3    H134940   3.590   4.247   5.989 -0.0843  3.5526 -1.6590
11661TIP3    H234941   3.464   4.271   6.070  0.1667 -0.6735  0.2615
11662TIP3   OH234942   5.188   1.393   4.415  0.3489 -0.1118 -0.4311
11662TIP3    H134943   5.273   1.418   4.451  0.2638 -1.9041  1.2095
11662TIP3    H234944   5.202   1.390   4.320  3.0591 -3.1509 -0.1432
11663TIP3   OH234945   8.101   1.376   6.206  0.2311  0.2703  0.8758
11663TIP3    H134946   8.145   1.333   6.279 -1.2900 -1.0725  1.0468
11663TIP3    H234947   8.008   1.359   6.219 -0.1957  1.1463 -0.6613
11664TIP3   OH234948   2.936   2.212   1.842  0.1271 -0.3570  0.2141
11664TIP3    H134949   2.997   2.145   1.812  1.1796  1.2823 -1.6052
11664TIP3    H234950   2.849   2.174   1.829  0.5790 -0.5013 -3.4175
11665TIP3   OH234951   5.590   1.649   3.346  0.0628 -0.3568 -0.1132
11665TIP3    H134952   5.566   1.653   3.439  0.2133  0.0902 -0.0907
11665TIP3    H234953   5.676   1.690   3.342  0.5991 -1.4714 -0.2757
11666TIP3   OH234954   3.315   2.838   5.307 -0.4484  0.1891 -0.3163
11666TIP3    H134955   3.305   2.868   5.217 -1.4505 -0.0033 -0.2769
11666TIP3    H234956   3.269   2.903   5.359  0.2270  0.3636  0.0790
11667TIP3   OH234957   7.478   4.119   5.321 -0.3985 -0.5815  0.3118
11667TIP3    H134958   7.531   4.196   5.343 -0.1146 -0.6994  0.0508
11667TIP3    H234959   7.388   4.148   5.333 -0.5534  0.9953 -3.1855
11668TIP3   OH234960   5.663   6.924   2.302  0.0626  0.3737 -0.1337
11668TIP3    H134961   5.718   6.956   2.231  0.2376  0.2674 -0.0472
11668TIP3    H234962   5.577   6.910   2.262 -0.2511  1.7728  0.0221
11669TIP3   OH234963   2.460   6.351   3.994 -0.3651  0.4662 -0.5559
11669TIP3    H134964   2.481   6.392   4.078  0.5715  1.2841 -1.1727
11669TIP3    H234965   2.535   6.295   3.975  0.2939  1.6801 -1.7005
11670TIP3   OH234966   1.046   6.833   6.433 -0.1313  0.2728  0.2104
11670TIP3    H134967   1.076   6.922   6.448 -2.8021  0.8920  2.5590
11670TIP3    H234968   1.076   6.784   6.510  1.5263 -1.0355 -1.1586
11671TIP3   OH234969   3.447   3.115   6.351  0.2261  0.0273  0.7579
11671TIP3    H134970   3.418   3.196   6.309  2.8006 -0.3714 -2.1052
11671TIP3    H234971   3.530   3.137   6.393  0.5585 -0.9456  0.6389
11672TIP3   OH234972   0.244   3.499   5.643  0.1753  0.0709  0.4055
11672TIP3    H134973   0.310   3.439   5.679 -0.0403 -1.1109 -1.0499
11672TIP3    H234974   0.261   3.500   5.549 -0.5071  1.5007  0.2713
11673TIP3   OH234975   5.518   1.929   1.794  0.3243 -0.2790  0.0177
11673TIP3    H134976   5.603   1.971   1.778 -0.0639  0.4762 -0.0905
11673TIP3    H234977   5.475   1.928   1.708 -0.9733  2.0247  0.5862
11674TIP3   OH234978   7.206   4.489   0.045 -0.4850  0.0623 -0.0666
11674TIP3    H134979   7.230   4.580   0.029  0.6261 -0.4640 -1.6171
11674TIP3    H234980   7.248   4.467   0.128  1.5090  0.1986 -0.9994
11675TIP3   OH234981   1.335   2.047   6.617 -0.1691  0.4690 -0.0063
11675TIP3    H134982   1.406   1.984   6.626 -0.6405  0.1836  2.2458
11675TIP3    H234983   1.263   1.997   6.579 -0.2915 -0.1854  1.0550
11676TIP3   OH234984   3.364   4.444   6.403  0.4494 -0.3979 -0.1847
11676TIP3    H134985   3.395   4.372   6.348  0.8729 -0.1163 -0.3209
11676TIP3    H234986   3.442   4.498   6.418 -0.1888  0.9457 -1.4718
11677TIP3   OH234987   4.053   4.747   4.287 -0.0029  0.1319 -0.0523
11677TIP3    H134988   4.138   4.703   4.290 -0.0968  0.0193  1.4634
11677TIP3    H234989   4.007   4.705   4.214  1.7661  1.2270 -1.8987
11678TIP3   OH234990   1.227   5.330   5.716  0.0039  0.1459  0.0288
11678TIP3    H134991   1.187   5.311   5.632 -1.1634 -1.8049  0.9530
11678TIP3    H234992   1.154   5.353   5.773  0.5688 -0.1574  0.9014
11679TIP3   OH234993   4.320   1.906   0.188  0.2738 -0.2650  0.3145
11679TIP3    H134994   4.279   1.992   0.189 -0.9174 -0.8267  0.8836
11679TIP3    H234995   4.298   1.870   0.102  0.9059  0.0388  0.0131
11680TIP3   OH234996   6.102   4.422   0.828  0.2314  0.1683  0.3705
11680TIP3    H134997   6.041   4.494   0.844  0.3176 -0.1356  2.3109
11680TIP3    H234998   6.096   4.405   0.734 -2.5656  0.2304  0.4750
11681TIP3   OH234999   4.250   3.089   4.636  0.1168  0.0304  0.1889
11681TIP3    H135000   4.160   3.061   4.621 -0.8365  0.9942  3.3155
11681TIP3    H235001   4.242   3.176   4.676  2.5202  0.7720 -0.7533
11682TIP3   OH235002   0.365   2.461   2.106 -0.1114 -0.3604  0.1580
11682TIP3    H135003   0.439   2.431   2.055  0.7449  2.5529 -0.5290
11682TIP3    H235004   0.381   2.429   2.195 -0.9743 -4.4224 -0.9739
11683TIP3   OH235005   1.083   0.926   6.462  0.4017 -0.2644 -0.5710
11683TIP3    H135006   0.999   0.967   6.481  0.9650  1.6288 -1.8523
11683TIP3    H235007   1.091   0.931   6.366  2.3642  0.4578 -0.4154
11684TIP3   OH235008   0.157   5.788   4.835  0.0190 -0.2488  0.3322
11684TIP3    H135009   0.172   5.705   4.790  0.7070 -0.3073  0.6579
11684TIP3    H235010   0.062   5.802   4.830  0.1520  0.1579 -1.8614
11685TIP3   OH235011   3.402   4.083   6.678 -0.5360 -0.1620  0.0548
11685TIP3    H135012   3.389   4.094   6.772  2.1689  1.8762  0.3058
11685TIP3    H235013   3.426   3.991   6.668  1.8160  0.1881  1.8136
11686TIP3   OH235014   5.902   7.382   3.721  0.1306 -0.9506 -0.4231
11686TIP3    H135015   5.933   7.302   3.762  2.7100  1.0443  1.8042
11686TIP3    H235016   5.814   7.394   3.756  0.0354 -2.3148 -0.1311
11687TIP3   OH235017   8.158   3.284   1.241 -0.2746 -0.3592 -0.1152
11687TIP3    H135018   8.178   3.290   1.147 -0.9955 -0.1194 -0.2564
11687TIP3    H235019   8.125   3.195   1.252  1.9385 -1.1843  0.3407
11688TIP3   OH235020   2.312   3.599   6.603 -0.0481 -0.0938  0.4922
11688TIP3    H135021   2.368   3.561   6.671 -0.5596 -0.9275  0.4584
11688TIP3    H235022   2.362   3.674   6.571  2.3986 -2.3887 -1.4843
11689TIP3   OH235023   0.063   1.995   2.266  0.5082  0.1318 -0.1612
11689TIP3    H135024   0.025   1.906   2.264 -0.1385  0.3721  0.8352
11689TIP3    H235025   0.151   1.984   2.230  0.7217 -1.0634  0.6591
11690TIP3   OH235026   1.374   1.745   5.728 -0.1500 -0.1030  0.2724
11690TIP3    H135027   1.352   1.838   5.714 -0.8481 -0.4462 -1.1427
11690TIP3    H235028   1.453   1.731   5.675 -1.7428 -0.9742 -2.0649
11691TIP3   OH235029   1.391   1.709   0.270 -0.0550  0.1836 -0.1756
11691TIP3    H135030   1.347   1.625   0.286  0.9709 -0.1344  1.2313
11691TIP3    H235031   1.379   1.758   0.351 -0.7212  1.4702 -1.0189
11692TIP3   OH235032   2.518   5.968   6.336  0.3027  0.4017 -0.5874
11692TIP3    H135033   2.445   5.907   6.326  0.6892  0.0521 -1.3909
11692TIP3    H235034   2.596   5.913   6.329  0.6863  1.1165 -2.6078
11693TIP3   OH235035   6.633   4.253   0.971 -0.0161  0.0477  0.3564
11693TIP3    H135036   6.638   4.280   0.879  0.3060  1.6468  0.8166
11693TIP3    H235037   6.692   4.178   0.977  0.0263 -0.0253 -0.7214
11694TIP3   OH235038   7.693   5.888   2.489  0.5299 -0.1256 -0.0198
11694TIP3    H135039   7.631   5.939   2.539 -0.7091 -0.2316 -1.3767
11694TIP3    H235040   7.645   5.860   2.411  1.8167 -1.5063 -0.3895
11695TIP3   OH235041   2.354   0.843   6.472 -0.1176  0.2047 -0.0888
11695TIP3    H135042   2.292   0.800   6.531 -0.7556 -2.6302 -2.5799
11695TIP3    H235043   2.432   0.788   6.476  0.8735  1.5833  0.1368
11696TIP3   OH235044   5.319   3.877   3.032 -0.3171  0.0997 -0.4704
11696TIP3    H135045   5.381   3.863   3.103 -0.8168 -1.0537 -0.2411
11696TIP3    H235046   5.341   3.964   2.997 -0.7640  1.2062  1.8037
11697TIP3   OH235047   0.174   3.220   2.027  0.3548  0.5599  0.5624
11697TIP3    H135048   0.134   3.134   2.013 -0.3721  1.1802 -1.4942
11697TIP3    H235049   0.100   3.276   2.052  0.6702  0.7974  0.9681
11698TIP3   OH235050   6.615   0.573   6.463 -0.1721 -0.1899 -1.4974
11698TIP3    H135051   6.711   0.573   6.453 -0.1515  0.2246 -1.3128
11698TIP3    H235052   6.600   0.623   6.543 -0.5295 -0.4981 -1.3731
11699TIP3   OH235053   1.908   0.046   6.549  0.6312 -0.0591 -0.6436
11699TIP3    H135054   1.871   0.092   6.624  0.1962 -1.4722  0.0340
11699TIP3    H235055   2.003   0.054   6.561  0.5831 -1.0133  0.5604
11700TIP3   OH235056   5.225   1.993   4.172 -0.2725  0.4187  0.3481
11700TIP3    H135057   5.192   1.925   4.113  0.8422  1.1073 -1.1474
11700TIP3    H235058   5.303   1.955   4.212  0.0606  0.6265 -0.0984
11701TIP3   OH235059   4.328   4.755   6.420  0.0409 -0.1490  0.2435
11701TIP3    H135060   4.369   4.835   6.388 -0.5358  0.7567  1.6727
11701TIP3    H235061   4.253   4.784   6.471 -0.1705 -1.6016  0.8295
11702TIP3   OH235062   7.358   4.569   2.991 -0.0141 -0.1142  0.0039
11702TIP3    H135063   7.347   4.608   2.904  0.9999  0.1622 -0.0147
11702TIP3    H235064   7.358   4.475   2.975  0.3227 -0.0635 -0.3320
11703TIP3   OH235065   3.133   7.085   5.403  0.0320  0.1727  0.5927
11703TIP3    H135066   3.100   7.073   5.492  0.3598  0.1773  0.7174
11703TIP3    H235067   3.227   7.096   5.414  0.0952 -0.0004  0.2259
11704TIP3   OH235068   7.650   3.283   2.365  0.0660 -0.4799  0.5548
11704TIP3    H135069   7.634   3.301   2.458  3.5209 -1.7113  1.5152
11704TIP3    H235070   7.671   3.369   2.328 -0.7122 -0.0699  1.0225
11705TIP3   OH235071   3.037   5.350   4.638  0.1764  0.7876 -0.6511
11705TIP3    H135072   3.049   5.439   4.603  2.1926  0.6390 -0.4383
11705TIP3    H235073   3.082   5.352   4.723  2.5986 -1.1128 -1.7824
11706TIP3   OH235074   1.835   0.099   5.670  0.4048  0.0827 -0.4050
11706TIP3    H135075   1.761   0.160   5.667 -0.2542 -0.7369 -1.9978
11706TIP3    H235076   1.881   0.114   5.586  2.8513  1.4853  1.0444
11707TIP3   OH235077   0.717   6.408   1.134  0.2243  0.4489 -0.2935
11707TIP3    H135078   0.811   6.414   1.114  0.0786 -2.1842 -2.3512
11707TIP3    H235079   0.714   6.359   1.216  0.6496 -0.3496 -0.7455
11708TIP3   OH235080   7.520   1.717   5.477 -0.3113 -0.2067 -0.0036
11708TIP3    H135081   7.584   1.670   5.422  0.5132  0.2076  0.5880
11708TIP3    H235082   7.549   1.808   5.476 -0.2802 -0.1865  1.1045
11709TIP3   OH235083   4.310   0.150   4.729  0.1215 -0.0457 -0.0148
11709TIP3    H135084   4.355   0.070   4.755  1.3458 -0.3897 -2.7789
11709TIP3    H235085   4.220   0.138   4.758  0.6974 -1.5424  1.3191
11710TIP3   OH235086   0.222   2.193   0.447  1.2266  0.3335  0.0616
11710TIP3    H135087   0.277   2.117   0.426  0.6356  0.4276 -1.9874
11710TIP3    H235088   0.157   2.196   0.377 -0.2614  1.3395  1.4036
11711TIP3   OH235089   6.701   7.732   2.435 -0.0952 -0.4862  0.0577
11711TIP3    H135090   6.673   7.762   2.348 -0.8689  0.8751  0.7314
11711TIP3    H235091   6.782   7.684   2.419 -0.3631 -0.4951 -1.4450
11712TIP3   OH235092   1.818   1.969   4.685  0.2744 -0.1141 -0.0926
11712TIP3    H135093   1.723   1.975   4.698  0.4968  2.2061  1.0872
11712TIP3    H235094   1.830   1.981   4.591 -0.6607 -2.3773 -0.5500
11713TIP3   OH235095   1.568   1.625   0.079  0.2368 -0.1914  0.1945
11713TIP3    H135096   1.503   1.653   0.142 -0.4356 -1.9585  0.3565
11713TIP3    H235097   1.624   1.564   0.128  1.3769  0.4827 -0.2220
11714TIP3   OH235098   4.640   6.064   4.226  0.0485 -0.1358  0.1784
11714TIP3    H135099   4.613   6.057   4.318 -0.5720 -0.2408 -0.0026
11714TIP3    H235100   4.697   5.989   4.211 -0.8704 -0.8391  0.1408
11715TIP3   OH235101   6.823   1.505   4.350 -0.3090  0.9345 -0.2400
11715TIP3    H135102   6.741   1.554   4.355 -0.3288  1.0986 -1.7459
11715TIP3    H235103   6.802   1.421   4.391 -1.6568  0.4663 -1.7857
11716TIP3   OH235104   0.468   4.614   0.414 -0.1837  0.7597  0.0822
11716TIP3    H135105   0.425   4.662   0.485 -2.3943 -0.1382 -0.5765
11716TIP3    H235106   0.401   4.606   0.346  1.5874  0.8096 -1.7770
11717TIP3   OH235107   5.536   2.434   2.505 -0.2218 -0.0395 -0.1122
11717TIP3    H135108   5.568   2.349   2.475  0.5097  0.5399 -0.9897
11717TIP3    H235109   5.599   2.461   2.572 -1.9282 -1.3981  2.2095
11718TIP3   OH235110   0.245   3.626   2.187  0.0252 -0.6801  0.0595
11718TIP3    H135111   0.164   3.587   2.153  0.7935 -2.0840 -0.2213
11718TIP3    H235112   0.310   3.608   2.119  0.7070 -0.0872  0.5512
11719TIP3   OH235113   0.454   7.507   0.462 -0.5297 -0.3451 -0.2432
11719TIP3    H135114   0.521   7.501   0.395  0.4109  0.0510  0.6428
11719TIP3    H235115   0.407   7.588   0.442  0.5168  0.4041  0.2596
11720TIP3   OH235116   7.158   6.751   5.849 -0.1257 -0.4301  0.1393
11720TIP3    H135117   7.135   6.840   5.823 -0.7338 -0.0755  1.7219
11720TIP3    H235118   7.254   6.751   5.855  0.0139 -0.4485 -1.6422
11721TIP3   OH235119   1.373   7.734   6.224  0.6231 -0.3186  0.1118
11721TIP3    H135120   1.430   7.658   6.217 -0.7285 -1.4576  1.0087
11721TIP3    H235121   1.431   7.806   6.247  2.0482 -0.8779 -1.5743
11722TIP3   OH235122   1.970   0.846   3.040 -0.8694  0.0756  0.4096
11722TIP3    H135123   1.934   0.885   3.120 -0.2209  2.0019 -0.1856
11722TIP3    H235124   2.042   0.792   3.071 -0.5695  0.8708  1.1437
11723TIP3   OH235125   7.289   5.581   5.658 -0.4728 -1.0227 -0.0728
11723TIP3    H135126   7.281   5.649   5.591  1.7937 -0.9075 -0.3334
11723TIP3    H235127   7.301   5.630   5.740 -1.4794 -1.1475  0.1543
11724TIP3   OH235128   2.160   6.905   2.324 -0.5022  0.6202  0.3143
11724TIP3    H135129   2.136   6.997   2.322  2.0089  1.3513  0.2832
11724TIP3    H235130   2.136   6.872   2.237 -1.7046  1.1186  0.4323
11725TIP3   OH235131   3.311   7.394   4.334  0.1169  0.2014 -0.1279
11725TIP3    H135132   3.393   7.402   4.382 -0.8342  0.9743  1.4721
11725TIP3    H235133   3.311   7.468   4.274  0.7030  0.0376 -0.3370
11726TIP3   OH235134   3.918   2.404   1.264 -0.2575  0.5603  0.3457
11726TIP3    H135135   3.966   2.431   1.342 -0.6553 -1.2626  1.2894
11726TIP3    H235136   3.973   2.431   1.191  0.9701  0.7676  1.3122
11727TIP3   OH235137   8.186   5.966   2.297  0.0284 -0.1189  0.3625
11727TIP3    H135138   8.172   5.939   2.207 -0.5878  0.8117  0.1689
11727TIP3    H235139   8.102   5.953   2.340 -0.5016  2.0416  0.0974
11728TIP3   OH235140   8.115   1.641   1.594 -0.7777  0.3789 -0.5618
11728TIP3    H135141   8.201   1.600   1.584 -0.2757  1.8100 -3.2746
11728TIP3    H235142   8.094   1.633   1.687  0.9602 -2.5276 -0.3168
11729TIP3   OH235143   3.625   1.719   2.574 -0.6123  0.2225  0.7377
11729TIP3    H135144   3.646   1.790   2.514 -0.4707 -1.4350 -1.3105
11729TIP3    H235145   3.532   1.730   2.594 -0.9611  0.1992 -0.7380
11730TIP3   OH235146   1.489   1.746   1.532  0.4846  0.1242 -0.4423
11730TIP3    H135147   1.471   1.679   1.599 -0.8042  0.8738 -0.0157
11730TIP3    H235148   1.403   1.773   1.501  1.0328  0.6759 -1.5448
11731TIP3   OH235149   0.629   6.309   1.772  0.2237 -0.1352  0.0357
11731TIP3    H135150   0.680   6.357   1.837  1.9818 -0.6102 -0.9205
11731TIP3    H235151   0.613   6.372   1.702 -0.7311  0.0769  0.4345
11732TIP3   OH235152   4.079   7.478   4.777  0.3083  0.0440 -0.1400
11732TIP3    H135153   4.012   7.534   4.738  0.7893  1.0194  0.4020
11732TIP3    H235154   4.140   7.538   4.818  1.0619 -0.8683  0.1215
11733TIP3   OH235155   0.513   6.904   5.636  0.1679 -0.0734  0.1290
11733TIP3    H135156   0.551   6.822   5.665 -0.6216 -0.0667  1.2491
11733TIP3    H235157   0.529   6.906   5.542  1.2925 -0.9134  0.2795
11734TIP3   OH235158   3.990   6.831   5.288 -0.1763  0.4666  0.6383
11734TIP3    H135159   4.078   6.815   5.253 -1.2320 -0.3966 -1.8185
11734TIP3    H235160   3.961   6.910   5.243 -1.9952 -1.2887 -1.5709
11735TIP3   OH235161   5.519   4.510   5.858 -0.5857 -0.0911 -0.3603
11735TIP3    H135162   5.499   4.533   5.767 -1.2875 -0.1835 -0.2321
11735TIP3    H235163   5.612   4.487   5.856 -0.4893  0.3053 -0.9751
11736TIP3   OH235164   1.179   5.117   5.372  0.4292  0.5053 -0.5933
11736TIP3    H135165   1.154   5.120   5.279 -0.5239  0.3290 -0.3531
11736TIP3    H235166   1.272   5.098   5.371  0.4406  0.5623 -1.5203
11737TIP3   OH235167   6.124   5.010   6.343  0.1580  0.3336  0.3085
11737TIP3    H135168   6.114   4.985   6.435  2.4850  0.5036  0.6561
11737TIP3    H235169   6.166   5.095   6.345 -0.0843  0.5126 -0.9393
11738TIP3   OH235170   2.151   4.167   2.196  0.6342 -0.4567  0.5205
11738TIP3    H135171   2.207   4.242   2.176  0.9254 -0.7761  0.1048
11738TIP3    H235172   2.205   4.091   2.172 -1.1172 -0.7597 -3.0196
11739TIP3   OH235173   3.326   7.800   4.870 -0.1812 -0.2486  0.6078
11739TIP3    H135174   3.354   7.731   4.931  0.7852 -1.0000 -0.6563
11739TIP3    H235175   3.317   7.756   4.786  1.4658  1.3573 -0.4728
11740TIP3   OH235176   2.965   6.271   1.114 -0.0887  0.2099 -0.4105
11740TIP3    H135177   2.967   6.300   1.023 -0.5128 -1.5450 -1.0341
11740TIP3    H235178   2.877   6.235   1.125 -0.0350  0.3889  0.6907
11741TIP3   OH235179   3.762   5.028   3.067  0.2520  0.1727  0.4047
11741TIP3    H135180   3.732   5.106   3.114 -1.3541 -0.8139  1.1190
11741TIP3    H235181   3.733   5.041   2.977  0.5918  0.6929  0.3676
11742TIP3   OH235182   0.578   3.881   4.893  0.2647 -0.1861  0.0467
11742TIP3    H135183   0.512   3.824   4.852 -1.9622  1.0529  1.7271
11742TIP3    H235184   0.592   3.951   4.828 -1.0680  0.2190  0.1630
11743TIP3   OH235185   4.028   0.814   2.619 -0.2333  0.6132  0.1166
11743TIP3    H135186   4.019   0.775   2.532 -0.9462 -0.5577  0.6799
11743TIP3    H235187   4.003   0.905   2.608  1.9791  1.1110 -1.3531
11744TIP3   OH235188   6.362   7.474   1.283 -0.6210 -0.2351 -0.3659
11744TIP3    H135189   6.328   7.509   1.365  0.7153 -1.0322  0.5662
11744TIP3    H235190   6.374   7.551   1.227  2.4946  0.9730  1.7012
11745TIP3   OH235191   3.871   7.098   6.441 -0.2669 -0.3046 -0.0098
11745TIP3    H135192   3.863   7.079   6.348  1.7721 -0.4312 -0.2119
11745TIP3    H235193   3.912   7.184   6.445 -2.1452  0.6013  0.8253
11746TIP3   OH235194   0.820   2.635   6.138  0.3771  0.0330 -0.4621
11746TIP3    H135195   0.833   2.546   6.171 -1.1472 -0.3407 -0.7873
11746TIP3    H235196   0.772   2.623   6.055  1.7977  1.0789 -1.4850
11747TIP3   OH235197   1.561   6.272   5.272 -0.7127 -0.5448  0.3303
11747TIP3    H135198   1.556   6.325   5.192 -0.8293  0.2791  0.8779
11747TIP3    H235199   1.645   6.227   5.266  0.9064  2.1115  1.3255
11748TIP3   OH235200   5.602   0.935   6.299  0.6676  0.2513 -0.3716
11748TIP3    H135201   5.603   0.950   6.394 -0.8130 -1.1972 -0.0795
11748TIP3    H235202   5.693   0.917   6.276  0.8775 -0.5436  0.9862
11749TIP3   OH235203   2.730   6.937   0.642  0.0327 -0.2154 -0.5720
11749TIP3    H135204   2.739   7.031   0.651  0.1390 -0.3092  0.3422
11749TIP3    H235205   2.655   6.914   0.697  0.1420 -0.6927 -0.6120
11750TIP3   OH235206   1.592   6.879   2.880  0.0349 -0.4218  0.2570
11750TIP3    H135207   1.540   6.947   2.838  1.1890  0.0067 -0.5110
11750TIP3    H235208   1.617   6.916   2.965  0.5226  0.0428 -0.0901
11751TIP3   OH235209   0.063   2.135   3.099  0.0933 -0.3494 -0.5167
11751TIP3    H135210   0.119   2.165   3.027 -0.7145  0.0485 -0.9975
11751TIP3    H235211   0.114   2.152   3.178  0.0690  1.3962 -0.8362
11752TIP3   OH235212   3.078   1.440   0.466  0.0967  0.4871 -0.5842
11752TIP3    H135213   3.084   1.535   0.476  1.2966  0.2987  0.7145
11752TIP3    H235214   3.169   1.410   0.460 -0.2819 -0.5078 -1.9068
11753TIP3   OH235215   1.311   5.266   6.765 -0.7097  0.0142  0.1551
11753TIP3    H135216   1.351   5.341   6.811 -0.3526  0.2137 -0.4745
11753TIP3    H235217   1.285   5.301   6.680 -0.5922 -0.5652 -0.1236
11754TIP3   OH235218   1.073   5.678   5.261  0.3111  0.4277 -0.7258
11754TIP3    H135219   0.989   5.706   5.224 -0.6048 -1.0697  0.1152
11754TIP3    H235220   1.081   5.586   5.234  1.2803  0.3163 -0.0855
11755TIP3   OH235221   4.870   6.381   4.875 -0.0432  0.0663  0.0783
11755TIP3    H135222   4.783   6.353   4.848 -0.3817  0.0675  1.1536
11755TIP3    H235223   4.923   6.373   4.795 -1.2035  0.8714 -0.7985
11756TIP3   OH235224   0.890   1.578   3.291  0.4410  0.1597 -0.1649
11756TIP3    H135225   0.803   1.549   3.262  0.9268 -1.9927  0.2950
11756TIP3    H235226   0.890   1.563   3.385  1.6084 -0.7954 -0.2915
11757TIP3   OH235227   7.251   6.554   6.379 -0.4240 -0.1071  0.2966
11757TIP3    H135228   7.346   6.539   6.374 -0.3840  0.0843  0.4716
11757TIP3    H235229   7.242   6.649   6.380 -0.6772 -0.1072 -0.8058
11758TIP3   OH235230   1.857   6.753   5.397  0.1885  0.0715  0.1034
11758TIP3    H135231   1.899   6.678   5.355  1.2981 -0.5692  2.2350
11758TIP3    H235232   1.769   6.722   5.420  0.3966 -0.3544  0.3365
11759TIP3   OH235233   1.943   6.845   6.370  0.2574 -0.1830 -0.0230
11759TIP3    H135234   1.947   6.865   6.463 -0.4907  1.4933 -0.3095
11759TIP3    H235235   2.004   6.907   6.330  0.9129 -1.1913 -0.6160
11760TIP3   OH235236   4.744   7.751   3.887  0.0980 -0.2691  0.0059
11760TIP3    H135237   4.758   7.799   3.805 -0.9844  1.0738  0.5691
11760TIP3    H235238   4.821   7.772   3.940 -1.1490  2.4278  0.9334
11761TIP3   OH235239   7.495   2.644   5.374 -0.4830  0.1376  0.1030
11761TIP3    H135240   7.450   2.646   5.291 -0.5809 -0.3366  0.1433
11761TIP3    H235241   7.462   2.720   5.422 -0.5860  0.2853 -0.2051
11762TIP3   OH235242   2.333   5.867   4.298 -0.1693  0.1687 -0.3560
11762TIP3    H135243   2.277   5.880   4.221 -0.6560 -3.4138 -0.7912
11762TIP3    H235244   2.420   5.849   4.263 -0.0799 -0.0835 -0.0197
11763TIP3   OH235245   4.679   2.203   0.308  0.0531  0.4437  0.2680
11763TIP3    H135246   4.678   2.262   0.383  0.9700 -0.3067  0.8955
11763TIP3    H235247   4.668   2.116   0.345  0.7027  0.0423 -0.4488
11764TIP3   OH235248   2.191   5.459   1.957 -0.1890 -0.0856 -0.2263
11764TIP3    H135249   2.119   5.511   1.921 -1.1501 -1.5247 -0.4686
11764TIP3    H235250   2.233   5.420   1.881  1.0613  0.9723 -0.1054
11765TIP3   OH235251   1.211   3.823   5.719  0.3057 -0.1490  0.1171
11765TIP3    H135252   1.287   3.798   5.772  0.0383  0.1884  0.6706
11765TIP3    H235253   1.186   3.909   5.752  1.4603  1.0892 -2.0210
11766TIP3   OH235254   4.505   1.123   3.529 -0.1234  0.2078  0.1556
11766TIP3    H135255   4.416   1.090   3.520  0.2296 -1.0323  0.8942
11766TIP3    H235256   4.511   1.152   3.621 -0.0295  1.1555 -0.1341
11767TIP3   OH235257   2.823   2.767   3.579 -0.4459  0.3623 -0.4890
11767TIP3    H135258   2.861   2.723   3.503 -0.9002 -0.6938 -0.1325
11767TIP3    H235259   2.895   2.816   3.618 -0.3282  1.3856 -1.9006
11768TIP3   OH235260   3.937   7.347   6.796 -0.3163 -0.7418 -0.5620
11768TIP3    H135261   3.991   7.392   6.731 -0.2829 -0.2080 -0.1709
11768TIP3    H235262   3.847   7.369   6.773 -0.2350  1.3749  0.9234
11769TIP3   OH235263   7.618   6.869   2.298 -0.2104  0.3407  0.4303
11769TIP3    H135264   7.699   6.917   2.310  0.0300  0.6899 -2.0087
11769TIP3    H235265   7.574   6.914   2.226 -2.0956 -0.4687  1.0046
11770TIP3   OH235266   1.911   6.383   6.587  0.1661 -0.4398 -0.7257
11770TIP3    H135267   1.920   6.377   6.492  1.1747  1.0110 -0.7456
11770TIP3    H235268   1.999   6.399   6.619 -0.2989 -0.0056  0.3845
11771TIP3   OH235269   5.175   1.387   3.681  0.3356 -0.2037 -0.2120
11771TIP3    H135270   5.226   1.341   3.748  1.6520  0.1145 -0.9767
11771TIP3    H235271   5.109   1.436   3.731  0.1016 -1.4109  0.7252
11772TIP3   OH235272   4.201   4.196   4.169 -0.7212 -0.5298  0.5971
11772TIP3    H135273   4.151   4.116   4.151  0.8935 -1.4796  0.1256
11772TIP3    H235274   4.227   4.228   4.083 -0.8230  0.1627  0.8203
11773TIP3   OH235275   1.061   3.724   0.150  0.7540 -0.0082 -0.2651
11773TIP3    H135276   0.981   3.757   0.110  0.8884  1.0478  0.2978
11773TIP3    H235277   1.031   3.658   0.213  0.3322  0.3036 -0.1352
11774TIP3   OH235278   1.156   6.060   5.577  0.1446 -0.0203 -0.1846
11774TIP3    H135279   1.090   6.123   5.547  0.0629  0.0120  0.0586
11774TIP3    H235280   1.225   6.064   5.511 -0.2066 -0.2275 -0.5721
11775TIP3   OH235281   7.007   4.023   6.217  0.2411  0.2033  0.6995
11775TIP3    H135282   7.030   4.081   6.145 -2.4235  2.2896  1.3465
11775TIP3    H235283   6.973   3.944   6.174 -0.2987  0.9749 -0.3526
11776TIP3   OH235284   8.234   4.259   4.474 -0.2081  0.5006 -0.2688
11776TIP3    H135285   8.267   4.331   4.528 -0.4448  0.7114 -0.4062
11776TIP3    H235286   8.298   4.189   4.487 -0.0305  0.6995 -0.0554
11777TIP3   OH235287   7.646   3.829   0.586 -0.0402  0.2484 -0.1229
11777TIP3    H135288   7.659   3.734   0.586 -0.1078  0.2383 -0.5905
11777TIP3    H235289   7.553   3.840   0.605 -0.1185  0.2078 -0.4790
11778TIP3   OH235290   5.236   3.718   2.799  0.1590  0.3336 -0.1675
11778TIP3    H135291   5.228   3.761   2.714 -0.6265  0.2717 -0.1346
11778TIP3    H235292   5.266   3.787   2.858 -0.5952  0.7153 -0.2231
11779TIP3   OH235293   8.271   6.966   4.666  0.1200  0.1216 -0.2965
11779TIP3    H135294   8.298   7.000   4.751 -1.6534 -0.6523  0.6173
11779TIP3    H235295   8.259   7.044   4.611 -0.4789  0.7586  0.7198
11780TIP3   OH235296   0.970   0.110   0.755  0.1285  0.0370 -0.1390
11780TIP3    H135297   0.923   0.038   0.714 -0.5238 -0.3880  1.2675
11780TIP3    H235298   0.947   0.187   0.703  0.4063 -0.6721 -1.3341
11781TIP3   OH235299   3.330   6.480   2.162  0.3810 -0.1967  0.0850
11781TIP3    H135300   3.369   6.476   2.249 -0.0753 -2.0891  0.2504
11781TIP3    H235301   3.359   6.400   2.118  0.5313  0.6768 -1.4918
11782TIP3   OH235302   4.470   7.458   6.660  0.0943  0.3010 -0.4766
11782TIP3    H135303   4.473   7.544   6.701 -0.9585  0.6119 -1.0286
11782TIP3    H235304   4.417   7.470   6.581 -0.0909 -0.8480 -0.5515
11783TIP3   OH235305   5.679   3.996   4.748  0.2361 -0.1336 -0.0374
11783TIP3    H135306   5.644   3.991   4.837 -0.6487  2.6906 -0.1373
11783TIP3    H235307   5.735   4.073   4.748 -0.9120  0.7932 -2.2627
11784TIP3   OH235308   7.701   0.441   2.947 -0.0322  0.2791 -0.5029
11784TIP3    H135309   7.679   0.531   2.924  0.0690 -0.2835 -3.1739
11784TIP3    H235310   7.768   0.416   2.884 -0.6770 -1.9220 -0.3962
11785TIP3   OH235311   4.438   2.825   0.788 -0.3811  0.4712 -0.1137
11785TIP3    H135312   4.405   2.798   0.702 -0.2763  1.7544 -0.5753
11785TIP3    H235313   4.501   2.756   0.812 -0.4476  0.0680 -1.0428
11786TIP3   OH235314   0.147   0.340   4.320 -0.5695 -0.6394 -0.3358
11786TIP3    H135315   0.123   0.378   4.405  0.4809 -2.1373  0.6970
11786TIP3    H235316   0.174   0.415   4.267  0.3929  0.1945  1.2396
11787TIP3   OH235317   2.455   4.848   5.844 -0.7784  0.7370 -0.0109
11787TIP3    H135318   2.471   4.756   5.863 -1.5564  0.5922 -0.0526
11787TIP3    H235319   2.384   4.848   5.780 -1.1396  1.3789  0.3757
11788TIP3   OH235320   4.122   1.626   2.908  0.0916  0.5042 -0.2355
11788TIP3    H135321   4.118   1.531   2.898  0.6653  0.5741 -1.3171
11788TIP3    H235322   4.152   1.658   2.823  0.1249  1.6420  0.1801
11789TIP3   OH235323   1.462   4.186   5.201  0.3094  0.5740  0.5608
11789TIP3    H135324   1.474   4.269   5.248  0.9800  0.0095  1.4289
11789TIP3    H235325   1.396   4.139   5.253  1.7393 -0.4489  1.5200
11790TIP3   OH235326   5.158   4.237   3.597  0.1112  0.0945 -0.2750
11790TIP3    H135327   5.159   4.171   3.528 -1.4335 -1.5302  1.1316
11790TIP3    H235328   5.245   4.232   3.636  1.5671  2.1596 -2.9829
11791TIP3   OH235329   6.978   1.661   1.722 -0.5057  0.5335  0.6488
11791TIP3    H135330   6.994   1.754   1.703 -0.7828  0.6201  0.8301
11791TIP3    H235331   7.049   1.615   1.678 -0.3767  0.8321  0.5407
11792TIP3   OH235332   4.965   5.899   6.718  0.0926 -0.2526  0.0090
11792TIP3    H135333   4.921   5.914   6.634  0.6203  1.7102  0.0310
11792TIP3    H235334   4.942   5.975   6.771  3.4218  0.8669  0.0506
11793TIP3   OH235335   0.649   0.186   5.329  0.1755  0.1696 -0.5294
11793TIP3    H135336   0.618   0.136   5.404  0.1608 -1.7073 -1.7347
11793TIP3    H235337   0.742   0.167   5.324  0.1684  0.2453 -1.0101
11794TIP3   OH235338   1.242   0.463   2.055  0.1328 -0.1437  0.6192
11794TIP3    H135339   1.310   0.419   2.004 -0.4684  0.5779 -0.8557
11794TIP3    H235340   1.199   0.392   2.103 -0.7756 -1.2331 -1.6519
11795TIP3   OH235341   3.729   1.892   4.638  0.1211  0.0794  0.3169
11795TIP3    H135342   3.660   1.958   4.637 -0.5980 -0.6582 -0.1235
11795TIP3    H235343   3.759   1.889   4.729 -1.5253 -0.6908  0.8635
11796TIP3   OH235344   7.334   4.705   1.330  0.5278 -0.2245 -0.0656
11796TIP3    H135345   7.330   4.782   1.274  1.6267 -1.8454 -2.5807
11796TIP3    H235346   7.292   4.636   1.279  0.3551 -1.5187  1.7228
11797TIP3   OH235347   4.280   1.861   1.917 -0.0161  0.1809 -0.4748
11797TIP3    H135348   4.294   1.838   1.825 -0.8311 -0.6381 -0.4051
11797TIP3    H235349   4.365   1.891   1.947  0.1903  0.7796 -1.5865
11798TIP3   OH235350   2.763   3.272   1.564  0.2397 -0.1458  0.1631
11798TIP3    H135351   2.704   3.316   1.503 -0.0869  0.0993  0.6599
11798TIP3    H235352   2.798   3.342   1.618  1.2042 -0.2478 -0.3027
11799TIP3   OH235353   3.690   1.672   6.293  0.6350  0.6731  0.4204
11799TIP3    H135354   3.647   1.677   6.208 -0.4034 -1.0691  0.7825
11799TIP3    H235355   3.621   1.695   6.356  1.7354  3.2945  0.7887
11800TIP3   OH235356   6.855   4.344   0.290 -0.4704  0.1395  0.3615
11800TIP3    H135357   6.920   4.412   0.307 -0.8464  0.4564  0.5461
11800TIP3    H235358   6.899   4.263   0.316  0.8397 -0.0145 -2.0271
11801TIP3   OH235359   5.097   4.985   0.988 -0.0323  0.1041 -0.3513
11801TIP3    H135360   5.088   5.035   0.907 -1.6255 -0.9326 -0.8688
11801TIP3    H235361   5.188   4.955   0.988  1.1061  3.1322  0.1280
11802TIP3   OH235362   5.772   3.629   3.989  0.2138  0.2505 -0.3263
11802TIP3    H135363   5.843   3.569   3.966  0.6628  0.9097 -0.7145
11802TIP3    H235364   5.701   3.573   4.019  0.8001 -0.4398 -0.2027
11803TIP3   OH235365   6.777   0.727   4.846  0.4508  0.1494  0.2781
11803TIP3    H135366   6.756   0.741   4.753  0.5233 -0.5321  0.1570
11803TIP3    H235367   6.853   0.783   4.861  0.5253  0.1607 -0.1121
11804TIP3   OH235368   1.733   4.001   5.559 -0.2644  0.1975  0.6217
11804TIP3    H135369   1.759   4.080   5.607  0.1728 -0.8943  2.2738
11804TIP3    H235370   1.661   3.965   5.610 -1.6470  0.4142 -1.0828
11805TIP3   OH235371   3.562   5.591   3.689 -0.4019  0.2042 -0.0090
11805TIP3    H135372   3.642   5.588   3.637 -0.1755 -0.7638  0.3742
11805TIP3    H235373   3.558   5.681   3.721  1.5949 -0.1902  1.5711
11806TIP3   OH235374   3.902   6.135   3.833 -0.5846  0.3835 -0.0302
11806TIP3    H135375   3.898   6.065   3.899  0.3235 -0.6288 -1.0037
11806TIP3    H235376   3.973   6.191   3.862 -0.0026 -0.2149 -0.2634
11807TIP3   OH235377   4.037   6.057   4.126 -0.0876  0.0869 -0.1801
11807TIP3    H135378   3.970   5.991   4.106  0.8407 -0.1556 -2.8075
11807TIP3    H235379   4.106   6.008   4.171  0.6039 -0.8272 -2.1330
11808TIP3   OH235380   8.266   2.456   6.541 -0.0251 -0.1095  0.4332
11808TIP3    H135381   8.287   2.515   6.613 -2.7010 -0.0673  1.2590
11808TIP3    H235382   8.227   2.380   6.582 -0.0452 -0.8492 -0.8793
11809TIP3   OH235383   1.197   4.279   3.773  0.8115 -0.5911 -0.8245
11809TIP3    H135384   1.254   4.270   3.849  0.7549  1.8075 -0.4121
11809TIP3    H235385   1.184   4.373   3.764 -1.7527 -0.9704 -1.9179
11810TIP3   OH235386   2.824   3.077   3.225  0.6496 -0.1958 -0.8167
11810TIP3    H135387   2.883   3.019   3.176 -1.1439 -0.9832 -2.1595
11810TIP3    H235388   2.737   3.054   3.194 -0.4506  0.5557  1.4842
11811TIP3   OH235389   2.563   1.290   4.105 -0.0199 -0.2300  0.2978
11811TIP3    H135390   2.651   1.263   4.077  0.2896  0.2263  0.7966
11811TIP3    H235391   2.504   1.232   4.057  0.5654 -0.7707  0.2090
11812TIP3   OH235392   6.627   2.107   4.489  0.6756  0.5439 -0.1946
11812TIP3    H135393   6.698   2.169   4.469 -0.4805  1.8574 -0.3352
11812TIP3    H235394   6.591   2.138   4.572 -1.0328  1.1246 -1.1199
11813TIP3   OH235395   5.560   7.794   1.570 -0.2419  0.4521  0.0983
11813TIP3    H135396   5.581   7.817   1.661  0.2942 -0.1887  0.1439
11813TIP3    H235397   5.643   7.803   1.523  0.5022 -2.9623  0.4482
11814TIP3   OH235398   2.243   0.704   0.591 -0.0876  0.5258  0.5477
11814TIP3    H135399   2.262   0.644   0.664  1.2973 -2.4368 -2.0157
11814TIP3    H235400   2.152   0.684   0.567  0.6824 -1.4826 -0.9543
11815TIP3   OH235401   6.166   3.450   1.104 -0.0576 -0.0885  0.1199
11815TIP3    H135402   6.187   3.528   1.053  1.8312  0.0522  1.0293
11815TIP3    H235403   6.210   3.379   1.058 -0.1436 -0.3140  0.3860
11816TIP3   OH235404   0.626   3.550   0.715 -0.4888  0.3301 -0.4766
11816TIP3    H135405   0.638   3.607   0.791  0.6490  0.1816 -0.5227
11816TIP3    H235406   0.655   3.464   0.745 -0.5734  0.1487 -0.9096
11817TIP3   OH235407   5.092   0.011   3.372  0.2320  0.0548  0.5067
11817TIP3    H135408   5.174   0.057   3.352  0.7493  0.1541  2.5503
11817TIP3    H235409   5.117  -0.055   3.437 -1.3522  0.2606  1.3721
11818TIP3   OH235410   2.573   6.443   5.702 -0.2662  0.0857  0.0061
11818TIP3    H135411   2.511   6.503   5.742 -0.8747 -0.7050  0.2735
11818TIP3    H235412   2.657   6.466   5.741 -0.2140  1.7185 -0.9693
11819TIP3   OH235413   4.186   6.955   3.491  0.3181  0.2148  0.0722
11819TIP3    H135414   4.098   6.918   3.492  1.2858 -2.4438 -1.3184
11819TIP3    H235415   4.196   6.992   3.404  0.6357  0.2940  0.1393
11820TIP3   OH235416   8.160   1.302   5.249  0.2572 -0.2830 -0.1495
11820TIP3    H135417   8.148   1.388   5.288 -2.0887 -0.3146 -0.6466
11820TIP3    H235418   8.165   1.318   5.155 -0.5427 -0.6847 -0.2722
11821TIP3   OH235419   4.551   3.805   4.616  0.0058 -0.1640  0.4101
11821TIP3    H135420   4.534   3.891   4.653  0.0201 -0.5444  1.3435
11821TIP3    H235421   4.506   3.805   4.532 -2.2350 -0.1308  1.5196
11822TIP3   OH235422   7.453   1.990   5.404 -0.4633  0.0620 -0.2112
11822TIP3    H135423   7.443   1.982   5.309  0.7342 -0.2794 -0.3154
11822TIP3    H235424   7.525   2.051   5.416 -0.2514 -0.3104  0.4759
11823TIP3   OH235425   2.593   4.615   6.574  0.3160 -0.8255 -0.0217
11823TIP3    H135426   2.588   4.699   6.620  0.7562 -0.3245 -0.8701
11823TIP3    H235427   2.530   4.622   6.502  1.1432 -0.7954 -0.7576
11824TIP3   OH235428   0.477   2.970   3.644  0.5016 -0.3182 -0.6099
11824TIP3    H135429   0.482   3.043   3.582 -0.1205 -0.0294 -0.3242
11824TIP3    H235430   0.567   2.959   3.674  0.6629  0.0980 -0.9196
11825TIP3   OH235431   4.492   1.404   6.388 -0.0382  0.7023  0.5053
11825TIP3    H135432   4.573   1.368   6.353 -0.9752 -1.4898  0.4108
11825TIP3    H235433   4.446   1.441   6.312 -0.3656 -0.6163  0.0384
11826TIP3   OH235434   7.364   3.110   0.340  0.2079  0.2511 -0.2148
11826TIP3    H135435   7.388   3.018   0.331  0.9819  0.4602 -0.3946
11826TIP3    H235436   7.421   3.144   0.409  0.3517  0.7404 -0.5683
11827TIP3   OH235437   7.088   0.294   0.103  0.3150  0.2234 -0.1289
11827TIP3    H135438   7.136   0.376   0.110 -0.8567  1.0120 -0.9273
11827TIP3    H235439   7.000   0.315   0.132  0.6432 -1.4793  2.4570
11828TIP3   OH235440   7.685   1.317   1.823 -0.1652  0.3341 -0.0788
11828TIP3    H135441   7.705   1.397   1.774 -0.2671 -0.9123 -2.3061
11828TIP3    H235442   7.599   1.291   1.791  0.5310 -1.4804 -0.6137
11829TIP3   OH235443   6.273   6.904   2.237  0.0788 -0.4917 -0.2833
11829TIP3    H135444   6.286   6.904   2.143 -0.4254  0.4246 -0.3674
11829TIP3    H235445   6.344   6.960   2.271 -0.7195  0.5488 -0.2897
11830TIP3   OH235446   0.398   3.805   3.443  0.3239  0.0502  0.0321
11830TIP3    H135447   0.476   3.858   3.456  0.7452 -0.4951 -0.2331
11830TIP3    H235448   0.336   3.863   3.399  0.9091  0.2085 -0.5911
11831TIP3   OH235449   2.193   1.130   3.016 -0.1338  0.3234 -0.0215
11831TIP3    H135450   2.196   1.217   3.057 -2.1715  0.4942 -0.1515
11831TIP3    H235451   2.124   1.137   2.951 -0.9329 -1.6321  0.5603
11832TIP3   OH235452   5.042   3.843   1.739  0.0497 -0.0870 -0.3200
11832TIP3    H135453   5.116   3.830   1.798  0.0913  0.0356 -0.3449
11832TIP3    H235454   5.038   3.762   1.687 -0.9060 -0.8306  0.8571
11833TIP3   OH235455   8.083   3.820   4.333  0.4225  0.2635  0.2336
11833TIP3    H135456   8.072   3.826   4.428  0.0245  0.2375  0.1936
11833TIP3    H235457   8.000   3.854   4.298  0.2829 -0.3991 -0.0883
11834TIP3   OH235458   5.722   1.274   3.881 -0.0260 -0.2969  0.2364
11834TIP3    H135459   5.800   1.327   3.866  1.0017 -1.7738  0.1870
11834TIP3    H235460   5.755   1.189   3.911 -1.6284 -0.8283  0.6252
11835TIP3   OH235461   3.477   1.029   6.143 -0.5832  0.1326  0.2425
11835TIP3    H135462   3.467   1.114   6.186  0.4954  0.2105  0.3738
11835TIP3    H235463   3.388   1.003   6.119 -0.9104  1.4033  0.0083
11836TIP3   OH235464   7.679   4.339   6.612  0.1992 -0.9903  0.1355
11836TIP3    H135465   7.755   4.351   6.555 -0.0928  1.2786  0.1083
11836TIP3    H235466   7.709   4.368   6.698 -0.0940 -1.9679  0.5809
11837TIP3   OH235467   2.007   5.283   0.059 -0.6298  0.1570 -0.1752
11837TIP3    H135468   2.070   5.215   0.035  0.3870  0.9258  0.2382
11837TIP3    H235469   2.057   5.364   0.055 -1.1219  0.6155  1.7821
11838TIP3   OH235470   1.070   4.014   1.913  0.2394 -0.1385  0.5678
11838TIP3    H135471   1.165   4.016   1.908  0.1798  0.0645 -0.9910
11838TIP3    H235472   1.045   4.103   1.937  0.4382 -0.2139  1.0674
11839TIP3   OH235473   4.851   2.442   3.408 -0.2819  0.0715 -0.5894
11839TIP3    H135474   4.788   2.413   3.474 -1.3550 -1.9057 -2.3699
11839TIP3    H235475   4.918   2.374   3.406  1.0255  1.2870  0.0412
11840TIP3   OH235476   0.967   7.260   6.040  0.0494 -0.3179  0.0985
11840TIP3    H135477   0.882   7.288   6.071  0.4810  2.1375 -0.7544
11840TIP3    H235478   1.027   7.276   6.113  0.4234  1.8630 -0.6308
11841TIP3   OH235479   5.024   0.323   2.508 -0.2599  0.4299 -0.2721
11841TIP3    H135480   5.027   0.228   2.503  2.2800  0.4351 -0.2964
11841TIP3    H235481   5.025   0.342   2.602 -0.2538  0.4413 -0.2744
11842TIP3   OH235482   1.605   5.230   2.464  0.2023  0.3693  0.8011
11842TIP3    H135483   1.545   5.306   2.467  0.9595  0.9933  0.4491
11842TIP3    H235484   1.615   5.211   2.371  0.0322 -0.1647  0.8878
11843TIP3   OH235485   1.344   4.703   3.773  0.7915 -0.1309 -0.3114
11843TIP3    H135486   1.425   4.714   3.724 -0.1167 -1.1202 -2.1459
11843TIP3    H235487   1.299   4.630   3.730 -0.7192 -0.1389  1.1491
11844TIP3   OH235488   7.889   6.127   0.617 -0.1035  0.0792  0.1197
11844TIP3    H135489   7.831   6.165   0.552 -0.7562  0.0972  0.6953
11844TIP3    H235490   7.975   6.166   0.600  0.1014 -1.0384 -1.6654
11845TIP3   OH235491   2.244   7.712   0.040 -0.1839  0.0827  0.0629
11845TIP3    H135492   2.161   7.733  -0.005 -0.8602 -1.2350  0.6461
11845TIP3    H235493   2.263   7.622   0.015 -0.6183 -0.7386  2.4306
11846TIP3   OH235494   2.297   7.682   1.647 -0.2745  0.5902 -0.0708
11846TIP3    H135495   2.274   7.683   1.740  1.6446  1.4231  0.4348
11846TIP3    H235496   2.350   7.603   1.636  2.4273  2.2126  0.3836
11847TIP3   OH235497   2.944   7.765   5.544 -0.1238 -0.3232  0.3176
11847TIP3    H135498   2.988   7.683   5.569 -0.4894 -0.9160 -0.9127
11847TIP3    H235499   2.852   7.741   5.537 -0.8234  1.0080  3.3046
11848TIP3   OH235500   8.275   5.048   4.314 -0.4101  0.2613  0.3419
11848TIP3    H135501   8.194   5.035   4.363  0.8741 -1.4235  2.1477
11848TIP3    H235502   8.343   5.008   4.368  1.2220 -1.1937 -2.5425
11849TIP3   OH235503   7.242   1.435   4.226  0.3121 -0.0654  0.1688
11849TIP3    H135504   7.242   1.490   4.148  0.8890 -1.8450 -1.1507
11849TIP3    H235505   7.310   1.369   4.209 -1.5661 -2.3232  0.7978
11850TIP3   OH235506   4.404   1.202   1.311  0.2117 -0.7191  0.1431
11850TIP3    H135507   4.492   1.167   1.297  0.1999 -0.7107  0.0484
11850TIP3    H235508   4.395   1.272   1.247  0.6141  0.1533  1.0176
11851TIP3   OH235509   3.317   7.733   1.772  0.3266  0.0942  0.4110
11851TIP3    H135510   3.402   7.707   1.736 -0.1533  0.4596 -1.0673
11851TIP3    H235511   3.254   7.700   1.708 -0.6419 -0.0878  1.4462
11852TIP3   OH235512   7.021   2.884   6.149 -0.0466  0.2807 -0.4332
11852TIP3    H135513   7.008   2.887   6.244 -0.4955 -0.0437 -0.4818
11852TIP3    H235514   7.097   2.828   6.138 -0.9131 -0.9412 -0.3373
11853TIP3   OH235515   5.037   4.979   5.461  0.0283 -0.2567  0.1301
11853TIP3    H135516   4.985   4.899   5.460  0.1238 -0.3325  0.7728
11853TIP3    H235517   4.982   5.043   5.506  0.6397 -0.4551  1.1963
11854TIP3   OH235518   4.816   0.482   2.003  0.5587  0.3103 -0.3356
11854TIP3    H135519   4.746   0.470   1.939  0.5872 -0.6129 -0.2046
11854TIP3    H235520   4.855   0.395   2.013 -0.3774  0.0812  2.0142
11855TIP3   OH235521   5.301   1.180   6.429 -0.2217 -0.1790 -0.2411
11855TIP3    H135522   5.242   1.221   6.492 -0.5598 -1.1590  0.1045
11855TIP3    H235523   5.382   1.165   6.479  0.6622  1.9194 -0.9401
11856TIP3   OH235524   2.774   5.970   3.571 -0.4237  0.1867  0.3694
11856TIP3    H135525   2.844   5.914   3.538 -0.9211 -2.3318  3.1947
11856TIP3    H235526   2.706   5.965   3.504  0.3609 -0.9222 -0.3837
11857TIP3   OH235527   0.091   3.360   1.096 -0.1945  0.1246 -0.2246
11857TIP3    H135528   0.011   3.399   1.058 -0.2676 -0.1843 -0.3899
11857TIP3    H235529   0.104   3.279   1.046  1.1441  0.9670 -1.3437
11858TIP3   OH235530   0.878   1.645   4.992  0.6084  0.2783 -0.8517
11858TIP3    H135531   0.879   1.627   5.086  0.9271 -1.1223 -1.1041
11858TIP3    H235532   0.936   1.579   4.954 -0.9795 -0.4186 -2.2195
11859TIP3   OH235533   3.363   1.311   4.024 -0.0384 -0.0133 -0.1439
11859TIP3    H135534   3.457   1.294   4.013  0.4653  1.9965  0.4781
11859TIP3    H235535   3.356   1.346   4.113 -1.5904 -1.2899  0.2724
11860TIP3   OH235536   6.658   6.160   3.885  0.0070  0.7162  0.5230
11860TIP3    H135537   6.603   6.164   3.806 -1.5270  0.7584  1.5402
11860TIP3    H235538   6.663   6.250   3.915 -0.0909  0.6017  0.8930
11861TIP3   OH235539   4.170   2.627   5.411  0.0007  0.2088 -0.3215
11861TIP3    H135540   4.124   2.704   5.446 -0.5475 -0.7553  1.1743
11861TIP3    H235541   4.241   2.612   5.473 -0.2195 -0.7929 -0.3008
11862TIP3   OH235542   6.840   3.481   5.010  0.3956  0.2190  0.0906
11862TIP3    H135543   6.819   3.543   5.080 -0.9644  2.1552 -1.8970
11862TIP3    H235544   6.756   3.462   4.969  1.3297  0.7653 -2.2526
11863TIP3   OH235545   3.965   7.536   5.292 -0.1914  0.1323  0.3852
11863TIP3    H135546   4.026   7.598   5.251 -0.0566  0.1919  0.6762
11863TIP3    H235547   4.018   7.489   5.356 -0.2423 -0.4312  0.0229
11864TIP3   OH235548   6.121   3.029   6.212 -0.2514  0.0288 -0.2134
11864TIP3    H135549   6.135   2.972   6.137  0.0285 -0.9513  0.5615
11864TIP3    H235550   6.152   2.978   6.287 -1.4208  0.6073  0.6857
11865TIP3   OH235551   4.988   4.471   6.050 -0.3200 -0.2714 -0.5214
11865TIP3    H135552   4.915   4.533   6.059 -1.0914 -1.1276 -0.6955
11865TIP3    H235553   5.060   4.524   6.015 -0.3003  0.9817  1.2406
11866TIP3   OH235554   4.826   5.303   6.665 -0.0721  0.4593  0.1209
11866TIP3    H135555   4.780   5.323   6.584 -0.5793 -0.1721  0.2425
11866TIP3    H235556   4.899   5.365   6.668 -0.2834  0.7471 -0.6155
11867TIP3   OH235557   6.866   3.355   2.886 -0.0183  0.0474  0.1572
11867TIP3    H135558   6.819   3.278   2.921 -1.1674  0.5242 -0.2854
11867TIP3    H235559   6.863   3.343   2.791  3.2136 -1.3159  0.1011
11868TIP3   OH235560   0.643   0.030   6.365 -0.0363 -0.6719 -0.1499
11868TIP3    H135561   0.714   0.050   6.426 -0.0634 -1.1298  0.0348
11868TIP3    H235562   0.575  -0.010   6.420  0.3056 -1.9417 -0.6205
11869TIP3   OH235563   7.541   3.816   4.620 -0.1839  0.7403  0.6556
11869TIP3    H135564   7.517   3.741   4.674 -1.2125  1.2819  0.9759
11869TIP3    H235565   7.628   3.794   4.585 -1.2164 -1.4124 -0.7521
11870TIP3   OH235566   4.674   7.266   6.425  0.0582  0.3868 -0.4381
11870TIP3    H135567   4.678   7.281   6.519  0.2690  2.5222 -0.7444
11870TIP3    H235568   4.582   7.247   6.407 -0.1883  1.1166  0.0484
11871TIP3   OH235569   7.077   1.460   2.857 -0.4096 -0.0073  0.2993
11871TIP3    H135570   7.128   1.538   2.880  3.1076 -1.7973 -0.7049
11871TIP3    H235571   7.008   1.457   2.924 -0.9475  4.0227  0.2045
11872TIP3   OH235572   5.416   2.241   5.904 -0.3891  0.2324 -0.1886
11872TIP3    H135573   5.442   2.234   5.996  1.9029  0.5328 -0.7555
11872TIP3    H235574   5.359   2.318   5.901 -1.0617 -0.1957  1.0817
11873TIP3   OH235575   2.400   4.215   3.530  0.2663 -0.5459 -0.2395
11873TIP3    H135576   2.382   4.307   3.510  1.4461 -0.6935 -2.2746
11873TIP3    H235577   2.328   4.188   3.586 -1.4249  0.9745 -1.5564
11874TIP3   OH235578   7.114   4.548   6.481  0.1240  0.0956 -0.3536
11874TIP3    H135579   7.070   4.464   6.494 -0.9512  0.6585 -0.2686
11874TIP3    H235580   7.067   4.589   6.408 -1.9550  2.2751  1.9825
11875TIP3   OH235581   3.190   2.955   0.381  0.8116 -0.4770 -0.0442
11875TIP3    H135582   3.272   2.944   0.429  0.7800 -2.5071 -0.4066
11875TIP3    H235583   3.214   3.003   0.302  1.6496 -1.0771 -0.1580
11876TIP3   OH235584   5.285   5.204   1.181 -0.8809 -0.1283 -0.1238
11876TIP3    H135585   5.358   5.152   1.216 -0.9635  0.8607  1.5842
11876TIP3    H235586   5.207   5.160   1.212 -0.9887 -0.0235 -0.2429
11877TIP3   OH235587   4.675   6.409   1.441 -0.4460 -0.7597 -0.7687
11877TIP3    H135588   4.588   6.431   1.475  0.2699 -0.6481  1.0637
11877TIP3    H235589   4.728   6.487   1.458  1.1740 -2.3764  2.4649
11878TIP3   OH235590   3.798   7.697   2.290  0.0269 -0.4285  0.3319
11878TIP3    H135591   3.875   7.754   2.296  0.2084 -0.7258  0.9446
11878TIP3    H235592   3.723   7.755   2.302  0.1698 -0.1810  0.0252
11879TIP3   OH235593   7.281   5.137   0.501 -0.1795  0.1694 -0.0365
11879TIP3    H135594   7.271   5.219   0.549 -3.0464  0.6864 -1.2903
11879TIP3    H235595   7.356   5.152   0.444  1.6960  0.4573  2.3752
11880TIP3   OH235596   7.810   5.599   2.853  0.7979 -0.1013 -0.8946
11880TIP3    H135597   7.733   5.604   2.797 -1.2060  1.0114  1.7098
11880TIP3    H235598   7.859   5.679   2.834 -0.2940  0.6813 -0.5728
11881TIP3   OH235599   3.210   1.386   2.516  0.8656 -0.0590 -0.0302
11881TIP3    H135600   3.201   1.417   2.425 -1.3635  1.2311  0.5321
11881TIP3    H235601   3.198   1.465   2.569  0.0980 -1.0938  1.4174
11882TIP3   OH235602   1.743   7.205   2.817 -0.0238  0.2264 -0.4625
11882TIP3    H135603   1.687   7.128   2.806  0.9595 -0.6716  0.5668
11882TIP3    H235604   1.784   7.217   2.732  1.3190 -1.6295 -0.1250
11883TIP3   OH235605   3.823   1.041   4.189  0.0489 -0.3274 -0.3144
11883TIP3    H135606   3.751   1.054   4.126  1.3218  0.6481 -1.6318
11883TIP3    H235607   3.810   1.110   4.254  0.9988  1.2840 -1.7601
11884TIP3   OH235608   3.919   5.466   4.471  0.9883 -0.4835 -0.3316
11884TIP3    H135609   4.011   5.482   4.451  0.6280  0.3968 -1.3676
11884TIP3    H235610   3.872   5.495   4.393 -0.2280 -0.2085  0.4747
11885TIP3   OH235611   1.039   5.656   3.567  0.0203 -0.0784 -0.1648
11885TIP3    H135612   1.058   5.700   3.650  1.5247 -1.3745  0.2226
11885TIP3    H235613   1.049   5.724   3.500 -2.0693  1.2041  0.7234
11886TIP3   OH235614   3.964   0.385   2.341 -0.5158  0.3596 -0.5045
11886TIP3    H135615   4.026   0.358   2.274 -0.1116  0.4690 -0.1776
11886TIP3    H235616   3.997   0.346   2.422  0.4131  2.3008  0.0996
11887TIP3   OH235617   2.664   1.448   1.924  0.4796  0.1676  0.4243
11887TIP3    H135618   2.589   1.501   1.897  0.7797  0.8205  0.8409
11887TIP3    H235619   2.736   1.511   1.932  1.0050 -0.4028  0.3086
11888TIP3   OH235620   6.537   6.612   2.350  0.0129  0.1827  0.0418
11888TIP3    H135621   6.510   6.657   2.270  0.2445 -0.2449 -0.2791
11888TIP3    H235622   6.585   6.678   2.399 -2.0217  1.1481  0.8813
11889TIP3   OH235623   4.571   6.138   6.606  0.6271 -0.2215  0.0017
11889TIP3    H135624   4.511   6.078   6.651  0.7538 -0.9343 -0.7431
11889TIP3    H235625   4.542   6.135   6.514  1.3218  0.0247 -0.2296
11890TIP3   OH235626   0.638   3.626   4.010 -0.1253 -0.4012 -0.0776
11890TIP3    H135627   0.573   3.696   4.009 -0.8197 -1.0061  0.8231
11890TIP3    H235628   0.598   3.557   4.063  0.8187 -1.2128 -0.3877
11891TIP3   OH235629   1.329   2.827   0.219  0.3947 -0.2472 -0.7102
11891TIP3    H135630   1.341   2.793   0.307 -0.4879 -0.9443 -0.8494
11891TIP3    H235631   1.411   2.806   0.173  0.1784 -1.4945 -0.5652
11892TIP3   OH235632   2.697   2.204   4.583  0.1426 -0.5103  0.7926
11892TIP3    H135633   2.601   2.203   4.583  0.0691 -0.0705 -1.6076
11892TIP3    H235634   2.721   2.292   4.611 -0.0700 -0.9838  2.5851
11893TIP3   OH235635   1.760   3.967   5.972  0.1118 -0.0794  0.4329
11893TIP3    H135636   1.792   3.918   5.897 -1.4212 -0.8011  0.2019
11893TIP3    H235637   1.716   4.043   5.934 -1.5519 -0.9632  0.4837
11894TIP3   OH235638   3.340   0.286   2.144  0.1081  0.2292 -0.3234
11894TIP3    H135639   3.400   0.354   2.115  1.7858 -0.8962  0.3717
11894TIP3    H235640   3.362   0.210   2.090  0.1006 -0.5334  0.7164
11895TIP3   OH235641   1.637   4.127   1.065  0.1088  0.7222 -0.7005
11895TIP3    H135642   1.615   4.120   0.972  4.0889  0.4051 -1.8124
11895TIP3    H235643   1.689   4.049   1.083 -0.8968  0.5741  1.9747
11896TIP3   OH235644   6.499   1.229   3.554  0.4265  0.3088 -0.0118
11896TIP3    H135645   6.443   1.304   3.536 -0.6918 -0.1031  1.5987
11896TIP3    H235646   6.539   1.248   3.639  0.9789 -0.4441 -0.0898
11897TIP3   OH235647   7.144   0.524   4.674 -0.2019 -0.1147  0.1026
11897TIP3    H135648   7.181   0.496   4.590  0.2388  0.3050  0.1505
11897TIP3    H235649   7.051   0.502   4.667 -0.8716  2.7350 -1.7926
11898TIP3   OH235650   1.231   2.341   5.712  0.3846 -0.2745  0.3907
11898TIP3    H135651   1.139   2.357   5.691  0.3195 -0.3515  0.6145
11898TIP3    H235652   1.272   2.325   5.627  0.4167  0.8793  0.1778
11899TIP3   OH235653   5.566   5.309   3.685 -0.7819  0.1082  0.0670
11899TIP3    H135654   5.539   5.400   3.695 -0.1101  0.5766 -1.8868
11899TIP3    H235655   5.611   5.307   3.600 -2.2996 -2.3994 -0.7688
11900TIP3   OH235656   2.984   3.212   6.422 -0.0357  0.1778 -0.0233
11900TIP3    H135657   2.890   3.200   6.416 -0.1005  0.3865  0.4875
11900TIP3    H235658   3.021   3.128   6.393 -0.3699  0.1518 -0.3795
11901TIP3   OH235659   7.363   7.171   5.175  0.1414 -0.4362 -0.8752
11901TIP3    H135660   7.421   7.149   5.248 -0.8533  0.4523  0.2229
11901TIP3    H235661   7.349   7.088   5.129  0.0018 -1.2173  0.5211
11902TIP3   OH235662   2.141   4.350   6.506 -0.4014 -0.1201 -0.1087
11902TIP3    H135663   2.086   4.354   6.584 -0.0614  0.9725  0.0987
11902TIP3    H235664   2.206   4.283   6.526 -1.0781 -0.7520  0.0192
11903TIP3   OH235665   7.984   3.524   6.006 -0.6346  0.7318  0.1430
11903TIP3    H135666   8.021   3.587   5.944 -0.8935 -0.7459 -1.6110
11903TIP3    H235667   8.044   3.450   6.003 -1.5451 -0.0293  0.3861
11904TIP3   OH235668   8.220   4.452   0.717  0.2028  0.5858 -0.0428
11904TIP3    H135669   8.221   4.512   0.792 -0.0362  1.1654 -0.4972
11904TIP3    H235670   8.140   4.400   0.730 -0.4948  1.5100 -0.5256
11905TIP3   OH235671   2.258   2.931   5.483 -0.1025 -1.0557  0.2859
11905TIP3    H135672   2.194   2.881   5.434 -0.5491  1.5081 -1.9710
11905TIP3    H235673   2.341   2.914   5.439  0.2009 -1.6744  1.0634
11906TIP3   OH235674   0.554   0.175   5.626 -0.0626 -0.2343 -0.4519
11906TIP3    H135675   0.591   0.138   5.707 -1.1620 -1.0622 -0.3053
11906TIP3    H235676   0.560   0.270   5.638  1.9175 -0.3235 -0.4121
11907TIP3   OH235677   7.252   0.126   5.842  0.3450 -0.4293 -0.2393
11907TIP3    H135678   7.342   0.132   5.812  0.4627  1.8537  0.4387
11907TIP3    H235679   7.257   0.133   5.937 -0.5691  0.0516 -0.2133
11908TIP3   OH235680   0.895   1.606   2.863  0.1612  0.2288 -0.1885
11908TIP3    H135681   0.809   1.647   2.851 -0.0694  0.6009  2.1884
11908TIP3    H235682   0.934   1.607   2.776 -2.2046  0.0985 -1.3383
11909TIP3   OH235683   7.032   7.448   3.612 -0.1903 -0.4800 -0.3774
11909TIP3    H135684   7.059   7.359   3.635 -2.2344 -1.2807 -0.7932
11909TIP3    H235685   6.939   7.450   3.634  0.1867  2.2038  1.4348
11910TIP3   OH235686   5.112   6.448   0.153  0.1180 -0.2449 -0.2051
11910TIP3    H135687   5.047   6.496   0.102 -0.8120 -0.4419  0.7721
11910TIP3    H235688   5.087   6.356   0.144  0.1184 -0.3051  0.3582
11911TIP3   OH235689   7.355   2.865   5.294 -0.2639  0.0589 -0.7397
11911TIP3    H135690   7.371   2.948   5.249  1.2845  0.9564  1.2826
11911TIP3    H235691   7.262   2.869   5.317 -0.8137  0.0594 -2.7982
11912TIP3   OH235692   0.849   6.689   1.176 -0.1223  0.1295 -0.1603
11912TIP3    H135693   0.774   6.645   1.136 -1.1036  2.9857 -1.7250
11912TIP3    H235694   0.810   6.753   1.236  1.2286 -0.5409  1.5264
11913TIP3   OH235695   6.492   0.629   2.210 -0.3570  0.1113  0.4695
11913TIP3    H135696   6.532   0.628   2.123 -0.9230 -0.0607  0.2090
11913TIP3    H235697   6.478   0.722   2.229 -0.5255  0.1341  0.2383
11914TIP3   OH235698   0.462   6.842   1.153  0.2949 -0.3611 -0.1035
11914TIP3    H135699   0.483   6.755   1.121  0.8225 -0.3767  0.2729
11914TIP3    H235700   0.367   6.842   1.164  0.2812 -0.8404 -0.2411
11915TIP3   OH235701   4.987   6.603   1.478 -0.7093  0.1862  0.0658
11915TIP3    H135702   4.910   6.618   1.532 -0.5181  3.0339 -0.2875
11915TIP3    H235703   4.955   6.608   1.388 -0.3919 -0.4550 -0.0881
11916TIP3   OH235704   1.099   6.738   1.616 -0.8677  0.2670 -0.4333
11916TIP3    H135705   1.088   6.823   1.572 -0.9463 -0.2303 -1.4097
11916TIP3    H235706   1.140   6.759   1.699 -2.1792  1.4137 -0.0320
11917TIP3   OH235707   2.261   3.714   1.572  0.2941  0.3311  0.1823
11917TIP3    H135708   2.289   3.623   1.583  2.9800  0.5422 -3.0608
11917TIP3    H235709   2.233   3.720   1.480 -4.0683  1.9391  1.3703
11918TIP3   OH235710   4.965   7.084   2.717  0.2588  0.2202 -0.0701
11918TIP3    H135711   4.934   7.020   2.653  1.7300 -0.3503 -0.2473
11918TIP3    H235712   4.912   7.066   2.795  1.4855 -2.1159  0.3017
11919TIP3   OH235713   6.665   3.167   1.952  0.4278  0.5751 -0.2146
11919TIP3    H135714   6.651   3.094   2.012 -0.4935  1.8581  1.2030
11919TIP3    H235715   6.754   3.197   1.971  1.3305 -0.9670 -1.7570
11920TIP3   OH235716   6.115   6.920   3.665 -0.5567 -0.3244  0.6786
11920TIP3    H135717   6.185   6.959   3.613 -0.2285  1.0746  2.0824
11920TIP3    H235718   6.074   6.856   3.607  0.0960  0.8056 -1.1130
11921TIP3   OH235719   2.695   7.496   1.514  0.0126  0.4082  0.6272
11921TIP3    H135720   2.726   7.565   1.455 -1.3262  0.5420  0.0358
11921TIP3    H235721   2.715   7.415   1.468  2.9905  0.2392  1.9945
11922TIP3   OH235722   7.913   5.314   3.277 -0.0298 -0.5953  0.1990
11922TIP3    H135723   7.820   5.326   3.258 -0.0321 -0.5819  0.2189
11922TIP3    H235724   7.915   5.247   3.345 -0.0214 -0.6427  0.1517
11923TIP3   OH235725   4.008   4.286   2.546  0.7025  0.0613  0.4946
11923TIP3    H135726   4.036   4.364   2.498  2.2659 -0.6606  0.1815
11923TIP3    H235727   4.087   4.232   2.554  0.1146 -0.6309  2.4018
11924TIP3   OH235728   4.519   1.660   1.610  0.1349  0.4416  0.2489
11924TIP3    H135729   4.491   1.594   1.673 -0.7448 -0.6130 -1.1880
11924TIP3    H235730   4.614   1.663   1.618  0.1206 -0.4995  0.8278
11925TIP3   OH235731   5.062   3.792   5.905  0.4104 -0.1120 -0.0777
11925TIP3    H135732   5.133   3.739   5.868  1.3630 -0.4214  2.0864
11925TIP3    H235733   5.107   3.861   5.954 -0.8154  1.9832 -1.7305
11926TIP3   OH235734   6.435   6.605   5.481  0.3202  0.2445 -0.1504
11926TIP3    H135735   6.381   6.556   5.419  0.2339  0.5267 -0.2998
11926TIP3    H235736   6.494   6.658   5.427  0.1371  0.6137  0.0013
11927TIP3   OH235737   0.936   5.988   2.248  0.1736  0.0252 -0.2341
11927TIP3    H135738   0.852   5.944   2.264  0.7960 -1.9070 -1.8875
11927TIP3    H235739   0.937   6.059   2.311 -2.7390  0.1624 -0.1814
11928TIP3   OH235740   3.660   1.464   4.392  0.2771  0.0288 -0.4555
11928TIP3    H135741   3.572   1.460   4.429  0.4222  0.9948 -0.0011
11928TIP3    H235742   3.713   1.507   4.459  1.2558 -1.1565 -0.4342
11929TIP3   OH235743   4.370   6.938   4.150  0.4578  0.6341 -0.0298
11929TIP3    H135744   4.452   6.890   4.140 -0.3825 -0.7599 -0.4662
11929TIP3    H235745   4.390   7.026   4.120  1.1655 -0.3271 -2.6261
11930TIP3   OH235746   2.910   3.128   5.683  0.2174 -0.3870 -0.6177
11930TIP3    H135747   2.912   3.214   5.641 -1.3718  0.3591  0.7213
11930TIP3    H235748   2.822   3.095   5.666 -0.1371 -0.5017  1.1640
11931TIP3   OH235749   1.915   4.181   2.029  0.4581 -0.7146 -0.0150
11931TIP3    H135750   1.906   4.274   2.006 -0.3414 -0.9081 -0.5092
11931TIP3    H235751   1.939   4.182   2.122  0.4626 -0.0180 -0.0149
11932TIP3   OH235752   5.092   0.277   6.177  0.2907 -0.9101  0.4585
11932TIP3    H135753   5.131   0.305   6.260  1.1254 -2.6118  0.6854
11932TIP3    H235754   5.019   0.338   6.164  1.3785  0.6936  1.3766
11933TIP3   OH235755   1.379   5.274   1.827  0.2366  0.1594 -0.3666
11933TIP3    H135756   1.298   5.224   1.821  1.0595 -1.0431 -3.3053
11933TIP3    H235757   1.352   5.365   1.828 -1.1669 -0.2114  1.4491
11934TIP3   OH235758   7.472   2.856   0.342  0.0394 -0.2767  0.2041
11934TIP3    H135759   7.548   2.896   0.384  1.8562 -0.7104 -2.4010
11934TIP3    H235760   7.483   2.762   0.356 -1.8748 -0.2434  2.5770
11935TIP3   OH235761   6.560   7.045   5.986  0.1592  0.4216  0.0198
11935TIP3    H135762   6.568   7.103   5.909  2.1724  1.5049  0.9609
11935TIP3    H235763   6.573   7.103   6.061  0.1833 -0.9244  1.0977
11936TIP3   OH235764   3.310   3.017   2.984 -0.0668 -0.1167  0.3891
11936TIP3    H135765   3.326   2.940   3.038  0.8832 -0.6227 -0.5676
11936TIP3    H235766   3.290   2.982   2.897  1.4638  0.6971 -0.3353
11937TIP3   OH235767   6.093   6.224   2.634  0.1840  0.7718  0.2846
11937TIP3    H135768   6.112   6.251   2.724  0.2523 -0.4327  0.6444
11937TIP3    H235769   6.168   6.171   2.608 -0.9750 -1.0587  0.4694
11938TIP3   OH235770   2.669   5.167   2.797 -0.0521 -0.6739  0.1250
11938TIP3    H135771   2.600   5.233   2.791  0.0970 -0.5436 -0.2107
11938TIP3    H235772   2.645   5.101   2.731 -0.7090 -1.4482  1.1055
11939TIP3   OH235773   4.513   5.079   3.982 -0.5294  0.0837  0.1753
11939TIP3    H135774   4.576   5.096   4.051 -0.8355  1.5658  0.1250
11939TIP3    H235775   4.550   5.006   3.933 -0.4140 -1.1258  2.0008
11940TIP3   OH235776   3.787   1.491   3.469 -0.1416  0.0372  0.2695
11940TIP3    H135777   3.849   1.424   3.440 -0.9772  0.2403 -2.1798
11940TIP3    H235778   3.729   1.446   3.530 -0.2444 -1.3335 -0.7970
11941TIP3   OH235779   7.223   2.291   6.666 -0.6223  0.6395 -0.3108
11941TIP3    H135780   7.143   2.295   6.719  0.8871 -1.1673  2.3807
11941TIP3    H235781   7.221   2.203   6.627  0.6537 -0.0397  1.0279
11942TIP3   OH235782   3.402   4.198   6.277  0.0917 -0.6114  0.0788
11942TIP3    H135783   3.313   4.180   6.247  1.3635 -1.7258 -3.5202
11942TIP3    H235784   3.440   4.112   6.295  0.5963 -0.1712  1.2636
11943TIP3   OH235785   1.735   0.591   3.214  0.2241  0.4754  0.3527
11943TIP3    H135786   1.661   0.646   3.188 -1.2131 -0.7343  1.6875
11943TIP3    H235787   1.763   0.627   3.298  0.4013  0.2296  0.4003
11944TIP3   OH235788   1.571   1.225   4.611  0.2835  0.2245  0.2086
11944TIP3    H135789   1.664   1.241   4.628  0.0803 -0.2847  2.0138
11944TIP3    H235790   1.570   1.159   4.542  1.3290 -1.2163  1.5010
11945TIP3   OH235791   0.883   7.099   3.399 -0.3846 -0.0700 -0.3578
11945TIP3    H135792   0.847   7.041   3.466 -0.4632  1.1082  0.6590
11945TIP3    H235793   0.935   7.163   3.448 -1.2237  1.3988 -1.3151
11946TIP3   OH235794   3.920   2.420   5.742 -0.3707 -0.2156 -0.2933
11946TIP3    H135795   3.901   2.494   5.684 -1.7545 -1.1755 -1.1265
11946TIP3    H235796   3.936   2.459   5.827  0.3035  1.1335 -1.0071
11947TIP3   OH235797   1.220   1.296   3.416  0.0770  0.7193  0.5016
11947TIP3    H135798   1.233   1.281   3.509  0.0403 -0.8810  0.2621
11947TIP3    H235799   1.299   1.262   3.374 -0.3576  0.4802 -0.1325
11948TIP3   OH235800   7.352   3.992   1.613  0.7594 -0.4953  0.0364
11948TIP3    H135801   7.368   4.055   1.684  0.1756  1.2645 -1.3223
11948TIP3    H235802   7.260   3.967   1.624  0.5024  0.2251 -0.4241
11949TIP3   OH235803   1.129   7.662   3.133 -0.2037 -0.0795 -0.1162
11949TIP3    H135804   1.098   7.747   3.104 -1.7132 -0.4681  0.2993
11949TIP3    H235805   1.138   7.611   3.053 -1.5472 -0.2402 -0.1866
11950TIP3   OH235806   7.542   2.617   4.567 -0.2348 -0.2761  0.3417
11950TIP3    H135807   7.483   2.547   4.538 -1.7842  0.6813  1.0498
11950TIP3    H235808   7.606   2.572   4.622 -0.9751 -1.2027  0.4744
11951TIP3   OH235809   1.566   1.991   1.008 -0.0237 -0.0920 -0.3449
11951TIP3    H135810   1.536   2.069   0.960  0.4029  0.4657  0.2708
11951TIP3    H235811   1.616   2.027   1.082 -0.1478 -0.9493  0.1647
11952TIP3   OH235812   6.233   0.833   1.935  0.1807  0.5396 -0.2339
11952TIP3    H135813   6.186   0.771   1.878  0.1132  0.0139  0.3797
11952TIP3    H235814   6.321   0.798   1.942  0.0497  0.3133  0.3927
11953TIP3   OH235815   2.886   1.883   2.283 -0.0818  0.1760 -0.0360
11953TIP3    H135816   2.833   1.930   2.218 -2.4018 -0.5877  1.1815
11953TIP3    H235817   2.847   1.796   2.287  1.1633 -0.3667  1.1051
11954TIP3   OH235818   5.433   1.501   1.503 -0.7582  0.0747  0.4292
11954TIP3    H135819   5.506   1.477   1.446 -0.1055 -0.5813  1.4977
11954TIP3    H235820   5.382   1.421   1.512 -2.5164  0.8915 -1.5112
11955TIP3   OH235821   7.501   4.852   2.723  0.5718 -0.1727 -0.5318
11955TIP3    H135822   7.533   4.785   2.784  0.3539 -0.2313 -0.4808
11955TIP3    H235823   7.530   4.935   2.761 -1.5327 -0.0236  0.9089
11956TIP3   OH235824   5.815   1.900   0.669 -0.0682 -0.3467 -0.1461
11956TIP3    H135825   5.842   1.992   0.662  0.8077 -0.5443  0.5857
11956TIP3    H235826   5.876   1.861   0.731 -0.9379 -1.2402  0.1749
11957TIP3   OH235827   2.649   5.729   6.254 -0.2908 -0.3712  0.1009
11957TIP3    H135828   2.607   5.649   6.285 -0.9485 -0.4344 -0.9096
11957TIP3    H235829   2.605   5.749   6.172 -0.4865  1.3089  0.5751
11958TIP3   OH235830   6.316   2.741   2.594 -0.2484  0.1464 -0.6909
11958TIP3    H135831   6.326   2.799   2.519  1.7344 -1.6577 -1.9270
11958TIP3    H235832   6.357   2.788   2.666  1.1560  0.4233 -1.6265
11959TIP3   OH235833   2.188   3.102   5.863 -0.2395 -0.3549 -0.1155
11959TIP3    H135834   2.253   3.151   5.812  1.4657 -1.0294  1.2793
11959TIP3    H235835   2.240   3.042   5.916 -2.1135 -1.7312  0.2597
11960TIP3   OH235836   6.302   5.864   4.446 -0.3420 -0.1433 -0.1981
11960TIP3    H135837   6.367   5.885   4.513  1.2140 -3.5133 -0.4873
11960TIP3    H235838   6.320   5.927   4.375 -1.0243  2.4660  1.7872
11961TIP3   OH235839   8.226   4.189   5.253  0.1049 -0.4754  0.0638
11961TIP3    H135840   8.196   4.132   5.323 -1.5897  0.7007  0.3738
11961TIP3    H235841   8.319   4.203   5.271  0.0026 -1.2556  1.3019
11962TIP3   OH235842   2.436   3.901   4.948 -0.0537  0.2857 -0.3038
11962TIP3    H135843   2.418   3.860   4.863  1.3817 -1.1477  0.0381
11962TIP3    H235844   2.387   3.849   5.011 -0.4105  0.8074 -0.1390
11963TIP3   OH235845   7.426   7.600   2.297 -0.3245 -0.4240 -0.1358
11963TIP3    H135846   7.435   7.516   2.253 -2.1461 -0.5619 -0.3210
11963TIP3    H235847   7.420   7.664   2.226  0.2961 -0.2066 -0.0045
11964TIP3   OH235848   5.335   6.575   2.948 -0.1765  0.5291 -0.9784
11964TIP3    H135849   5.417   6.613   2.977  1.7990 -2.2661 -2.3902
11964TIP3    H235850   5.329   6.597   2.855 -0.5610  0.0249 -1.0826
11965TIP3   OH235851   3.506   6.586   2.684  0.0028  0.4675 -0.2758
11965TIP3    H135852   3.485   6.510   2.737 -0.0892 -0.3722 -1.4914
11965TIP3    H235853   3.457   6.658   2.724 -0.1338 -0.1645  0.7038
11966TIP3   OH235854   0.064   2.956   4.905 -0.4707  0.0378 -0.2139
11966TIP3    H135855   0.040   2.877   4.856 -0.8479  0.3504 -0.5419
11966TIP3    H235856   0.056   3.027   4.841  2.6086  0.0364 -0.7478
11967TIP3   OH235857   7.900   1.603   2.527 -0.4645 -0.2937  0.2930
11967TIP3    H135858   7.821   1.549   2.531 -1.4505  1.0963  0.2004
11967TIP3    H235859   7.957   1.557   2.465 -1.5613 -0.8553 -0.3352
11968TIP3   OH235860   3.268   7.484   0.422  0.1281 -0.3720  0.0889
11968TIP3    H135861   3.215   7.486   0.502  2.5756 -1.3290  1.8934
11968TIP3    H235862   3.347   7.533   0.445 -0.4317  2.2850 -2.9631
11969TIP3   OH235863   3.535   1.953   4.014  0.6765  0.2084  0.2712
11969TIP3    H135864   3.443   1.952   4.038  0.5435  0.1258 -0.2345
11969TIP3    H235865   3.542   1.888   3.944  1.0262  0.5663 -0.0300
11970TIP3   OH235866   6.378   4.549   0.906  0.2601  0.3580 -0.0036
11970TIP3    H135867   6.313   4.501   0.854 -0.8818  3.4882 -1.7556
11970TIP3    H235868   6.332   4.572   0.987 -0.1805  0.9123 -0.4055
11971TIP3   OH235869   5.536   7.524   4.007 -0.3703  0.0799 -0.2616
11971TIP3    H135870   5.630   7.541   4.011 -0.4740  0.5787  0.2808
11971TIP3    H235871   5.509   7.562   3.924  0.0706 -0.9778 -0.9105
11972TIP3   OH235872   6.789   5.595   6.490  0.3281 -0.1461  0.2126
11972TIP3    H135873   6.732   5.562   6.560  0.3284 -1.0204 -0.1907
11972TIP3    H235874   6.754   5.555   6.411  1.4531 -0.6111 -0.0563
11973TIP3   OH235875   4.656   1.985   5.272 -0.1334  0.5920  0.1163
11973TIP3    H135876   4.700   1.982   5.356  1.2514  1.8137 -0.5309
11973TIP3    H235877   4.562   1.984   5.294  0.2043  0.4243  1.6321
11974TIP3   OH235878   0.676   5.842   4.373 -0.9538 -0.6550  0.5433
11974TIP3    H135879   0.683   5.762   4.320 -1.3442 -0.0174 -0.5188
11974TIP3    H235880   0.767   5.870   4.386 -0.8043 -1.3928  1.1215
11975TIP3   OH235881   6.285   4.191   1.063  0.4132 -0.2750 -0.1605
11975TIP3    H135882   6.273   4.105   1.105  1.6050  0.2971  1.4627
11975TIP3    H235883   6.375   4.216   1.087 -0.0186  1.5426 -0.3587
11976TIP3   OH235884   4.159   2.062   0.670 -0.3721  0.0108 -0.3055
11976TIP3    H135885   4.111   2.002   0.727 -0.5398  2.4527  2.3324
11976TIP3    H235886   4.098   2.079   0.598 -1.2837 -1.0519  0.1768
11977TIP3   OH235887   6.974   2.752   3.829  0.4802  0.5871  0.3080
11977TIP3    H135888   7.019   2.833   3.802  0.8066  0.2170 -0.2784
11977TIP3    H235889   6.914   2.780   3.898  0.2836  1.4106 -0.1846
11978TIP3   OH235890   5.102   4.013   1.366 -0.3441  0.1680  0.1173
11978TIP3    H135891   5.174   3.949   1.370  0.3945  1.0126  0.9181
11978TIP3    H235892   5.023   3.961   1.375  0.1522 -0.7932 -0.7839
11979TIP3   OH235893   3.655   3.874   0.883 -0.9322 -0.2172 -0.0737
11979TIP3    H135894   3.682   3.964   0.864  2.0428 -0.8887  0.3489
11979TIP3    H235895   3.617   3.843   0.801  0.3722  0.6901 -1.0785
11980TIP3   OH235896   7.340   0.539   1.980 -0.1845  0.8257 -0.2572
11980TIP3    H135897   7.295   0.458   1.956 -0.4745  1.2047 -1.0528
11980TIP3    H235898   7.292   0.571   2.057 -0.0336  0.2187  0.0898
11981TIP3   OH235899   1.594   6.926   6.503 -0.1938 -0.2357  0.6615
11981TIP3    H135900   1.584   7.018   6.480 -1.2776 -0.2547  0.9883
11981TIP3    H235901   1.682   6.903   6.473 -0.6936  0.3313 -1.3956
11982TIP3   OH235902   3.655   6.240   3.348  0.6618  0.6383  0.1456
11982TIP3    H135903   3.667   6.162   3.295 -1.2945  0.4250 -0.0513
11982TIP3    H235904   3.740   6.254   3.390  0.7913 -2.2459  1.0662
11983TIP3   OH235905   1.482   1.278   5.116  0.1284 -0.1259 -0.7355
11983TIP3    H135906   1.449   1.354   5.165  0.1530  0.1990 -1.2119
11983TIP3    H235907   1.419   1.267   5.044 -0.3976 -1.1452 -0.1296
11984TIP3   OH235908   0.494   3.175   6.274  0.5161  0.2304  0.2855
11984TIP3    H135909   0.399   3.174   6.280  0.4068  0.2797 -1.0371
11984TIP3    H235910   0.520   3.260   6.309  0.0071  0.5201 -0.0283
11985TIP3   OH235911   0.114   7.454   5.300  0.0308 -0.7857 -0.5455
11985TIP3    H135912   0.109   7.397   5.377  0.4227  0.7760  0.6852
11985TIP3    H235913   0.207   7.472   5.289 -0.1962  1.0845  0.2569
11986TIP3   OH235914   6.754   0.988   1.224 -0.1285  0.8551 -0.2536
11986TIP3    H135915   6.689   0.997   1.154  0.0879  0.1236 -0.5574
11986TIP3    H235916   6.702   0.989   1.305 -0.5237  0.3058 -0.4904
11987TIP3   OH235917   5.732   4.313   5.059  0.2862  0.4184  0.2258
11987TIP3    H135918   5.708   4.224   5.033  0.1817  0.6999 -0.6701
11987TIP3    H235919   5.708   4.318   5.152 -0.3621 -0.2585  0.1050
11988TIP3   OH235920   7.277   3.136   4.303 -0.1039  0.7238 -0.3473
11988TIP3    H135921   7.275   3.191   4.381 -0.1266 -0.6103  0.6250
11988TIP3    H235922   7.204   3.075   4.313  1.8052 -1.6414  0.3018
11989TIP3   OH235923   0.553   1.577   3.070 -0.1577  0.4951  0.1940
11989TIP3    H135924   0.558   1.551   3.163 -1.2376  0.4150  0.2397
11989TIP3    H235925   0.600   1.660   3.066  0.7089  0.0503  0.6252
11990TIP3   OH235926   0.263   7.113   3.779 -0.3933  0.1332  0.4322
11990TIP3    H135927   0.213   7.192   3.758 -1.9275 -0.6401  1.0060
11990TIP3    H235928   0.327   7.106   3.708  1.5085  3.2188  1.6265
11991TIP3   OH235929   5.104   6.031   4.721  0.6490  0.7033 -0.4020
11991TIP3    H135930   5.009   6.025   4.734  0.8637 -0.0463  1.0530
11991TIP3    H235931   5.140   5.966   4.781  2.0338 -0.1349 -2.0903
11992TIP3   OH235932   7.179   1.901   2.000  0.4217 -0.3371 -0.1326
11992TIP3    H135933   7.203   1.824   1.950  1.3381 -0.6756  0.8066
11992TIP3    H235934   7.134   1.957   1.937  0.9532 -1.0412 -1.1631
11993TIP3   OH235935   8.176   0.471   2.521  0.2941  0.6322 -0.3091
11993TIP3    H135936   8.139   0.521   2.447  1.3416 -0.0845 -1.3503
11993TIP3    H235937   8.196   0.385   2.484 -0.6621 -0.3039  1.2448
11994TIP3   OH235938   3.597   0.115   5.669  0.3941 -0.2777  0.1283
11994TIP3    H135939   3.674   0.123   5.612  0.3440 -0.0960  0.0850
11994TIP3    H235940   3.604   0.189   5.729  0.3650 -0.3830  0.2615
11995TIP3   OH235941   5.807   2.492   3.973 -0.3428  0.3278  0.4084
11995TIP3    H135942   5.809   2.585   3.951 -0.6639  0.9967  2.8067
11995TIP3    H235943   5.898   2.463   3.967  0.1441  1.4409  1.8312
11996TIP3   OH235944   5.568   3.769   5.715 -0.1785  0.1626 -0.0479
11996TIP3    H135945   5.601   3.730   5.634 -2.2409 -1.0147 -0.4210
11996TIP3    H235946   5.625   3.734   5.783  0.6940 -0.0133 -0.8470
11997TIP3   OH235947   7.425   1.435   6.150 -0.5151 -0.6165 -0.4904
11997TIP3    H135948   7.346   1.406   6.196 -0.5406 -0.2507 -0.2972
11997TIP3    H235949   7.431   1.378   6.073 -0.5734 -1.1132 -0.1279
11998TIP3   OH235950   6.590   4.096   5.010  0.2901  0.1814 -0.1746
11998TIP3    H135951   6.519   4.146   4.969  0.0750 -1.0083 -1.3252
11998TIP3    H235952   6.567   4.092   5.103 -0.5369  0.7944 -0.3488
11999TIP3   OH235953   4.756   4.341   0.520 -0.6901 -0.2269 -0.1225
11999TIP3    H135954   4.774   4.419   0.468 -0.5247  0.4758  0.9693
11999TIP3    H235955   4.822   4.278   0.491  0.0522  0.4961 -0.0425
12000TIP3   OH235956   3.237   7.026   4.761 -0.2597 -0.2424 -0.2359
12000TIP3    H135957   3.201   6.975   4.689 -1.1956 -0.8382  0.6376
12000TIP3    H235958   3.302   7.083   4.720  0.1653 -1.4900 -1.3557
12001TIP3   OH235959   1.050   0.636   2.409 -0.4007 -0.0884  0.7009
12001TIP3    H135960   0.973   0.651   2.353  0.0236  0.0596  0.1473
12001TIP3    H235961   1.014   0.625   2.497 -1.1151 -0.6925  0.3459
12002TIP3   OH235962   0.853   4.035   5.779  0.0570  0.2203  0.3809
12002TIP3    H135963   0.820   3.978   5.848 -1.9296 -0.2358 -0.8667
12002TIP3    H235964   0.795   4.110   5.779 -0.4766 -0.1358 -1.2316
12003TIP3   OH235965   5.331   4.096   0.283  0.3756  0.3277  0.7371
12003TIP3    H135966   5.318   4.009   0.245 -1.1943  0.8368  0.0129
12003TIP3    H235967   5.414   4.126   0.245 -0.0237 -0.0993 -0.5225
12004TIP3   OH235968   7.000   2.265   2.222  0.1488  0.0721 -0.2400
12004TIP3    H135969   7.017   2.197   2.287  0.7486  0.5970  0.1491
12004TIP3    H235970   7.084   2.279   2.179 -0.3534 -0.7013 -1.5734
12005TIP3   OH235971   4.894   1.673   0.813  0.2531  0.1151  0.6204
12005TIP3    H135972   4.814   1.628   0.784  0.8182 -0.8909  0.5863
12005TIP3    H235973   4.862   1.742   0.872 -0.6753  0.1148  0.1477
12006TIP3   OH235974   0.550   6.209   4.062 -0.1976 -0.1072  0.0536
12006TIP3    H135975   0.550   6.123   4.103  2.1336 -0.5073 -0.6154
12006TIP3    H235976   0.498   6.264   4.120  0.0598 -1.4710  1.6391
12007TIP3   OH235977   2.178   7.704   6.373 -0.3219 -0.4127  0.8543
12007TIP3    H135978   2.141   7.734   6.290 -0.9783 -1.9159  0.5587
12007TIP3    H235979   2.213   7.783   6.414  0.0760  0.3542 -0.8738
12008TIP3   OH235980   7.952   0.371   2.847 -0.3674 -0.7733  0.0702
12008TIP3    H135981   8.046   0.368   2.859 -0.1592 -1.9353 -1.5099
12008TIP3    H235982   7.921   0.285   2.877 -1.0839  0.0050  1.6346
12009TIP3   OH235983   7.428   6.029   2.889 -0.0949  0.0308  0.1892
12009TIP3    H135984   7.497   5.963   2.892 -1.4628 -1.4160  1.8848
12009TIP3    H235985   7.432   6.073   2.974  0.1456  1.4955 -0.5447
12010TIP3   OH235986   5.099   5.668   3.717  0.0868  0.0790  0.2915
12010TIP3    H135987   5.050   5.618   3.783  2.2926 -3.2321 -0.3558
12010TIP3    H235988   5.171   5.707   3.766  0.0614  0.0910  0.3198
12011TIP3   OH235989   0.414   7.345   0.673  0.3086 -0.4974  0.2255
12011TIP3    H135990   0.485   7.347   0.737  1.2191 -1.2446 -0.7494
12011TIP3    H235991   0.448   7.394   0.598 -0.9657  0.8779  0.4883
12012TIP3   OH235992   5.802   5.881   1.865 -0.2667  0.0250  0.0961
12012TIP3    H135993   5.887   5.905   1.828 -0.2822 -0.1361 -0.0503
12012TIP3    H235994   5.784   5.948   1.930 -1.4655  1.9023 -2.0313
12013TIP3   OH235995   0.490   2.677   6.049  0.6993 -0.0220  0.4488
12013TIP3    H135996   0.564   2.659   5.991  1.2246 -0.4488  1.2213
12013TIP3    H235997   0.466   2.767   6.030  1.3126  0.0646  0.0521
12014TIP3   OH235998   4.862   4.441   4.436 -0.1516  0.2585 -0.0622
12014TIP3    H135999   4.829   4.353   4.421 -1.7796  0.7988  0.0540
12014TIP3    H236000   4.821   4.494   4.367  2.4591  0.6262 -1.4719
12015TIP3   OH236001   5.909   6.654   2.053  0.2346  0.7232 -0.1748
12015TIP3    H136002   5.838   6.601   2.090  1.0231 -0.8999 -0.8948
12015TIP3    H236003   5.967   6.672   2.127  1.0809 -1.3220 -0.2692
12016TIP3   OH236004   6.632   7.823   4.150 -0.4642  0.4928 -0.1826
12016TIP3    H136005   6.704   7.774   4.109  0.0507  1.7156 -0.7975
12016TIP3    H236006   6.622   7.783   4.236 -0.9745 -1.5624 -1.1419
12017TIP3   OH236007   6.625   7.197   6.268 -0.2465 -0.3091  0.5180
12017TIP3    H136008   6.566   7.244   6.327  0.6086  0.7240  0.5892
12017TIP3    H236009   6.636   7.255   6.193  0.7880 -0.3988  0.5798
12018TIP3   OH236010   6.736   1.067   6.237  0.1550 -0.1679 -0.7959
12018TIP3    H136011   6.761   1.156   6.262  0.6997 -0.6127  0.2847
12018TIP3    H236012   6.759   1.013   6.312 -1.3700 -1.0443 -0.9118
12019TIP3   OH236013   6.308   6.842   3.361 -0.2271 -0.0025 -0.2786
12019TIP3    H136014   6.358   6.830   3.442  1.4407 -1.8433 -1.4742
12019TIP3    H236015   6.356   6.910   3.314  0.1465 -0.5382 -0.6793
12020TIP3   OH236016   3.616   0.480   4.195 -0.0527  0.1156 -0.3860
12020TIP3    H136017   3.533   0.490   4.243  0.3785  0.3075  0.3382
12020TIP3    H236018   3.681   0.463   4.264  0.3928 -0.7398 -1.0037
12021TIP3   OH236019   5.474   6.656   5.776 -0.6536  0.2297  0.4194
12021TIP3    H136020   5.470   6.568   5.738 -2.1420 -0.0489  1.1674
12021TIP3    H236021   5.565   6.683   5.764 -0.9297  0.0824 -3.1588
12022TIP3   OH236022   7.890   1.821   4.882 -0.3090 -0.3629  0.4596
12022TIP3    H136023   7.957   1.768   4.925 -0.9026 -1.8773 -0.3861
12022TIP3    H236024   7.819   1.827   4.946 -0.2774 -0.7087  0.5321
12023TIP3   OH236025   5.365   4.843   1.599 -0.2550  0.1551  0.5410
12023TIP3    H136026   5.381   4.810   1.687 -0.8984  1.1353  1.0470
12023TIP3    H236027   5.404   4.931   1.599  0.4486 -0.1310 -0.4179
12024TIP3   OH236028   5.890   7.557   3.171  0.0006 -0.2016  0.1821
12024TIP3    H136029   5.824   7.492   3.194  1.3885 -1.2994  1.1789
12024TIP3    H236030   5.927   7.526   3.088 -2.5211  1.8680 -1.9134
12025TIP3   OH236031   7.452   3.142   5.503 -0.0056  0.1043 -0.5269
12025TIP3    H136032   7.439   3.078   5.432 -0.9152 -1.0065  0.5994
12025TIP3    H236033   7.441   3.091   5.583 -0.0778  1.5644  0.4225
12026TIP3   OH236034   0.619   7.490   5.607 -0.0882 -0.2791 -0.2251
12026TIP3    H136035   0.620   7.395   5.596 -1.5254 -0.6956  2.5145
12026TIP3    H236036   0.697   7.510   5.658 -0.8133 -0.3020  0.9349
12027TIP3   OH236037   7.740   0.391   5.944 -0.1263  0.1957 -0.3179
12027TIP3    H136038   7.819   0.408   5.996  0.1194  2.0425 -1.2043
12027TIP3    H236039   7.773   0.360   5.860 -0.3862  0.1754 -0.4125
12028TIP3   OH236040   2.042   4.474   4.221  0.1381 -0.0461 -0.2678
12028TIP3    H136041   2.031   4.398   4.164 -0.6108  0.0320 -0.2404
12028TIP3    H236042   2.115   4.523   4.183  1.3553 -1.3279  0.3244
12029TIP3   OH236043   0.859   2.601   5.618 -0.2661  0.2664  0.2866
12029TIP3    H136044   0.897   2.535   5.675  0.5022  0.6200  0.1961
12029TIP3    H236045   0.921   2.608   5.545 -0.9490  0.2254 -0.3065
12030TIP3   OH236046   4.596   5.155   0.930  1.1648  0.0944 -0.2010
12030TIP3    H136047   4.678   5.106   0.939  0.7140 -0.9387 -1.4550
12030TIP3    H236048   4.527   5.090   0.939  0.2853  1.2712  3.2609
12031TIP3   OH236049   7.386   4.733   6.170  0.1298  0.2870  0.4496
12031TIP3    H136050   7.422   4.654   6.210  0.0282 -0.4198 -0.7960
12031TIP3    H236051   7.328   4.701   6.102 -1.7284  1.4193  1.4066
12032TIP3   OH236052   2.685   3.939   3.582 -0.0415  0.2323 -0.3405
12032TIP3    H136053   2.635   4.018   3.560  0.8635  0.3890 -2.0128
12032TIP3    H236054   2.773   3.970   3.600  0.2288 -0.3545 -0.6188
12033TIP3   OH236055   3.331   0.209   5.664  0.0577  0.0619 -0.1161
12033TIP3    H136056   3.358   0.270   5.594 -0.3569 -1.0814 -1.3222
12033TIP3    H236057   3.413   0.169   5.693  0.0477 -1.2691 -1.7336
12034TIP3   OH236058   6.963   6.030   0.056 -0.7715 -0.3512 -0.2461
12034TIP3    H136059   6.975   5.990   0.143 -0.2171  2.3265  0.9996
12034TIP3    H236060   6.892   6.093   0.068 -1.5897 -0.8536 -2.1308
12035TIP3   OH236061   1.466   2.335   5.855  0.2636 -0.3439 -0.3835
12035TIP3    H136062   1.460   2.411   5.914  0.8986  0.5769 -1.4645
12035TIP3    H236063   1.381   2.334   5.810  0.1218 -0.4916 -0.1149
12036TIP3   OH236064   5.254   6.677   1.522 -0.0107 -0.0867  0.2181
12036TIP3    H136065   5.311   6.603   1.543 -0.4163 -0.5858 -0.4127
12036TIP3    H236066   5.173   6.637   1.490 -0.8192  0.6103  1.3254
12037TIP3   OH236067   3.504   7.388   0.177 -0.2510  0.4557  0.1554
12037TIP3    H136068   3.521   7.457   0.114 -1.2168  0.0912 -0.5442
12037TIP3    H236069   3.502   7.308   0.125 -1.0323  0.1409  0.6429
12038TIP3   OH236070   6.212   1.783   3.885  0.0193 -0.1274  0.1966
12038TIP3    H136071   6.299   1.811   3.859 -0.1490  0.0959 -0.1491
12038TIP3    H236072   6.200   1.818   3.973  0.4820 -0.6240  0.4600
12039TIP3   OH236073   5.627   0.904   5.742 -0.0261  0.3191 -0.1863
12039TIP3    H136074   5.623   0.857   5.826  0.1797  1.3670  0.4285
12039TIP3    H236075   5.674   0.844   5.684 -3.1987 -2.0222 -0.6799
12040TIP3   OH236076   4.142   1.679   1.374  0.4990  0.0542  0.0569
12040TIP3    H136077   4.052   1.670   1.403  0.7846 -0.9401  0.7073
12040TIP3    H236078   4.183   1.595   1.396  1.7426  0.7113  0.3617
12041TIP3   OH236079   4.865   4.352   1.099 -0.0448  0.2307  0.1037
12041TIP3    H136080   4.820   4.352   1.015  0.7768  0.9805 -0.3593
12041TIP3    H236081   4.881   4.259   1.118 -0.0085  0.0683 -0.6957
12042TIP3   OH236082  -0.002   2.275   5.892 -0.6642  0.3636  0.0538
12042TIP3    H136083   0.012   2.182   5.910 -0.7926  0.0021 -1.5425
12042TIP3    H236084   0.067   2.297   5.829  0.1748  1.6945  1.3763
12043TIP3   OH236085   4.570   6.809   5.663  0.5709 -0.7622 -0.4894
12043TIP3    H136086   4.594   6.899   5.688  1.1561 -1.2237  0.6521
12043TIP3    H236087   4.475   6.812   5.651  0.6381  0.1018 -0.9014
12044TIP3   OH236088   0.691   5.128   0.555 -0.5419  0.4062  0.0677
12044TIP3    H136089   0.651   5.064   0.496 -0.0370 -0.2936  0.4674
12044TIP3    H236090   0.637   5.206   0.545 -0.3905  0.3588 -1.4292
12045TIP3   OH236091   5.048   5.934   2.592  0.0539  0.2211 -0.0261
12045TIP3    H136092   5.033   6.003   2.528 -0.3201 -0.2494 -0.4601
12045TIP3    H236093   5.042   5.853   2.542 -1.2552 -0.2073  0.7705
12046TIP3   OH236094   5.473   0.656   2.492 -0.2231 -0.7375  0.0641
12046TIP3    H136095   5.488   0.750   2.479 -1.1763 -0.4561  0.8541
12046TIP3    H236096   5.473   0.620   2.403 -0.0052  0.0355 -0.2634
12047TIP3   OH236097   1.222   3.621   3.788 -0.4075  0.4792 -0.3806
12047TIP3    H136098   1.312   3.631   3.759 -0.2044  0.4975  0.2452
12047TIP3    H236099   1.171   3.676   3.728  0.0730  1.0022 -0.3205
12048TIP3   OH236100   7.370   5.800   5.839  0.2310  0.1545 -0.0756
12048TIP3    H136101   7.316   5.756   5.905  0.4121 -0.9796 -0.6505
12048TIP3    H236102   7.347   5.893   5.847 -0.8277 -0.1421  0.5743
12049TIP3   OH236103   0.558   2.602   4.726  0.1204  0.2157 -0.4431
12049TIP3    H136104   0.527   2.650   4.649 -0.7067  0.2291 -0.1114
12049TIP3    H236105   0.586   2.669   4.788  1.7614  0.1878 -1.1030
12050TIP3   OH236106   2.352   7.213   5.274 -0.1056  0.1233  0.3337
12050TIP3    H136107   2.415   7.285   5.268  0.9702 -0.8758 -0.8034
12050TIP3    H236108   2.267   7.257   5.283  0.6124  1.5122  0.6891
12051TIP3   OH236109   2.823   7.206   5.496 -0.4120 -0.3303  0.5625
12051TIP3    H136110   2.852   7.119   5.468 -2.8271 -1.3756  1.0929
12051TIP3    H236111   2.807   7.197   5.590 -0.0096  0.9019  0.7638
12052TIP3   OH236112   0.197   1.856   5.045 -0.5902 -0.5347 -0.1014
12052TIP3    H136113   0.105   1.842   5.068 -0.3962 -2.1109 -0.1237
12052TIP3    H236114   0.234   1.768   5.045  0.3983 -0.1816 -2.3593
12053TIP3   OH236115   6.117   6.774   5.388 -0.3411 -0.4353 -0.1970
12053TIP3    H136116   6.190   6.824   5.351 -0.7676 -0.1558 -0.6740
12053TIP3    H236117   6.086   6.720   5.316 -3.7099  2.9089 -1.6173
12054TIP3   OH236118   6.487   7.226   1.152  0.2505  0.1656  0.2040
12054TIP3    H136119   6.453   7.315   1.138 -0.8673 -0.1832  0.5907
12054TIP3    H236120   6.430   7.170   1.098  0.0021 -0.4721  1.1076
12055TIP3   OH236121   5.078   7.159   4.373  0.4559 -0.1979  0.1565
12055TIP3    H136122   5.083   7.131   4.464  1.8636 -1.4637 -0.2722
12055TIP3    H236123   5.071   7.254   4.378  2.5083 -0.0561  1.5827
12056TIP3   OH236124   6.708   5.456   0.932  0.0540  0.2533  0.0267
12056TIP3    H136125   6.774   5.392   0.957  0.7586  0.4640 -1.2058
12056TIP3    H236126   6.631   5.404   0.908  0.8568 -0.2091 -1.6696
12057TIP3   OH236127   0.207   2.196   3.351  0.1135 -0.6844 -0.2817
12057TIP3    H136128   0.237   2.120   3.401 -1.4383 -0.0997  1.6833
12057TIP3    H236129   0.286   2.249   3.338  1.1424 -2.3970 -1.3480
12058TIP3   OH236130   8.186   2.996   5.156  0.5439  0.1614  0.1937
12058TIP3    H136131   8.271   2.962   5.129  1.2364 -0.2714  2.7101
12058TIP3    H236132   8.127   2.921   5.152  0.5680  0.1686 -0.3438
12059TIP3   OH236133   2.635   6.668   4.797 -0.0588  0.3988 -0.4733
12059TIP3    H136134   2.630   6.698   4.706 -0.8885 -1.5582 -1.1020
12059TIP3    H236135   2.593   6.583   4.797  0.2976  0.1759  1.6894
12060TIP3   OH236136   0.904   6.593   1.497 -0.0785  0.8461 -0.7504
12060TIP3    H136137   0.954   6.620   1.575  1.0851  0.3915 -1.3072
12060TIP3    H236138   0.916   6.665   1.435 -0.0713  0.7075 -0.9100
12061TIP3   OH236139   4.449   0.378   2.212 -0.1079 -0.4368 -0.1432
12061TIP3    H136140   4.402   0.457   2.187 -0.0373 -1.0976 -2.6596
12061TIP3    H236141   4.532   0.409   2.247 -0.1459  0.6423 -0.9489
12062TIP3   OH236142   8.137   6.802   0.271 -0.7673 -0.1014  0.0882
12062TIP3    H136143   8.090   6.869   0.221 -1.5517 -0.5511  0.2165
12062TIP3    H236144   8.218   6.846   0.298 -0.6852  0.3922 -0.9067
12063TIP3   OH236145   5.340   5.444   5.471 -0.2881 -0.0397  0.2344
12063TIP3    H136146   5.327   5.500   5.395  0.2797 -2.5237 -1.8221
12063TIP3    H236147   5.399   5.375   5.440 -0.4135 -1.4181  2.8093
12064TIP3   OH236148   0.608   3.059   4.979 -0.2027 -0.0033 -0.3731
12064TIP3    H136149   0.525   3.082   4.937 -0.5761  2.6231  1.5582
12064TIP3    H236150   0.670   3.126   4.949  0.7658 -0.8554 -0.3530
12065TIP3   OH236151   2.095   4.613   6.645 -0.2391  0.3399  0.1512
12065TIP3    H136152   2.093   4.575   6.557  0.5658 -0.6787  0.5501
12065TIP3    H236153   2.066   4.542   6.702  1.8843  0.0846  0.9835
12066TIP3   OH236154   4.655   6.238   2.224 -0.4076 -0.3518  0.4596
12066TIP3    H136155   4.653   6.191   2.307 -0.0505  0.9775  1.2513
12066TIP3    H236156   4.713   6.312   2.240 -0.3827 -0.0334 -0.9663
12067TIP3   OH236157   1.365   1.879   2.004  0.0994 -0.3799 -0.8323
12067TIP3    H136158   1.361   1.841   2.091 -0.0547 -1.3306 -1.2469
12067TIP3    H236159   1.420   1.819   1.953  2.1131  1.3131 -0.8316
12068TIP3   OH236160   3.671   4.982   4.976  0.3282  0.2127 -0.2133
12068TIP3    H136161   3.679   5.014   4.886 -0.3663 -0.3291 -0.4784
12068TIP3    H236162   3.582   5.006   5.002  0.7267  0.9007  0.5469
12069TIP3   OH236163   7.308   5.598   1.565  0.1635 -0.0738  0.0335
12069TIP3    H136164   7.276   5.508   1.567  0.3231 -0.1200  0.6472
12069TIP3    H236165   7.257   5.639   1.495 -0.0954 -0.5700 -0.0781
12070TIP3   OH236166   3.966   1.993   5.862 -0.3219  0.3247  0.0440
12070TIP3    H136167  